 DBCSR| CPU Multiplication driver                                           XSMM (U)
 DBCSR| Multrec recursion limit                                              512 (U)
 DBCSR| Multiplication stack size                                           1000 (D)
 DBCSR| Maximum elements for images                                    UNLIMITED (U)
 DBCSR| Multiplicative factor virtual images                                   1 (U)
 DBCSR| Use multiplication densification                                       T (D)
 DBCSR| Multiplication size stacks                                             3 (U)
 DBCSR| Use memory pool for CPU allocation                                     F (U)
 DBCSR| Number of 3D layers                                               SINGLE (U)
 DBCSR| Use MPI memory allocation                                              F (U)
 DBCSR| Use RMA algorithm                                                      F (U)
 DBCSR| Use Communication thread                                               T (U)
 DBCSR| Communication thread load                                             87 (D)
 DBCSR| MPI: My process id                                                     0
 DBCSR| MPI: Number of processes                                               1
 DBCSR| OMP: Current number of threads                                         1
 DBCSR| OMP: Max number of threads                                             1
 DBCSR| Split modifier for TAS multiplication algorithm                  1.0E+00 (U)


  **** **** ******  **  PROGRAM STARTED AT               2026-05-23 22:46:18.320
 ***** ** ***  *** **   PROGRAM STARTED ON                            spark-c86c
 **    ****   ******    PROGRAM STARTED BY                              kuehne88
 ***** **    ** ** **   PROGRAM PROCESS ID                               2222451
  **** **  *******  **  PROGRAM STARTED IN /home/kuehne88/periodic-gfn2-benchmar
                                           ks/X23b/runs/molecule_geoopt/GFN1/suc
                                           cinic_acid_GFN1_mol_geoopt

 CP2K| version string:                 CP2K version 2026.1 (Development Version)
 CP2K| source code revision number:                                   0622d442e4
 CP2K| cp2kflags: omp fftw3 libxc parallel scalapack mpi_f08 xsmm spglib libdftd
 CP2K|            4 dftd4_v3 mctc-lib tblite
 CP2K| is freely available from                            https://www.cp2k.org/
 CP2K| Program compiled at                                   2026-05-23 22:05:08
 CP2K| Program compiled on                                            spark-c86c
 CP2K| Program compiled for                                              aarch64
 CP2K| Data directory path    /home/kuehne88/cp2k-master-tblite-20260523/install
 CP2K| Input file name                         succinic_acid_GFN1_mol_geoopt.inp

 GLOBAL| Force Environment number                                              1
 GLOBAL| Basis set file name                                           BASIS_SET
 GLOBAL| Potential file name                                           POTENTIAL
 GLOBAL| MM Potential file name                                     MM_POTENTIAL
 GLOBAL| Coordinate file name                                      __STD_INPUT__
 GLOBAL| Method name                                                        CP2K
 GLOBAL| Project name                              succinic_acid_GFN1_mol_geoopt
 GLOBAL| Run type                                                        GEO_OPT
 GLOBAL| FFT library                                                       FFTW3
 GLOBAL| Diagonalization library                                       ScaLAPACK
 GLOBAL| Cholesky decomposition library                                ScaLAPACK
 GLOBAL| DGEMM library                                                      BLAS
 GLOBAL| Direct generalized diagonalization requested                          F
 GLOBAL| Orthonormality check for eigenvectors                          DISABLED
 GLOBAL| Matrix multiplication library                                 ScaLAPACK
 GLOBAL| All-to-all communication in single precision                          F
 GLOBAL| FFTs using library dependent lengths                                  F
 GLOBAL| Grid backend                                                       AUTO
 GLOBAL| Global print level                                                  LOW
 GLOBAL| MPI I/O enabled                                                       T
 GLOBAL| Total number of message passing processes                             1
 GLOBAL| Number of distributed systems (nodes)                                 1
 GLOBAL| Number of threads for this process                                    1
 GLOBAL| This output is from process                                           0
 GLOBAL| OpenMP stack size per thread (OMP_STACKSIZE)                    default
 GLOBAL| CPU model name                                                  UNKNOWN
 GLOBAL| CPUID                                                              2200
 GLOBAL| Compiled for CPUID                                                 2000

 *** HINT in environment.F:970 :: The compiler target flags (arm_arch64)   ***
 *** used to build this binary cannot exploit all extensions of this CPU   ***
 *** model (arm_sve256). Consider compiler target flags as part of FCFLAGS ***
 *** and CFLAGS (ARCH file).                                               ***


 MEMORY| system memory details [Kb]
 MEMORY|                        rank 0           min           max       average
 MEMORY| MemTotal            125508532     125508532     125508532     125508532
 MEMORY| MemFree             105608204     105608204     105608204     105608204
 MEMORY| Buffers                865984        865984        865984        865984
 MEMORY| Cached               13214800      13214800      13214800      13214800
 MEMORY| Slab                  1565168       1565168       1565168       1565168
 MEMORY| SReclaimable           888300        888300        888300        888300
 MEMORY| MemLikelyFree       120577288     120577288     120577288     120577288


 GENERATE|  Preliminary Number of Bonds generated:                             0
 GENERATE|  Achieved consistency in connectivity generation.


                  #####   #####        #     #   #     #       #          
                 #     # #     #      #    ##### #     #   # #####  ####  
                 #     # #           #       #   ###   #       #   #    # 
                 #     #  #####     #        #   #  #  #   #   #   ###### 
                 #   # #       #   #         #   #   # #   #   #   #      
                 #    #  #     #  #          #   #  #  # # #   #    #   # 
                  #### #  #####  #           #   ###   ##  #   #     ###  

                                   GFN1-xTB  
                                 Version 0.0                       
                            Johann V. Pototschnig                  



 TOTAL NUMBERS AND MAXIMUM NUMBERS

  Total number of            - Atomic kinds:                                   3
                             - Atoms:                                         14
                             - Shell sets:                                    28
                             - Shells:                                        28
                             - Primitive Cartesian functions:                162
                             - Cartesian basis functions:                     44
                             - Spherical basis functions:                     44

  Maximum angular momentum of the orbital basis functions:                     1


 SCF PARAMETERS         Density guess:                                     MOPAC
                        --------------------------------------------------------
                        max_scf:                                             300
                        max_scf_history:                                       0
                        max_diis:                                              4
                        --------------------------------------------------------
                        eps_scf:                                        1.00E-09
                        eps_scf_history:                                0.00E+00
                        eps_diis:                                       1.00E-01
                        eps_eigval:                                     1.00E-05
                        --------------------------------------------------------
                        level_shift [a.u.]:                             0.000000
                        added MOs                                        21    0
                        --------------------------------------------------------
                        Mixing method:                           DIRECT_P_MIXING
                        --------------------------------------------------------
                        Smear method:                                FERMI_DIRAC
                        Electronic temperature [K]:                        300.0
                        Electronic temperature [a.u.]:                  9.50E-04
                        Accuracy threshold:                             1.00E-06
                        --------------------------------------------------------
                        No outer SCF

 BFGS| Use rational function optimization for step estimation:                NO
 BFGS| Use model Hessian for initial guess:                                  YES
 BFGS| Restart Hessian:                                                       NO
 BFGS| Trust radius:                                                       0.472

 *******************************************************************************
 ***                     STARTING GEOMETRY OPTIMIZATION                      ***
 ***                                   BFGS                                  ***
 *******************************************************************************

 Extrapolation method: initial_guess

 Number of electrons:                                                         46
 Number of occupied orbitals:                                                 23
 Number of molecular orbitals:                                                44

 Number of orbital functions:                                                 44
 Number of independent orbital functions:                                     44


 SCF WAVEFUNCTION OPTIMIZATION

  Step     Update method      Time    Convergence         Total energy    Change
  ------------------------------------------------------------------------------
     1 TBLite/Diag 0.40E+00    0.0     1.57480661       -29.8139937074 -2.98E+01
     2 TBLite/Diag 0.40E+00    0.0     0.27404844       -30.5031329335 -6.89E-01
     3 TBLite/Diag 0.40E+00    0.0     0.04953399       -30.5135447730 -1.04E-02
     4 TBLite/Diag 0.40E+00    0.0     0.03634991       -30.5136628162 -1.18E-04
     5 TBLite/Diag 0.40E+00    0.0     0.02827787       -30.5150600935 -1.40E-03
     6 TBLite/Diag 0.40E+00    0.0     0.01092745       -30.5156205435 -5.60E-04
     7 TBLite/Diag 0.40E+00    0.0     0.00164705       -30.5156403042 -1.98E-05
     8 TBLite/Diag 0.40E+00    0.0     0.00044454       -30.5156403257 -2.15E-08
     9 TBLite/Diag 0.40E+00    0.0     0.00021062       -30.5156406361 -3.10E-07
    10 TBLite/Diag 0.40E+00    0.0     0.00000293       -30.5156406366 -4.80E-10
    11 TBLite/Diag 0.40E+00    0.0     0.00001189       -30.5156406376 -9.59E-10
    12 TBLite/Diag 0.40E+00    0.0     0.00000086       -30.5156406376 -2.39E-12
    13 TBLite/Diag 0.40E+00    0.0     0.00000020       -30.5156406376 -2.63E-13
    14 TBLite/Diag 0.40E+00    0.0     7.0477E-10       -30.5156406376  2.84E-14

  *** SCF run converged in    14 steps ***


  Core Hamiltonian energy:                                    -30.91282986704866
  Repulsive potential energy:                                   0.21726392639451
  Electrostatic energy:                                         0.18476239860958
  Self-consistent dispersion energy:                            0.00000000000000
  Non-self consistent dispersion energy:                       -0.00483709552907
  Correction for halogen bonding:                               0.00000000000000
  Electronic entropic energy:                                  -0.00000000000000
  Fermi energy:                                                -0.30918463828737

  Total energy:                                               -30.51564063757364
  Total energy (extrapolated to T->0):                        -30.51564063757364

 ENERGY| Total FORCE_EVAL ( QS ) energy [hartree]            -30.515640637573643

 OPT| **************************************************************************
 OPT| Step number                                                              0
 OPT| Optimization method                                                   BFGS
 OPT| Total energy [hartree]                                      -30.5156406376
 OPT| Used time [s]                                                        0.030
 OPT| **************************************************************************
 OPT| Estimated peak process memory [MiB]                                    166

 --------------------------
 OPTIMIZATION STEP:      1
 --------------------------

 Extrapolation method: ASPC

 Number of electrons:                                                         46
 Number of occupied orbitals:                                                 23
 Number of molecular orbitals:                                                44

 Number of orbital functions:                                                 44
 Number of independent orbital functions:                                     44


 SCF WAVEFUNCTION OPTIMIZATION

  Step     Update method      Time    Convergence         Total energy    Change
  ------------------------------------------------------------------------------
     1 TBLite/Diag 0.40E+00    0.0     0.05090895       -30.5247433777 -3.05E+01
     2 TBLite/Diag 0.40E+00    0.0     0.00792461       -30.5251829762 -4.40E-04
     3 TBLite/Diag 0.40E+00    0.0     0.00075348       -30.5251852130 -2.24E-06
     4 TBLite/Diag 0.40E+00    0.0     0.00051441       -30.5251849933  2.20E-07
     5 TBLite/Diag 0.40E+00    0.0     0.00027950       -30.5251855123 -5.19E-07
     6 TBLite/Diag 0.40E+00    0.0     0.00004279       -30.5251855199 -7.60E-09
     7 TBLite/Diag 0.40E+00    0.0     0.00000553       -30.5251855200 -9.78E-11
     8 TBLite/Diag 0.40E+00    0.0     0.00000008       -30.5251855200 -9.59E-14
     9 TBLite/Diag 0.40E+00    0.0     0.00000006       -30.5251855200  1.07E-14
    10 TBLite/Diag 0.40E+00    0.0     1.9532E-09       -30.5251855200 -1.42E-14
    11 TBLite/Diag 0.40E+00    0.0     5.2328E-10       -30.5251855200  1.78E-14

  *** SCF run converged in    11 steps ***


  Core Hamiltonian energy:                                    -30.94039571908649
  Repulsive potential energy:                                   0.24077996247773
  Electrostatic energy:                                         0.17927803135343
  Self-consistent dispersion energy:                            0.00000000000000
  Non-self consistent dispersion energy:                       -0.00484779478312
  Correction for halogen bonding:                               0.00000000000000
  Electronic entropic energy:                                  -0.00000000000000
  Fermi energy:                                                -0.30128075497934

  Total energy:                                               -30.52518552003846
  Total energy (extrapolated to T->0):                        -30.52518552003846

 ENERGY| Total FORCE_EVAL ( QS ) energy [hartree]            -30.525185520038455

 OPT| **************************************************************************
 OPT| Step number                                                              1
 OPT| Optimization method                                                   BFGS
 OPT| Total energy [hartree]                                      -30.5251855200
 OPT| Effective energy change [hartree]                            -0.0095448825
 OPT| Predicted energy change [hartree]                            -0.0070070079
 OPT| Scaling factor                                                0.0000000000
 OPT| Step size                                                     0.0581446203
 OPT| Trust radius                                                  0.4724315332
 OPT| Decrease in energy                                                     YES
 OPT| Used time [s]                                                        0.014
 OPT|
 OPT| Maximum step size                                             0.0581446203
 OPT| Convergence limit for maximum step size                       0.0030000000
 OPT| Maximum step size is converged                                          NO
 OPT|
 OPT| RMS step size                                                 0.0218396618
 OPT| Convergence limit for RMS step size                           0.0015000000
 OPT| RMS step size is converged                                              NO
 OPT|
 OPT| Maximum gradient                                              0.0200290656
 OPT| Convergence limit for maximum gradient                        0.0004500000
 OPT| Maximum gradient is converged                                           NO
 OPT|
 OPT| RMS gradient                                                  0.0086230548
 OPT| Convergence limit for RMS gradient                            0.0003000000
 OPT| RMS gradient is converged                                               NO
 OPT| **************************************************************************
 OPT| Estimated peak process memory after this step [MiB]                    166

 --------------------------
 OPTIMIZATION STEP:      2
 --------------------------

 Extrapolation method: ASPC

 Number of electrons:                                                         46
 Number of occupied orbitals:                                                 23
 Number of molecular orbitals:                                                44

 Number of orbital functions:                                                 44
 Number of independent orbital functions:                                     44


 SCF WAVEFUNCTION OPTIMIZATION

  Step     Update method      Time    Convergence         Total energy    Change
  ------------------------------------------------------------------------------
     1 TBLite/Diag 0.40E+00    0.0     0.03119170       -30.5261770500 -3.05E+01
     2 TBLite/Diag 0.40E+00    0.0     0.00670649       -30.5264040400 -2.27E-04
     3 TBLite/Diag 0.40E+00    0.0     0.00084934       -30.5264072249 -3.18E-06
     4 TBLite/Diag 0.40E+00    0.0     0.00029295       -30.5264073372 -1.12E-07
     5 TBLite/Diag 0.40E+00    0.0     0.00013387       -30.5264074471 -1.10E-07
     6 TBLite/Diag 0.40E+00    0.0     0.00002808       -30.5264074521 -5.01E-09
     7 TBLite/Diag 0.40E+00    0.0     0.00000941       -30.5264074523 -1.53E-10
     8 TBLite/Diag 0.40E+00    0.0     0.00000035       -30.5264074523 -3.55E-13
     9 TBLite/Diag 0.40E+00    0.0     0.00000002       -30.5264074523 -7.11E-15
    10 TBLite/Diag 0.40E+00    0.0     5.5356E-09       -30.5264074523  1.78E-14
    11 TBLite/Diag 0.40E+00    0.0     1.2347E-09       -30.5264074523  7.11E-15
    12 TBLite/Diag 0.40E+00    0.0     1.0569E-10       -30.5264074523 -1.78E-14

  *** SCF run converged in    12 steps ***


  Core Hamiltonian energy:                                    -30.95505900349388
  Repulsive potential energy:                                   0.25843310798902
  Electrostatic energy:                                         0.17507566356478
  Self-consistent dispersion energy:                            0.00000000000000
  Non-self consistent dispersion energy:                       -0.00485722033466
  Correction for halogen bonding:                               0.00000000000000
  Electronic entropic energy:                                  -0.00000000000000
  Fermi energy:                                                -0.29828968696868

  Total energy:                                               -30.52640745227473
  Total energy (extrapolated to T->0):                        -30.52640745227473

 ENERGY| Total FORCE_EVAL ( QS ) energy [hartree]            -30.526407452274729

 OPT| **************************************************************************
 OPT| Step number                                                              2
 OPT| Optimization method                                                   BFGS
 OPT| Total energy [hartree]                                      -30.5264074523
 OPT| Effective energy change [hartree]                            -0.0012219322
 OPT| Predicted energy change [hartree]                            -0.0019366896
 OPT| Scaling factor                                                0.0000000000
 OPT| Step size                                                     0.0546141557
 OPT| Trust radius                                                  0.4724315332
 OPT| Decrease in energy                                                     YES
 OPT| Used time [s]                                                        0.015
 OPT|
 OPT| Maximum step size                                             0.0546141557
 OPT| Convergence limit for maximum step size                       0.0030000000
 OPT| Maximum step size is converged                                          NO
 OPT|
 OPT| RMS step size                                                 0.0182826387
 OPT| Convergence limit for RMS step size                           0.0015000000
 OPT| RMS step size is converged                                              NO
 OPT|
 OPT| Maximum gradient                                              0.0076024927
 OPT| Convergence limit for maximum gradient                        0.0004500000
 OPT| Maximum gradient is converged                                           NO
 OPT|
 OPT| RMS gradient                                                  0.0034337433
 OPT| Convergence limit for RMS gradient                            0.0003000000
 OPT| RMS gradient is converged                                               NO
 OPT| **************************************************************************
 OPT| Estimated peak process memory after this step [MiB]                    167

 --------------------------
 OPTIMIZATION STEP:      3
 --------------------------

 Extrapolation method: ASPC

 Number of electrons:                                                         46
 Number of occupied orbitals:                                                 23
 Number of molecular orbitals:                                                44

 Number of orbital functions:                                                 44
 Number of independent orbital functions:                                     44


 SCF WAVEFUNCTION OPTIMIZATION

  Step     Update method      Time    Convergence         Total energy    Change
  ------------------------------------------------------------------------------
     1 TBLite/Diag 0.40E+00    0.0     0.02569178       -30.5267302619 -3.05E+01
     2 TBLite/Diag 0.40E+00    0.0     0.00119273       -30.5267386339 -8.37E-06
     3 TBLite/Diag 0.40E+00    0.0     0.00027118       -30.5267390136 -3.80E-07
     4 TBLite/Diag 0.40E+00    0.0     0.00014082       -30.5267390559 -4.24E-08
     5 TBLite/Diag 0.40E+00    0.0     0.00005373       -30.5267390716 -1.57E-08
     6 TBLite/Diag 0.40E+00    0.0     0.00001858       -30.5267390726 -9.51E-10
     7 TBLite/Diag 0.40E+00    0.0     0.00000443       -30.5267390726 -2.37E-11
     8 TBLite/Diag 0.40E+00    0.0     0.00000056       -30.5267390726 -6.39E-13
     9 TBLite/Diag 0.40E+00    0.0     0.00000002       -30.5267390726  3.55E-15
    10 TBLite/Diag 0.40E+00    0.0     2.5235E-09       -30.5267390726  1.78E-14
    11 TBLite/Diag 0.40E+00    0.0     2.6979E-10       -30.5267390726 -3.20E-14

  *** SCF run converged in    11 steps ***


  Core Hamiltonian energy:                                    -30.95231696059076
  Repulsive potential energy:                                   0.25446790465835
  Electrostatic energy:                                         0.17596847923015
  Self-consistent dispersion energy:                            0.00000000000000
  Non-self consistent dispersion energy:                       -0.00485849590438
  Correction for halogen bonding:                               0.00000000000000
  Electronic entropic energy:                                  -0.00000000000000
  Fermi energy:                                                -0.29963052452887

  Total energy:                                               -30.52673907260663
  Total energy (extrapolated to T->0):                        -30.52673907260663

 ENERGY| Total FORCE_EVAL ( QS ) energy [hartree]            -30.526739072606635

 OPT| **************************************************************************
 OPT| Step number                                                              3
 OPT| Optimization method                                                   BFGS
 OPT| Total energy [hartree]                                      -30.5267390726
 OPT| Effective energy change [hartree]                            -0.0003316203
 OPT| Predicted energy change [hartree]                            -0.0004237425
 OPT| Scaling factor                                                0.0000000000
 OPT| Step size                                                     0.0236763774
 OPT| Trust radius                                                  0.4724315332
 OPT| Decrease in energy                                                     YES
 OPT| Used time [s]                                                        0.014
 OPT|
 OPT| Maximum step size                                             0.0236763774
 OPT| Convergence limit for maximum step size                       0.0030000000
 OPT| Maximum step size is converged                                          NO
 OPT|
 OPT| RMS step size                                                 0.0089373143
 OPT| Convergence limit for RMS step size                           0.0015000000
 OPT| RMS step size is converged                                              NO
 OPT|
 OPT| Maximum gradient                                              0.0024669760
 OPT| Convergence limit for maximum gradient                        0.0004500000
 OPT| Maximum gradient is converged                                           NO
 OPT|
 OPT| RMS gradient                                                  0.0011949586
 OPT| Convergence limit for RMS gradient                            0.0003000000
 OPT| RMS gradient is converged                                               NO
 OPT| **************************************************************************
 OPT| Estimated peak process memory after this step [MiB]                    167

 --------------------------
 OPTIMIZATION STEP:      4
 --------------------------

 Extrapolation method: ASPC

 Number of electrons:                                                         46
 Number of occupied orbitals:                                                 23
 Number of molecular orbitals:                                                44

 Number of orbital functions:                                                 44
 Number of independent orbital functions:                                     44


 SCF WAVEFUNCTION OPTIMIZATION

  Step     Update method      Time    Convergence         Total energy    Change
  ------------------------------------------------------------------------------
     1 TBLite/Diag 0.40E+00    0.0     0.00973292       -30.5267941926 -3.05E+01
     2 TBLite/Diag 0.40E+00    0.0     0.00045399       -30.5267957256 -1.53E-06
     3 TBLite/Diag 0.40E+00    0.0     0.00005472       -30.5267957333 -7.71E-09
     4 TBLite/Diag 0.40E+00    0.0     0.00004227       -30.5267957337 -3.92E-10
     5 TBLite/Diag 0.40E+00    0.0     0.00001115       -30.5267957343 -5.94E-10
     6 TBLite/Diag 0.40E+00    0.0     0.00000744       -30.5267957344 -7.98E-11
     7 TBLite/Diag 0.40E+00    0.0     0.00000037       -30.5267957344 -5.79E-13
     8 TBLite/Diag 0.40E+00    0.0     0.00000006       -30.5267957344 -2.13E-14
     9 TBLite/Diag 0.40E+00    0.0     4.0933E-09       -30.5267957344 -7.11E-15
    10 TBLite/Diag 0.40E+00    0.0     6.9551E-10       -30.5267957344  2.13E-14

  *** SCF run converged in    10 steps ***


  Core Hamiltonian energy:                                    -30.95095736900597
  Repulsive potential energy:                                   0.25272981673389
  Electrostatic energy:                                         0.17629087965808
  Self-consistent dispersion energy:                            0.00000000000000
  Non-self consistent dispersion energy:                       -0.00485906177343
  Correction for halogen bonding:                               0.00000000000000
  Electronic entropic energy:                                  -0.00000000000000
  Fermi energy:                                                -0.30042255484650

  Total energy:                                               -30.52679573438742
  Total energy (extrapolated to T->0):                        -30.52679573438742

 ENERGY| Total FORCE_EVAL ( QS ) energy [hartree]            -30.526795734387417

 OPT| **************************************************************************
 OPT| Step number                                                              4
 OPT| Optimization method                                                   BFGS
 OPT| Total energy [hartree]                                      -30.5267957344
 OPT| Effective energy change [hartree]                            -0.0000566618
 OPT| Predicted energy change [hartree]                            -0.0000734847
 OPT| Scaling factor                                                0.0000000000
 OPT| Step size                                                     0.0095593330
 OPT| Trust radius                                                  0.4724315332
 OPT| Decrease in energy                                                     YES
 OPT| Used time [s]                                                        0.014
 OPT|
 OPT| Maximum step size                                             0.0095593330
 OPT| Convergence limit for maximum step size                       0.0030000000
 OPT| Maximum step size is converged                                          NO
 OPT|
 OPT| RMS step size                                                 0.0039985942
 OPT| Convergence limit for RMS step size                           0.0015000000
 OPT| RMS step size is converged                                              NO
 OPT|
 OPT| Maximum gradient                                              0.0014949824
 OPT| Convergence limit for maximum gradient                        0.0004500000
 OPT| Maximum gradient is converged                                           NO
 OPT|
 OPT| RMS gradient                                                  0.0006645646
 OPT| Convergence limit for RMS gradient                            0.0003000000
 OPT| RMS gradient is converged                                               NO
 OPT| **************************************************************************
 OPT| Estimated peak process memory after this step [MiB]                    167

 --------------------------
 OPTIMIZATION STEP:      5
 --------------------------

 Extrapolation method: ASPC

 Number of electrons:                                                         46
 Number of occupied orbitals:                                                 23
 Number of molecular orbitals:                                                44

 Number of orbital functions:                                                 44
 Number of independent orbital functions:                                     44


 SCF WAVEFUNCTION OPTIMIZATION

  Step     Update method      Time    Convergence         Total energy    Change
  ------------------------------------------------------------------------------
     1 TBLite/Diag 0.40E+00    0.0     0.00990418       -30.5268231682 -3.05E+01
     2 TBLite/Diag 0.40E+00    0.0     0.00008742       -30.5268231978 -2.96E-08
     3 TBLite/Diag 0.40E+00    0.0     0.00003561       -30.5268231979 -1.47E-10
     4 TBLite/Diag 0.40E+00    0.0     0.00002185       -30.5268232001 -2.17E-09
     5 TBLite/Diag 0.40E+00    0.0     0.00000373       -30.5268232002 -1.11E-10
     6 TBLite/Diag 0.40E+00    0.0     0.00000269       -30.5268232002 -7.59E-12
     7 TBLite/Diag 0.40E+00    0.0     0.00000015       -30.5268232002 -7.11E-14
     8 TBLite/Diag 0.40E+00    0.0     0.00000003       -30.5268232002  7.11E-15
     9 TBLite/Diag 0.40E+00    0.0     1.3625E-09       -30.5268232002 -3.55E-15
    10 TBLite/Diag 0.40E+00    0.0     1.3035E-10       -30.5268232002  3.55E-15

  *** SCF run converged in    10 steps ***


  Core Hamiltonian energy:                                    -30.95128047689211
  Repulsive potential energy:                                   0.25307990960776
  Electrostatic energy:                                         0.17623786156495
  Self-consistent dispersion energy:                            0.00000000000000
  Non-self consistent dispersion energy:                       -0.00486049451040
  Correction for halogen bonding:                               0.00000000000000
  Electronic entropic energy:                                  -0.00000000000000
  Fermi energy:                                                -0.30047660503177

  Total energy:                                               -30.52682320022980
  Total energy (extrapolated to T->0):                        -30.52682320022980

 ENERGY| Total FORCE_EVAL ( QS ) energy [hartree]            -30.526823200229796

 OPT| **************************************************************************
 OPT| Step number                                                              5
 OPT| Optimization method                                                   BFGS
 OPT| Total energy [hartree]                                      -30.5268232002
 OPT| Effective energy change [hartree]                            -0.0000274658
 OPT| Predicted energy change [hartree]                            -0.0000321935
 OPT| Scaling factor                                                0.0000000000
 OPT| Step size                                                     0.0084733731
 OPT| Trust radius                                                  0.4724315332
 OPT| Decrease in energy                                                     YES
 OPT| Used time [s]                                                        0.014
 OPT|
 OPT| Maximum step size                                             0.0084733731
 OPT| Convergence limit for maximum step size                       0.0030000000
 OPT| Maximum step size is converged                                          NO
 OPT|
 OPT| RMS step size                                                 0.0034762467
 OPT| Convergence limit for RMS step size                           0.0015000000
 OPT| RMS step size is converged                                              NO
 OPT|
 OPT| Maximum gradient                                              0.0010450194
 OPT| Convergence limit for maximum gradient                        0.0004500000
 OPT| Maximum gradient is converged                                           NO
 OPT|
 OPT| RMS gradient                                                  0.0004964336
 OPT| Convergence limit for RMS gradient                            0.0003000000
 OPT| RMS gradient is converged                                               NO
 OPT| **************************************************************************
 OPT| Estimated peak process memory after this step [MiB]                    167

 --------------------------
 OPTIMIZATION STEP:      6
 --------------------------

 Extrapolation method: ASPC

 Number of electrons:                                                         46
 Number of occupied orbitals:                                                 23
 Number of molecular orbitals:                                                44

 Number of orbital functions:                                                 44
 Number of independent orbital functions:                                     44


 SCF WAVEFUNCTION OPTIMIZATION

  Step     Update method      Time    Convergence         Total energy    Change
  ------------------------------------------------------------------------------
     1 TBLite/Diag 0.40E+00    0.0     0.00371184       -30.5268496476 -3.05E+01
     2 TBLite/Diag 0.40E+00    0.0     0.00035101       -30.5268503254 -6.78E-07
     3 TBLite/Diag 0.40E+00    0.0     0.00006220       -30.5268503418 -1.63E-08
     4 TBLite/Diag 0.40E+00    0.0     0.00002259       -30.5268503426 -8.40E-10
     5 TBLite/Diag 0.40E+00    0.0     0.00000846       -30.5268503432 -5.24E-10
     6 TBLite/Diag 0.40E+00    0.0     0.00000111       -30.5268503432 -1.17E-11
     7 TBLite/Diag 0.40E+00    0.0     0.00000075       -30.5268503432 -1.17E-12
     8 TBLite/Diag 0.40E+00    0.0     0.00000006       -30.5268503432 -1.42E-14
     9 TBLite/Diag 0.40E+00    0.0     4.1948E-10       -30.5268503432 -3.55E-15

  *** SCF run converged in     9 steps ***


  Core Hamiltonian energy:                                    -30.95194968149829
  Repulsive potential energy:                                   0.25382183097271
  Electrostatic energy:                                         0.17614024250892
  Self-consistent dispersion energy:                            0.00000000000000
  Non-self consistent dispersion energy:                       -0.00486273514881
  Correction for halogen bonding:                               0.00000000000000
  Electronic entropic energy:                                  -0.00000000000000
  Fermi energy:                                                -0.30044457547317

  Total energy:                                               -30.52685034316547
  Total energy (extrapolated to T->0):                        -30.52685034316547

 ENERGY| Total FORCE_EVAL ( QS ) energy [hartree]            -30.526850343165471

 OPT| **************************************************************************
 OPT| Step number                                                              6
 OPT| Optimization method                                                   BFGS
 OPT| Total energy [hartree]                                      -30.5268503432
 OPT| Effective energy change [hartree]                            -0.0000271429
 OPT| Predicted energy change [hartree]                            -0.0000187960
 OPT| Scaling factor                                                0.0000000000
 OPT| Step size                                                     0.0071535714
 OPT| Trust radius                                                  0.4724315332
 OPT| Decrease in energy                                                     YES
 OPT| Used time [s]                                                        0.013
 OPT|
 OPT| Maximum step size                                             0.0071535714
 OPT| Convergence limit for maximum step size                       0.0030000000
 OPT| Maximum step size is converged                                          NO
 OPT|
 OPT| RMS step size                                                 0.0033137753
 OPT| Convergence limit for RMS step size                           0.0015000000
 OPT| RMS step size is converged                                              NO
 OPT|
 OPT| Maximum gradient                                              0.0007701550
 OPT| Convergence limit for maximum gradient                        0.0004500000
 OPT| Maximum gradient is converged                                           NO
 OPT|
 OPT| RMS gradient                                                  0.0003110838
 OPT| Convergence limit for RMS gradient                            0.0003000000
 OPT| RMS gradient is converged                                               NO
 OPT| **************************************************************************
 OPT| Estimated peak process memory after this step [MiB]                    167

 --------------------------
 OPTIMIZATION STEP:      7
 --------------------------

 Extrapolation method: ASPC

 Number of electrons:                                                         46
 Number of occupied orbitals:                                                 23
 Number of molecular orbitals:                                                44

 Number of orbital functions:                                                 44
 Number of independent orbital functions:                                     44


 SCF WAVEFUNCTION OPTIMIZATION

  Step     Update method      Time    Convergence         Total energy    Change
  ------------------------------------------------------------------------------
     1 TBLite/Diag 0.40E+00    0.0     0.00806188       -30.5268749607 -3.05E+01
     2 TBLite/Diag 0.40E+00    0.0     0.00014311       -30.5268751010 -1.40E-07
     3 TBLite/Diag 0.40E+00    0.0     0.00003515       -30.5268751094 -8.36E-09
     4 TBLite/Diag 0.40E+00    0.0     0.00001813       -30.5268751105 -1.07E-09
     5 TBLite/Diag 0.40E+00    0.0     0.00000540       -30.5268751107 -1.95E-10
     6 TBLite/Diag 0.40E+00    0.0     0.00000168       -30.5268751107 -6.55E-12
     7 TBLite/Diag 0.40E+00    0.0     0.00000011       -30.5268751107 -9.59E-14
     8 TBLite/Diag 0.40E+00    0.0     0.00000009       -30.5268751107 -1.42E-14
     9 TBLite/Diag 0.40E+00    0.0     8.1628E-10       -30.5268751107 -3.55E-15

  *** SCF run converged in     9 steps ***


  Core Hamiltonian energy:                                    -30.95194613695400
  Repulsive potential energy:                                   0.25373525403688
  Electrostatic energy:                                         0.17620216197752
  Self-consistent dispersion energy:                            0.00000000000000
  Non-self consistent dispersion energy:                       -0.00486638973791
  Correction for halogen bonding:                               0.00000000000000
  Electronic entropic energy:                                  -0.00000000000000
  Fermi energy:                                                -0.30065127904775

  Total energy:                                               -30.52687511067752
  Total energy (extrapolated to T->0):                        -30.52687511067752

 ENERGY| Total FORCE_EVAL ( QS ) energy [hartree]            -30.526875110677516

 OPT| **************************************************************************
 OPT| Step number                                                              7
 OPT| Optimization method                                                   BFGS
 OPT| Total energy [hartree]                                      -30.5268751107
 OPT| Effective energy change [hartree]                            -0.0000247675
 OPT| Predicted energy change [hartree]                            -0.0000185427
 OPT| Scaling factor                                                0.0000000000
 OPT| Step size                                                     0.0145422344
 OPT| Trust radius                                                  0.4724315332
 OPT| Decrease in energy                                                     YES
 OPT| Used time [s]                                                        0.013
 OPT|
 OPT| Maximum step size                                             0.0145422344
 OPT| Convergence limit for maximum step size                       0.0030000000
 OPT| Maximum step size is converged                                          NO
 OPT|
 OPT| RMS step size                                                 0.0062784056
 OPT| Convergence limit for RMS step size                           0.0015000000
 OPT| RMS step size is converged                                              NO
 OPT|
 OPT| Maximum gradient                                              0.0010776843
 OPT| Convergence limit for maximum gradient                        0.0004500000
 OPT| Maximum gradient is converged                                           NO
 OPT|
 OPT| RMS gradient                                                  0.0004224690
 OPT| Convergence limit for RMS gradient                            0.0003000000
 OPT| RMS gradient is converged                                               NO
 OPT| **************************************************************************
 OPT| Estimated peak process memory after this step [MiB]                    167

 --------------------------
 OPTIMIZATION STEP:      8
 --------------------------

 Extrapolation method: ASPC

 Number of electrons:                                                         46
 Number of occupied orbitals:                                                 23
 Number of molecular orbitals:                                                44

 Number of orbital functions:                                                 44
 Number of independent orbital functions:                                     44


 SCF WAVEFUNCTION OPTIMIZATION

  Step     Update method      Time    Convergence         Total energy    Change
  ------------------------------------------------------------------------------
     1 TBLite/Diag 0.40E+00    0.0     0.00844375       -30.5268862118 -3.05E+01
     2 TBLite/Diag 0.40E+00    0.0     0.00030812       -30.5268866069 -3.95E-07
     3 TBLite/Diag 0.40E+00    0.0     0.00004654       -30.5268866165 -9.60E-09
     4 TBLite/Diag 0.40E+00    0.0     0.00001253       -30.5268866171 -5.47E-10
     5 TBLite/Diag 0.40E+00    0.0     0.00000370       -30.5268866172 -8.76E-11
     6 TBLite/Diag 0.40E+00    0.0     0.00000103       -30.5268866172 -5.68E-12
     7 TBLite/Diag 0.40E+00    0.0     0.00000002       -30.5268866172 -7.11E-15
     8 TBLite/Diag 0.40E+00    0.0     0.00000001       -30.5268866172  7.11E-15
     9 TBLite/Diag 0.40E+00    0.0     8.5128E-10       -30.5268866172 -1.42E-14

  *** SCF run converged in     9 steps ***


  Core Hamiltonian energy:                                    -30.95184184685766
  Repulsive potential energy:                                   0.25355428385593
  Electrostatic energy:                                         0.17626958918577
  Self-consistent dispersion energy:                            0.00000000000000
  Non-self consistent dispersion energy:                       -0.00486864336530
  Correction for halogen bonding:                               0.00000000000000
  Electronic entropic energy:                                  -0.00000000000000
  Fermi energy:                                                -0.30069293137688

  Total energy:                                               -30.52688661718127
  Total energy (extrapolated to T->0):                        -30.52688661718127

 ENERGY| Total FORCE_EVAL ( QS ) energy [hartree]            -30.526886617181269

 OPT| **************************************************************************
 OPT| Step number                                                              8
 OPT| Optimization method                                                   BFGS
 OPT| Total energy [hartree]                                      -30.5268866172
 OPT| Effective energy change [hartree]                            -0.0000115065
 OPT| Predicted energy change [hartree]                            -0.0000081567
 OPT| Scaling factor                                                0.0000000000
 OPT| Step size                                                     0.0119299314
 OPT| Trust radius                                                  0.4724315332
 OPT| Decrease in energy                                                     YES
 OPT| Used time [s]                                                        0.013
 OPT|
 OPT| Maximum step size                                             0.0119299314
 OPT| Convergence limit for maximum step size                       0.0030000000
 OPT| Maximum step size is converged                                          NO
 OPT|
 OPT| RMS step size                                                 0.0047553464
 OPT| Convergence limit for RMS step size                           0.0015000000
 OPT| RMS step size is converged                                              NO
 OPT|
 OPT| Maximum gradient                                              0.0009128289
 OPT| Convergence limit for maximum gradient                        0.0004500000
 OPT| Maximum gradient is converged                                           NO
 OPT|
 OPT| RMS gradient                                                  0.0003282179
 OPT| Convergence limit for RMS gradient                            0.0003000000
 OPT| RMS gradient is converged                                               NO
 OPT| **************************************************************************
 OPT| Estimated peak process memory after this step [MiB]                    167

 --------------------------
 OPTIMIZATION STEP:      9
 --------------------------

 Extrapolation method: ASPC

 Number of electrons:                                                         46
 Number of occupied orbitals:                                                 23
 Number of molecular orbitals:                                                44

 Number of orbital functions:                                                 44
 Number of independent orbital functions:                                     44


 SCF WAVEFUNCTION OPTIMIZATION

  Step     Update method      Time    Convergence         Total energy    Change
  ------------------------------------------------------------------------------
     1 TBLite/Diag 0.40E+00    0.0     0.00860997       -30.5268943960 -3.05E+01
     2 TBLite/Diag 0.40E+00    0.0     0.00044335       -30.5268952002 -8.04E-07
     3 TBLite/Diag 0.40E+00    0.0     0.00007269       -30.5268952288 -2.85E-08
     4 TBLite/Diag 0.40E+00    0.0     0.00001636       -30.5268952294 -6.33E-10
     5 TBLite/Diag 0.40E+00    0.0     0.00000719       -30.5268952297 -2.72E-10
     6 TBLite/Diag 0.40E+00    0.0     0.00000113       -30.5268952297 -7.44E-12
     7 TBLite/Diag 0.40E+00    0.0     0.00000046       -30.5268952297 -5.36E-13
     8 TBLite/Diag 0.40E+00    0.0     0.00000004       -30.5268952297 -2.84E-14
     9 TBLite/Diag 0.40E+00    0.0     2.4481E-09       -30.5268952297  2.84E-14
    10 TBLite/Diag 0.40E+00    0.0     4.2187E-10       -30.5268952297  1.07E-14

  *** SCF run converged in    10 steps ***


  Core Hamiltonian energy:                                    -30.95178066189910
  Repulsive potential energy:                                   0.25343665527155
  Electrostatic energy:                                         0.17631865240567
  Self-consistent dispersion energy:                            0.00000000000000
  Non-self consistent dispersion energy:                       -0.00486987546243
  Correction for halogen bonding:                               0.00000000000000
  Electronic entropic energy:                                  -0.00000000000000
  Fermi energy:                                                -0.30060859399019

  Total energy:                                               -30.52689522968432
  Total energy (extrapolated to T->0):                        -30.52689522968432

 ENERGY| Total FORCE_EVAL ( QS ) energy [hartree]            -30.526895229684321

 OPT| **************************************************************************
 OPT| Step number                                                              9
 OPT| Optimization method                                                   BFGS
 OPT| Total energy [hartree]                                      -30.5268952297
 OPT| Effective energy change [hartree]                            -0.0000086125
 OPT| Predicted energy change [hartree]                            -0.0000059694
 OPT| Scaling factor                                                0.0000000000
 OPT| Step size                                                     0.0103155155
 OPT| Trust radius                                                  0.4724315332
 OPT| Decrease in energy                                                     YES
 OPT| Used time [s]                                                        0.014
 OPT|
 OPT| Maximum step size                                             0.0103155155
 OPT| Convergence limit for maximum step size                       0.0030000000
 OPT| Maximum step size is converged                                          NO
 OPT|
 OPT| RMS step size                                                 0.0040319295
 OPT| Convergence limit for RMS step size                           0.0015000000
 OPT| RMS step size is converged                                              NO
 OPT|
 OPT| Maximum gradient                                              0.0004302852
 OPT| Convergence limit for maximum gradient                        0.0004500000
 OPT| Maximum gradient is converged                                          YES
 OPT|
 OPT| RMS gradient                                                  0.0001536479
 OPT| Convergence limit for RMS gradient                            0.0003000000
 OPT| RMS gradient is converged                                              YES
 OPT| **************************************************************************
 OPT| Estimated peak process memory after this step [MiB]                    167

 --------------------------
 OPTIMIZATION STEP:     10
 --------------------------

 Extrapolation method: ASPC

 Number of electrons:                                                         46
 Number of occupied orbitals:                                                 23
 Number of molecular orbitals:                                                44

 Number of orbital functions:                                                 44
 Number of independent orbital functions:                                     44


 SCF WAVEFUNCTION OPTIMIZATION

  Step     Update method      Time    Convergence         Total energy    Change
  ------------------------------------------------------------------------------
     1 TBLite/Diag 0.40E+00    0.0     0.00950051       -30.5269030656 -3.05E+01
     2 TBLite/Diag 0.40E+00    0.0     0.00044212       -30.5269038771 -8.11E-07
     3 TBLite/Diag 0.40E+00    0.0     0.00007676       -30.5269039093 -3.22E-08
     4 TBLite/Diag 0.40E+00    0.0     0.00001702       -30.5269039100 -6.66E-10
     5 TBLite/Diag 0.40E+00    0.0     0.00000789       -30.5269039103 -3.68E-10
     6 TBLite/Diag 0.40E+00    0.0     0.00000110       -30.5269039104 -9.81E-12
     7 TBLite/Diag 0.40E+00    0.0     0.00000056       -30.5269039104 -9.56E-13
     8 TBLite/Diag 0.40E+00    0.0     0.00000004       -30.5269039104  1.42E-14
     9 TBLite/Diag 0.40E+00    0.0     9.2385E-09       -30.5269039104 -2.13E-14
    10 TBLite/Diag 0.40E+00    0.0     9.3667E-10       -30.5269039104  1.42E-14

  *** SCF run converged in    10 steps ***


  Core Hamiltonian energy:                                    -30.95178507355782
  Repulsive potential energy:                                   0.25340828451089
  Electrostatic energy:                                         0.17634318421992
  Self-consistent dispersion energy:                            0.00000000000000
  Non-self consistent dispersion energy:                       -0.00487030552907
  Correction for halogen bonding:                               0.00000000000000
  Electronic entropic energy:                                  -0.00000000000000
  Fermi energy:                                                -0.30046449839710

  Total energy:                                               -30.52690391035608
  Total energy (extrapolated to T->0):                        -30.52690391035608

 ENERGY| Total FORCE_EVAL ( QS ) energy [hartree]            -30.526903910356076

 OPT| **************************************************************************
 OPT| Step number                                                             10
 OPT| Optimization method                                                   BFGS
 OPT| Total energy [hartree]                                      -30.5269039104
 OPT| Effective energy change [hartree]                            -0.0000086807
 OPT| Predicted energy change [hartree]                            -0.0000058108
 OPT| Scaling factor                                                0.0000000000
 OPT| Step size                                                     0.0100964442
 OPT| Trust radius                                                  0.4724315332
 OPT| Decrease in energy                                                     YES
 OPT| Used time [s]                                                        0.014
 OPT|
 OPT| Maximum step size                                             0.0100964442
 OPT| Convergence limit for maximum step size                       0.0030000000
 OPT| Maximum step size is converged                                          NO
 OPT|
 OPT| RMS step size                                                 0.0043229013
 OPT| Convergence limit for RMS step size                           0.0015000000
 OPT| RMS step size is converged                                              NO
 OPT|
 OPT| Maximum gradient                                              0.0007961812
 OPT| Convergence limit for maximum gradient                        0.0004500000
 OPT| Maximum gradient is converged                                           NO
 OPT|
 OPT| RMS gradient                                                  0.0002545298
 OPT| Convergence limit for RMS gradient                            0.0003000000
 OPT| RMS gradient is converged                                              YES
 OPT| **************************************************************************
 OPT| Estimated peak process memory after this step [MiB]                    167

 --------------------------
 OPTIMIZATION STEP:     11
 --------------------------

 Extrapolation method: ASPC

 Number of electrons:                                                         46
 Number of occupied orbitals:                                                 23
 Number of molecular orbitals:                                                44

 Number of orbital functions:                                                 44
 Number of independent orbital functions:                                     44


 SCF WAVEFUNCTION OPTIMIZATION

  Step     Update method      Time    Convergence         Total energy    Change
  ------------------------------------------------------------------------------
     1 TBLite/Diag 0.40E+00    0.0     0.01689373       -30.5269161926 -3.05E+01
     2 TBLite/Diag 0.40E+00    0.0     0.00054475       -30.5269173887 -1.20E-06
     3 TBLite/Diag 0.40E+00    0.0     0.00009466       -30.5269174350 -4.63E-08
     4 TBLite/Diag 0.40E+00    0.0     0.00002193       -30.5269174362 -1.16E-09
     5 TBLite/Diag 0.40E+00    0.0     0.00001016       -30.5269174368 -6.28E-10
     6 TBLite/Diag 0.40E+00    0.0     0.00000141       -30.5269174368 -1.67E-11
     7 TBLite/Diag 0.40E+00    0.0     0.00000089       -30.5269174368 -1.59E-12
     8 TBLite/Diag 0.40E+00    0.0     0.00000006       -30.5269174368 -1.78E-14
     9 TBLite/Diag 0.40E+00    0.0     0.00000003       -30.5269174368  1.07E-14
    10 TBLite/Diag 0.40E+00    0.0     2.9768E-09       -30.5269174368 -7.11E-15
    11 TBLite/Diag 0.40E+00    0.0     1.5557E-10       -30.5269174368 -3.55E-15

  *** SCF run converged in    11 steps ***


  Core Hamiltonian energy:                                    -30.95180705032790
  Repulsive potential energy:                                   0.25340061311968
  Electrostatic energy:                                         0.17635926147666
  Self-consistent dispersion energy:                            0.00000000000000
  Non-self consistent dispersion energy:                       -0.00487026108395
  Correction for halogen bonding:                               0.00000000000000
  Electronic entropic energy:                                  -0.00000000000000
  Fermi energy:                                                -0.30027739204816

  Total energy:                                               -30.52691743681552
  Total energy (extrapolated to T->0):                        -30.52691743681552

 ENERGY| Total FORCE_EVAL ( QS ) energy [hartree]            -30.526917436815516

 OPT| **************************************************************************
 OPT| Step number                                                             11
 OPT| Optimization method                                                   BFGS
 OPT| Total energy [hartree]                                      -30.5269174368
 OPT| Effective energy change [hartree]                            -0.0000135265
 OPT| Predicted energy change [hartree]                            -0.0000099767
 OPT| Scaling factor                                                0.0000000000
 OPT| Step size                                                     0.0172734224
 OPT| Trust radius                                                  0.4724315332
 OPT| Decrease in energy                                                     YES
 OPT| Used time [s]                                                        0.015
 OPT|
 OPT| Maximum step size                                             0.0172734224
 OPT| Convergence limit for maximum step size                       0.0030000000
 OPT| Maximum step size is converged                                          NO
 OPT|
 OPT| RMS step size                                                 0.0081858390
 OPT| Convergence limit for RMS step size                           0.0015000000
 OPT| RMS step size is converged                                              NO
 OPT|
 OPT| Maximum gradient                                              0.0019598568
 OPT| Convergence limit for maximum gradient                        0.0004500000
 OPT| Maximum gradient is converged                                           NO
 OPT|
 OPT| RMS gradient                                                  0.0006054726
 OPT| Convergence limit for RMS gradient                            0.0003000000
 OPT| RMS gradient is converged                                               NO
 OPT| **************************************************************************
 OPT| Estimated peak process memory after this step [MiB]                    167

 --------------------------
 OPTIMIZATION STEP:     12
 --------------------------

 Extrapolation method: ASPC

 Number of electrons:                                                         46
 Number of occupied orbitals:                                                 23
 Number of molecular orbitals:                                                44

 Number of orbital functions:                                                 44
 Number of independent orbital functions:                                     44


 SCF WAVEFUNCTION OPTIMIZATION

  Step     Update method      Time    Convergence         Total energy    Change
  ------------------------------------------------------------------------------
     1 TBLite/Diag 0.40E+00    0.0     0.02961351       -30.5269425042 -3.05E+01
     2 TBLite/Diag 0.40E+00    0.0     0.00054662       -30.5269437122 -1.21E-06
     3 TBLite/Diag 0.40E+00    0.0     0.00008756       -30.5269437485 -3.62E-08
     4 TBLite/Diag 0.40E+00    0.0     0.00002364       -30.5269437498 -1.31E-09
     5 TBLite/Diag 0.40E+00    0.0     0.00001107       -30.5269437505 -7.48E-10
     6 TBLite/Diag 0.40E+00    0.0     0.00000154       -30.5269437505 -1.53E-11
     7 TBLite/Diag 0.40E+00    0.0     0.00000089       -30.5269437505 -1.71E-12
     8 TBLite/Diag 0.40E+00    0.0     0.00000011       -30.5269437505 -5.33E-14
     9 TBLite/Diag 0.40E+00    0.0     0.00000005       -30.5269437505 -3.55E-15
    10 TBLite/Diag 0.40E+00    0.0     5.3540E-09       -30.5269437505  3.55E-15
    11 TBLite/Diag 0.40E+00    0.0     7.3995E-10       -30.5269437505 -1.07E-14

  *** SCF run converged in    11 steps ***


  Core Hamiltonian energy:                                    -30.95169015158760
  Repulsive potential energy:                                   0.25324575219912
  Electrostatic energy:                                         0.17637011685968
  Self-consistent dispersion energy:                            0.00000000000000
  Non-self consistent dispersion energy:                       -0.00486946800473
  Correction for halogen bonding:                               0.00000000000000
  Electronic entropic energy:                                  -0.00000000000000
  Fermi energy:                                                -0.30016496528986

  Total energy:                                               -30.52694375053352
  Total energy (extrapolated to T->0):                        -30.52694375053352

 ENERGY| Total FORCE_EVAL ( QS ) energy [hartree]            -30.526943750533523

 OPT| **************************************************************************
 OPT| Step number                                                             12
 OPT| Optimization method                                                   BFGS
 OPT| Total energy [hartree]                                      -30.5269437505
 OPT| Effective energy change [hartree]                            -0.0000263137
 OPT| Predicted energy change [hartree]                            -0.0000187465
 OPT| Scaling factor                                                0.0000000000
 OPT| Step size                                                     0.0320450094
 OPT| Trust radius                                                  0.4724315332
 OPT| Decrease in energy                                                     YES
 OPT| Used time [s]                                                        0.015
 OPT|
 OPT| Maximum step size                                             0.0320450094
 OPT| Convergence limit for maximum step size                       0.0030000000
 OPT| Maximum step size is converged                                          NO
 OPT|
 OPT| RMS step size                                                 0.0163069150
 OPT| Convergence limit for RMS step size                           0.0015000000
 OPT| RMS step size is converged                                              NO
 OPT|
 OPT| Maximum gradient                                              0.0031361795
 OPT| Convergence limit for maximum gradient                        0.0004500000
 OPT| Maximum gradient is converged                                           NO
 OPT|
 OPT| RMS gradient                                                  0.0010160529
 OPT| Convergence limit for RMS gradient                            0.0003000000
 OPT| RMS gradient is converged                                               NO
 OPT| **************************************************************************
 OPT| Estimated peak process memory after this step [MiB]                    167

 --------------------------
 OPTIMIZATION STEP:     13
 --------------------------

 Extrapolation method: ASPC

 Number of electrons:                                                         46
 Number of occupied orbitals:                                                 23
 Number of molecular orbitals:                                                44

 Number of orbital functions:                                                 44
 Number of independent orbital functions:                                     44


 SCF WAVEFUNCTION OPTIMIZATION

  Step     Update method      Time    Convergence         Total energy    Change
  ------------------------------------------------------------------------------
     1 TBLite/Diag 0.40E+00    0.0     0.04549440       -30.5269944639 -3.05E+01
     2 TBLite/Diag 0.40E+00    0.0     0.00018327       -30.5269946243 -1.60E-07
     3 TBLite/Diag 0.40E+00    0.0     0.00004281       -30.5269946313 -6.96E-09
     4 TBLite/Diag 0.40E+00    0.0     0.00001472       -30.5269946318 -5.13E-10
     5 TBLite/Diag 0.40E+00    0.0     0.00000633       -30.5269946320 -1.90E-10
     6 TBLite/Diag 0.40E+00    0.0     0.00000189       -30.5269946320 -1.21E-11
     7 TBLite/Diag 0.40E+00    0.0     0.00000027       -30.5269946320 -1.03E-13
     8 TBLite/Diag 0.40E+00    0.0     0.00000004       -30.5269946320 -3.91E-14
     9 TBLite/Diag 0.40E+00    0.0     9.7281E-09       -30.5269946320  1.78E-14
    10 TBLite/Diag 0.40E+00    0.0     2.5492E-09       -30.5269946320 -7.11E-15
    11 TBLite/Diag 0.40E+00    0.0     6.8603E-10       -30.5269946320  0.00E+00

  *** SCF run converged in    11 steps ***


  Core Hamiltonian energy:                                    -30.95102726715775
  Repulsive potential energy:                                   0.25250647750052
  Electrostatic energy:                                         0.17639365040530
  Self-consistent dispersion energy:                            0.00000000000000
  Non-self consistent dispersion energy:                       -0.00486749272874
  Correction for halogen bonding:                               0.00000000000000
  Electronic entropic energy:                                  -0.00000000000000
  Fermi energy:                                                -0.30049449011494

  Total energy:                                               -30.52699463198067
  Total energy (extrapolated to T->0):                        -30.52699463198067

 ENERGY| Total FORCE_EVAL ( QS ) energy [hartree]            -30.526994631980671

 OPT| **************************************************************************
 OPT| Step number                                                             13
 OPT| Optimization method                                                   BFGS
 OPT| Total energy [hartree]                                      -30.5269946320
 OPT| Effective energy change [hartree]                            -0.0000508814
 OPT| Predicted energy change [hartree]                            -0.0000330179
 OPT| Scaling factor                                                0.0000000000
 OPT| Step size                                                     0.0559795369
 OPT| Trust radius                                                  0.4724315332
 OPT| Decrease in energy                                                     YES
 OPT| Used time [s]                                                        0.015
 OPT|
 OPT| Maximum step size                                             0.0559795369
 OPT| Convergence limit for maximum step size                       0.0030000000
 OPT| Maximum step size is converged                                          NO
 OPT|
 OPT| RMS step size                                                 0.0298944040
 OPT| Convergence limit for RMS step size                           0.0015000000
 OPT| RMS step size is converged                                              NO
 OPT|
 OPT| Maximum gradient                                              0.0038413656
 OPT| Convergence limit for maximum gradient                        0.0004500000
 OPT| Maximum gradient is converged                                           NO
 OPT|
 OPT| RMS gradient                                                  0.0012752265
 OPT| Convergence limit for RMS gradient                            0.0003000000
 OPT| RMS gradient is converged                                               NO
 OPT| **************************************************************************
 OPT| Estimated peak process memory after this step [MiB]                    167

 --------------------------
 OPTIMIZATION STEP:     14
 --------------------------

 Extrapolation method: ASPC

 Number of electrons:                                                         46
 Number of occupied orbitals:                                                 23
 Number of molecular orbitals:                                                44

 Number of orbital functions:                                                 44
 Number of independent orbital functions:                                     44


 SCF WAVEFUNCTION OPTIMIZATION

  Step     Update method      Time    Convergence         Total energy    Change
  ------------------------------------------------------------------------------
     1 TBLite/Diag 0.40E+00    0.0     0.05832917       -30.5270342433 -3.05E+01
     2 TBLite/Diag 0.40E+00    0.0     0.00133772       -30.5270403215 -6.08E-06
     3 TBLite/Diag 0.40E+00    0.0     0.00027991       -30.5270407494 -4.28E-07
     4 TBLite/Diag 0.40E+00    0.0     0.00005129       -30.5270407575 -8.11E-09
     5 TBLite/Diag 0.40E+00    0.0     0.00001726       -30.5270407594 -1.84E-09
     6 TBLite/Diag 0.40E+00    0.0     0.00000350       -30.5270407595 -1.27E-10
     7 TBLite/Diag 0.40E+00    0.0     0.00000246       -30.5270407595 -1.29E-11
     8 TBLite/Diag 0.40E+00    0.0     0.00000013       -30.5270407595 -4.62E-14
     9 TBLite/Diag 0.40E+00    0.0     0.00000003       -30.5270407595 -7.11E-15
    10 TBLite/Diag 0.40E+00    0.0     4.3134E-09       -30.5270407595  0.00E+00
    11 TBLite/Diag 0.40E+00    0.0     4.0989E-10       -30.5270407595  7.11E-15

  *** SCF run converged in    11 steps ***


  Core Hamiltonian energy:                                    -30.94966030177730
  Repulsive potential energy:                                   0.25107710629411
  Electrostatic energy:                                         0.17640589718112
  Self-consistent dispersion energy:                            0.00000000000000
  Non-self consistent dispersion energy:                       -0.00486346121587
  Correction for halogen bonding:                               0.00000000000000
  Electronic entropic energy:                                  -0.00000000000000
  Fermi energy:                                                -0.30151394170579

  Total energy:                                               -30.52704075951793
  Total energy (extrapolated to T->0):                        -30.52704075951793

 ENERGY| Total FORCE_EVAL ( QS ) energy [hartree]            -30.527040759517931

 OPT| **************************************************************************
 OPT| Step number                                                             14
 OPT| Optimization method                                                   BFGS
 OPT| Total energy [hartree]                                      -30.5270407595
 OPT| Effective energy change [hartree]                            -0.0000461275
 OPT| Predicted energy change [hartree]                            -0.0000544102
 OPT| Scaling factor                                                0.0000000000
 OPT| Step size                                                     0.0841237753
 OPT| Trust radius                                                  0.4724315332
 OPT| Decrease in energy                                                     YES
 OPT| Used time [s]                                                        0.015
 OPT|
 OPT| Maximum step size                                             0.0841237753
 OPT| Convergence limit for maximum step size                       0.0030000000
 OPT| Maximum step size is converged                                          NO
 OPT|
 OPT| RMS step size                                                 0.0452733588
 OPT| Convergence limit for RMS step size                           0.0015000000
 OPT| RMS step size is converged                                              NO
 OPT|
 OPT| Maximum gradient                                              0.0040468383
 OPT| Convergence limit for maximum gradient                        0.0004500000
 OPT| Maximum gradient is converged                                           NO
 OPT|
 OPT| RMS gradient                                                  0.0012754564
 OPT| Convergence limit for RMS gradient                            0.0003000000
 OPT| RMS gradient is converged                                               NO
 OPT| **************************************************************************
 OPT| Estimated peak process memory after this step [MiB]                    167

 --------------------------
 OPTIMIZATION STEP:     15
 --------------------------

 Extrapolation method: ASPC

 Number of electrons:                                                         46
 Number of occupied orbitals:                                                 23
 Number of molecular orbitals:                                                44

 Number of orbital functions:                                                 44
 Number of independent orbital functions:                                     44


 SCF WAVEFUNCTION OPTIMIZATION

  Step     Update method      Time    Convergence         Total energy    Change
  ------------------------------------------------------------------------------
     1 TBLite/Diag 0.40E+00    0.0     0.02212090       -30.5270665604 -3.05E+01
     2 TBLite/Diag 0.40E+00    0.0     0.00077545       -30.5270703474 -3.79E-06
     3 TBLite/Diag 0.40E+00    0.0     0.00005621       -30.5270703605 -1.31E-08
     4 TBLite/Diag 0.40E+00    0.0     0.00004081       -30.5270703594  1.07E-09
     5 TBLite/Diag 0.40E+00    0.0     0.00002914       -30.5270703628 -3.33E-09
     6 TBLite/Diag 0.40E+00    0.0     0.00000678       -30.5270703629 -9.63E-11
     7 TBLite/Diag 0.40E+00    0.0     0.00000041       -30.5270703629 -5.68E-13
     8 TBLite/Diag 0.40E+00    0.0     0.00000014       -30.5270703629 -4.97E-14
     9 TBLite/Diag 0.40E+00    0.0     0.00000003       -30.5270703629 -2.49E-14
    10 TBLite/Diag 0.40E+00    0.0     4.6961E-09       -30.5270703629  1.42E-14
    11 TBLite/Diag 0.40E+00    0.0     1.2066E-09       -30.5270703629 -2.84E-14
    12 TBLite/Diag 0.40E+00    0.0     1.7675E-10       -30.5270703629  2.49E-14

  *** SCF run converged in    12 steps ***


  Core Hamiltonian energy:                                    -30.95230104295294
  Repulsive potential energy:                                   0.25390650092613
  Electrostatic energy:                                         0.17618780450330
  Self-consistent dispersion energy:                            0.00000000000000
  Non-self consistent dispersion energy:                       -0.00486362535016
  Correction for halogen bonding:                               0.00000000000000
  Electronic entropic energy:                                  -0.00000000000000
  Fermi energy:                                                -0.30034118244587

  Total energy:                                               -30.52707036287367
  Total energy (extrapolated to T->0):                        -30.52707036287367

 ENERGY| Total FORCE_EVAL ( QS ) energy [hartree]            -30.527070362873669

 OPT| **************************************************************************
 OPT| Step number                                                             15
 OPT| Optimization method                                                   BFGS
 OPT| Total energy [hartree]                                      -30.5270703629
 OPT| Effective energy change [hartree]                            -0.0000296034
[...]

 Number of orbital functions:                                                 44
 Number of independent orbital functions:                                     44


 SCF WAVEFUNCTION OPTIMIZATION

  Step     Update method      Time    Convergence         Total energy    Change
  ------------------------------------------------------------------------------
     1 TBLite/Diag 0.40E+00    0.0     0.00122365       -30.5270833424 -3.05E+01
     2 TBLite/Diag 0.40E+00    0.0     0.00002129       -30.5270833450 -2.61E-09
     3 TBLite/Diag 0.40E+00    0.0     0.00000547       -30.5270833452 -1.59E-10
     4 TBLite/Diag 0.40E+00    0.0     0.00000183       -30.5270833452 -1.55E-11
     5 TBLite/Diag 0.40E+00    0.0     0.00000072       -30.5270833452 -2.00E-12
     6 TBLite/Diag 0.40E+00    0.0     0.00000018       -30.5270833452 -1.42E-13
     7 TBLite/Diag 0.40E+00    0.0     0.00000007       -30.5270833452 -2.13E-14
     8 TBLite/Diag 0.40E+00    0.0     0.00000001       -30.5270833452  1.07E-14
     9 TBLite/Diag 0.40E+00    0.0     2.6680E-09       -30.5270833452 -2.49E-14
    10 TBLite/Diag 0.40E+00    0.0     4.5237E-10       -30.5270833452  2.13E-14

  *** SCF run converged in    10 steps ***


  Core Hamiltonian energy:                                    -30.95212419493901
  Repulsive potential energy:                                   0.25360622156909
  Electrostatic energy:                                         0.17630138418569
  Self-consistent dispersion energy:                            0.00000000000000
  Non-self consistent dispersion energy:                       -0.00486675601028
  Correction for halogen bonding:                               0.00000000000000
  Electronic entropic energy:                                  -0.00000000000000
  Fermi energy:                                                -0.30058734673928

  Total energy:                                               -30.52708334519451
  Total energy (extrapolated to T->0):                        -30.52708334519451

 ENERGY| Total FORCE_EVAL ( QS ) energy [hartree]            -30.527083345194512

 OPT| **************************************************************************
 OPT| Step number                                                             20
 OPT| Optimization method                                                   BFGS
 OPT| Total energy [hartree]                                      -30.5270833452
 OPT| Effective energy change [hartree]                            -0.0000001175
 OPT| Predicted energy change [hartree]                            -0.0000000975
 OPT| Scaling factor                                                0.0000000000
 OPT| Step size                                                     0.0017683938
 OPT| Trust radius                                                  0.4724315332
 OPT| Decrease in energy                                                     YES
 OPT| Used time [s]                                                        0.014
 OPT|
 OPT| Maximum step size                                             0.0017683938
 OPT| Convergence limit for maximum step size                       0.0030000000
 OPT| Maximum step size is converged                                         YES
 OPT|
 OPT| RMS step size                                                 0.0009214571
 OPT| Convergence limit for RMS step size                           0.0015000000
 OPT| RMS step size is converged                                             YES
 OPT|
 OPT| Maximum gradient                                              0.0000622937
 OPT| Convergence limit for maximum gradient                        0.0004500000
 OPT| Maximum gradient is converged                                          YES
 OPT|
 OPT| RMS gradient                                                  0.0000203579
 OPT| Convergence limit for RMS gradient                            0.0003000000
 OPT| RMS gradient is converged                                              YES
 OPT| **************************************************************************
 OPT| Estimated peak process memory after this step [MiB]                    167

 *******************************************************************************
 ***                    GEOMETRY OPTIMIZATION COMPLETED                      ***
 *******************************************************************************

 write_final_structure: Optimization converged, writing XYZ file gladly:
  succinic_acid_GFN1_mol_geoopt-FINAL-1_20.xyz

 write_final_structure: Optimization converged, writing CIF file gladly:
  succinic_acid_GFN1_mol_geoopt-FINAL-1_20.cif

 write_final_structure: Done!

                    Reevaluating energy at the minimum

 Extrapolation method: ASPC

 Number of electrons:                                                         46
 Number of occupied orbitals:                                                 23
 Number of molecular orbitals:                                                44

 Number of orbital functions:                                                 44
 Number of independent orbital functions:                                     44


 SCF WAVEFUNCTION OPTIMIZATION

  Step     Update method      Time    Convergence         Total energy    Change
  ------------------------------------------------------------------------------
     1 TBLite/Diag 0.40E+00    0.0     1.0494E-10       -30.5270833452 -3.05E+01

  *** SCF run converged in     1 steps ***


  Core Hamiltonian energy:                                    -30.95212419492094
  Repulsive potential energy:                                   0.25360622156909
  Electrostatic energy:                                         0.17630138416761
  Self-consistent dispersion energy:                            0.00000000000000
  Non-self consistent dispersion energy:                       -0.00486675601028
  Correction for halogen bonding:                               0.00000000000000
  Electronic entropic energy:                                  -0.00000000000000
  Fermi energy:                                                -0.30058734673180

  Total energy:                                               -30.52708334519452
  Total energy (extrapolated to T->0):                        -30.52708334519452

 ENERGY| Total FORCE_EVAL ( QS ) energy [hartree]            -30.527083345194523

 -------------------------------------------------------------------------------
 -                                                                             -
 -                                DBCSR STATISTICS                             -
 -                                                                             -
 -------------------------------------------------------------------------------
 COUNTER                                    TOTAL       BLAS       SMM       ACC
 flops     2 x    12 x     2               328320       0.0%    100.0%      0.0%     
 flops     2 x    32 x     2               875520       0.0%    100.0%      0.0%     
 flops     2 x    12 x     4               875520       0.0%    100.0%      0.0%     
 flops     4 x    12 x     2               875520       0.0%    100.0%      0.0%     
 flops     2 x     2 x    44              1966272       0.0%    100.0%      0.0%     
 flops     2 x    32 x     4              2334720       0.0%    100.0%      0.0%     
 flops     4 x    32 x     2              2334720       0.0%    100.0%      0.0%     
 flops     4 x    12 x     4              2334720       0.0%    100.0%      0.0%     
 flops     2 x     4 x    44              4494336       0.0%    100.0%      0.0%     
 flops     4 x     2 x    44              4494336       0.0%    100.0%      0.0%     
 flops     4 x    32 x     4              6225920       0.0%    100.0%      0.0%     
 flops     4 x     4 x    44             13483008       0.0%    100.0%      0.0%     
 flops inhomo. stacks                           0       0.0%      0.0%      0.0%
 flops total                        40.622912E+06       0.0%    100.0%      0.0%
 flops max/rank                     40.622912E+06       0.0%    100.0%      0.0%
 matmuls inhomo. stacks                         0       0.0%      0.0%      0.0%
 matmuls total                              65170       0.0%    100.0%      0.0%
 number of processed stacks                  1824       0.0%    100.0%      0.0%
 average stack size                                     0.0      35.7       0.0
 marketing flops                    39.873856E+06
 -------------------------------------------------------------------------------
 # multiplications                            361
 max memory usage/rank              13.671551E+09
 # max total images/rank                        1
 # max 3D layers                                1
 # MPI messages exchanged                       0
 -------------------------------------------------------------------------------
 -                                                                             -
 -                      DBCSR MESSAGE PASSING PERFORMANCE                      -
 -                                                                             -
 -------------------------------------------------------------------------------
 ROUTINE             CALLS      AVE VOLUME [Bytes]
 MP_Bcast               13                     12.
 MP_Allreduce         1658                      8.
 MP_Alltoall         11627                  10358.
 MP_ISend             1444                   1002.
 MP_IRecv             1444                   1002.
 -------------------------------------------------------------------------------

 -------------------------------------------------------------------------------
 -                                                                             -
 -                          OFFLOAD MEMPOOL STATISTICS                         -
 -                                                                             -
 -------------------------------------------------------------------------------
 Memory consumption                Number of allocations  Used [MiB]  Size [MiB]
 Device                                                1           0           0
 Host                                                  1           0           0
 -------------------------------------------------------------------------------

 MEMORY| Estimated peak process memory [MiB]                                 167

 -------------------------------------------------------------------------------
 -                                                                             -
 -                         MESSAGE PASSING PERFORMANCE                         -
 -                                                                             -
 -------------------------------------------------------------------------------

 ROUTINE             CALLS      AVE VOLUME [Bytes]
 MP_Group                1
 MP_Bcast              510                    185.
 MP_Allreduce         3903                    105.
 MP_Sync               267
 MP_comm_split         266
 -------------------------------------------------------------------------------


 -------------------------------------------------------------------------------
 -                                                                             -
 -                           R E F E R E N C E S                               -
 -                                                                             -
 -------------------------------------------------------------------------------
 
 CP2K version 2026.1 (Development Version), the CP2K developers group (2026).
 CP2K is freely available from https://www.cp2k.org/ .
 
 M. Iannuzzi, J. Wilhelm, F. Stein, A. Bussy, H. Elgabarty, D. Golze, A. Hehn, 
 M. Graml, S. Marek, B. Sertcan Gökmen, C. Schran, H. Forbert, R. Z. 
 Khaliullin, A. Kozhevnikov, M. Taillefumier, R. Meli, V. V. Rybkin, M. Brehm, 
 R. Schade, O. Schütt, J. V. Pototschnig, H. Mirhosseini, A. Knüpfer, D. Marx, 
 M. Krack, J. Hutter, T. D. Kühne.
 J. Phys. Chem. B 130, 1237-1310 (2026).
 The CP2K Program Package Made Simple.
 https://doi.org/10.1021/acs.jpcb.5c05851

 A. Katbashev, M. Stahn, T. Rose, V. Alizadeh, M. Friede, C. Plett, P. 
 Steinbach, S. Ehlert.
 J. Phys. Chem. A 129, 2667-2682 (2025).
 Overview on Building Blocks and Applications of Efficient and Robust Extended 
 Tight Binding.
 https://doi.org/10.1021/acs.jpca.4c08263

 T. D. Kühne, M. Iannuzzi, M. Del Ben, V. V. Rybkin, P. Seewald, F. Stein, T. 
 Laino, R. Z. Khaliullin, O. Schütt, F. Schiffmann, D. Golze, J. Wilhelm, S. 
 Chulkov, M. H. Bani-Hashemian, V. Weber, U. Borstnik, M. Taillefumier, A. S. 
 Jakobovits, A. Lazzaro, H. Pabst, T. Müller, R. Schade, M. Guidon, S. 
 Andermatt, N. Holmberg, G. K. Schenter, A. Hehn, A. Bussy, F. Belleflamme, G. 
 Tabacchi, A. Glöß, M. Lass, I. Bethune, C. J. Mundy, C. Plessl, M. Watkins, 
 J. VandeVondele, M. Krack, J. Hutter.
 J. Chem. Phys. 152, 194103 (2020).
 CP2K: An electronic structure and molecular dynamics software package - 
 Quickstep: Efficient and accurate electronic structure calculations.
 https://doi.org/10.1063/5.0007045

 P. Pracht, E. Caldeweyher, S. Ehlert, S. Grimme.
 ChemRxiv, (2019).
 A Robust Non-Self-Consistent Tight-Binding Quantum Chemistry Method for large 
 Molecules.
 https://doi.org/10.26434/chemrxiv.8326202.v1

 S. Grimme, C. Bannwarth, P. Shushkov.
 J. Chem. Theory Comput. 13, 1989 (2017).
 A Robust and Accurate Tight-Binding Quantum Chemical Method for Structures, 
 Vibrational Frequencies, and Noncovalent Interactions of Large Molecular 
 Systems Parametrized for All spd-Block Elements (Z = 1-86).
 https://doi.org/10.1021/acs.jctc.7b00118

 O. Schuett, P. Messmer, J. Hutter, J. VandeVondele.
 Electronic Structure Calculations on Graphics Processing Units, 173-190 (2016).
 GPU-Accelerated Sparse Matrix-Matrix Multiplication for Linear Scaling Density 
 Functional Theory.
 https://doi.org/10.1002/9781118670712.ch8

 A. Heinecke, G. Henry, M. Hutchinson, H. Pabst.
 Proceedings of Intl. Supercomputing Conference, 981-991 (2016).
 LIBXSMM: Accelerating Small Matrix Multiplications by Runtime Code Generation.
 https://doi.org/10.1109/SC.2016.83

 U. Borstnik, J. VandeVondele, V. Weber, J. Hutter.
 Parallel Comput. 40, 47-58 (2014).
 Sparse matrix multiplication: The distributed block-compressed sparse row 
 library.
 https://doi.org/10.1016/j.parco.2014.03.012

 T. D. Kühne, M. Krack, F. R. Mohamed, M. Parrinello.
 Phys. Rev. Lett. 98, 066401 (2007).
 Efficient and accurate Car-Parrinello-like approach to Born-Oppenheimer 
 molecular dynamics.
 https://doi.org/10.1103/PhysRevLett.98.066401

 M. Frigo, S. G. Johnson.
 Proc. IEEE 93, 216-231 (2005).
 The design and implementation of FFTW3.
 https://doi.org/10.1109/JPROC.2004.840301

 J. Kolafa.
 J. Comput. Chem. 25, 335-342 (2004).
 Time-reversible always stable predictor-corrector method for molecular dynamics 
 of polarizable molecules.
 https://doi.org/10.1002/jcc.10385

 N. D. Mermin.
 Phys. Rev. 137, A1441-A1443 (1965).
 Thermal Properties of the Inhomogeneous Electron Gas.
 https://doi.org/10.1103/PhysRev.137.A1441


 -------------------------------------------------------------------------------
 -                                                                             -
 -                                T I M I N G                                  -
 -                                                                             -
 -------------------------------------------------------------------------------
 SUBROUTINE                       CALLS  ASD         SELF TIME        TOTAL TIME
                                MAXIMUM       AVERAGE  MAXIMUM  AVERAGE  MAXIMUM
 CP2K                                 1  1.0    0.002    0.002    0.328    0.328
 cp_geo_opt                           1  2.0    0.000    0.000    0.319    0.319
 geoopt_bfgs                          1  3.0    0.002    0.002    0.319    0.319
 cp_eval_at                          22  4.0    0.001    0.001    0.305    0.305
 qs_forces                           21  5.0    0.001    0.001    0.301    0.301
 qs_energies                         22  6.0    0.000    0.000    0.251    0.251
 scf_env_do_scf                      22  7.0    0.000    0.000    0.187    0.187
 scf_env_do_scf_inner_loop          224  8.0    0.005    0.005    0.186    0.186
 qs_scf_new_mos                     224  9.0    0.001    0.001    0.160    0.160
 cp_dbcsr_plus_fm_fm_t              266 10.8    0.001    0.001    0.078    0.078
 calculate_dm_sparse                245 10.0    0.000    0.000    0.073    0.073
 dbcsr_multiply_generic             361 12.0    0.004    0.004    0.069    0.069
 copy_dbcsr_to_fm                   543 10.5    0.001    0.001    0.045    0.045
 dbcsr_complete_redistribute       1170 12.2    0.025    0.025    0.043    0.043
 rebuild_ks_matrix                  245  9.7    0.000    0.000    0.043    0.043
 build_tblite_ks_matrix             245 10.7    0.042    0.042    0.043    0.043
 eigensolver                        224 10.0    0.002    0.002    0.041    0.041
 cp_fm_syevd                        266 10.6    0.000    0.000    0.039    0.039
 init_scf_run                        22  7.0    0.000    0.000    0.038    0.038
 make_m2s                           722 13.0    0.002    0.002    0.038    0.038
 scf_env_initial_rho_setup           22  8.0    0.000    0.000    0.035    0.035
 wfi_extrapolate                     22  9.0    0.000    0.000    0.035    0.035
 build_tblite_matrices               43  7.0    0.033    0.033    0.034    0.034
 qs_ks_update_qs_env_forces          21  6.0    0.000    0.000    0.034    0.034
 cp_fm_syevd_base                   266 11.6    0.030    0.030    0.030    0.030
 qs_diis_b_step                     202 10.0    0.001    0.001    0.027    0.027
 copy_fm_to_dbcsr                   627 11.8    0.001    0.001    0.023    0.023
 cp_dbcsr_sm_fm_multiply             95 10.4    0.000    0.000    0.022    0.022
 make_images                        722 14.0    0.004    0.004    0.018    0.018
 qs_energies_init_hamiltonians       22  7.0    0.000    0.000    0.017    0.017
 multiply_cannon                    361 13.0    0.006    0.006    0.015    0.015
 dbcsr_finalize                    4249 13.3    0.003    0.003    0.014    0.014
 cp_dbcsr_sm_fm_multiply_core        95 11.4    0.000    0.000    0.012    0.012
 dbcsr_desymmetrize_deep            543 11.5    0.006    0.006    0.012    0.012
 qs_ks_update_qs_env                224  9.0    0.000    0.000    0.012    0.012
 dbcsr_crop_matrix                  532 13.8    0.001    0.001    0.010    0.010
 dbcsr_create_new                  8266 13.4    0.007    0.007    0.010    0.010
 reorthogonalize_vectors             21 10.0    0.000    0.000    0.010    0.010
 make_basis_lowdin                   21 11.0    0.000    0.000    0.010    0.010
 parallel_gemm_fm_gemm              615 10.6    0.000    0.000    0.008    0.008
 cp_fm_gemm                         615 11.6    0.008    0.008    0.008    0.008
 dbcsr_copy_submatrix               532 14.8    0.003    0.003    0.008    0.008
 dbcsr_merge_all                   1968 14.9    0.004    0.004    0.007    0.007
 -------------------------------------------------------------------------------

 The number of warnings for this run is : 0
 
 -------------------------------------------------------------------------------
  **** **** ******  **  PROGRAM ENDED AT                 2026-05-23 22:46:19.973
 ***** ** ***  *** **   PROGRAM RAN ON                                spark-c86c
 **    ****   ******    PROGRAM RAN BY                                  kuehne88
 ***** **    ** ** **   PROGRAM PROCESS ID                               2222451
  **** **  *******  **  PROGRAM STOPPED IN /home/kuehne88/periodic-gfn2-benchmar
                                           ks/X23b/runs/molecule_geoopt/GFN1/suc
                                           cinic_acid_GFN1_mol_geoopt
