 DBCSR| CPU Multiplication driver                                           XSMM (U)
 DBCSR| Multrec recursion limit                                              512 (U)
 DBCSR| Multiplication stack size                                           1000 (D)
 DBCSR| Maximum elements for images                                    UNLIMITED (U)
 DBCSR| Multiplicative factor virtual images                                   1 (U)
 DBCSR| Use multiplication densification                                       T (D)
 DBCSR| Multiplication size stacks                                             3 (U)
 DBCSR| Use memory pool for CPU allocation                                     F (U)
 DBCSR| Number of 3D layers                                               SINGLE (U)
 DBCSR| Use MPI memory allocation                                              F (U)
 DBCSR| Use RMA algorithm                                                      F (U)
 DBCSR| Use Communication thread                                               T (U)
 DBCSR| Communication thread load                                             87 (D)
 DBCSR| MPI: My process id                                                     0
 DBCSR| MPI: Number of processes                                               1
 DBCSR| OMP: Current number of threads                                         1
 DBCSR| OMP: Max number of threads                                             1
 DBCSR| Split modifier for TAS multiplication algorithm                  1.0E+00 (U)


  **** **** ******  **  PROGRAM STARTED AT               2026-05-23 22:46:43.041
 ***** ** ***  *** **   PROGRAM STARTED ON                            spark-c86c
 **    ****   ******    PROGRAM STARTED BY                              kuehne88
 ***** **    ** ** **   PROGRAM PROCESS ID                               2261476
  **** **  *******  **  PROGRAM STARTED IN /home/kuehne88/periodic-gfn2-benchmar
                                           ks/X23b/runs/crystal_sp/k333/GFN2/imi
                                           dazole_GFN2_k333_sp

 CP2K| version string:                 CP2K version 2026.1 (Development Version)
 CP2K| source code revision number:                                   0622d442e4
 CP2K| cp2kflags: omp fftw3 libxc parallel scalapack mpi_f08 xsmm spglib libdftd
 CP2K|            4 dftd4_v3 mctc-lib tblite
 CP2K| is freely available from                            https://www.cp2k.org/
 CP2K| Program compiled at                                   2026-05-23 22:05:08
 CP2K| Program compiled on                                            spark-c86c
 CP2K| Program compiled for                                              aarch64
 CP2K| Data directory path    /home/kuehne88/cp2k-master-tblite-20260523/install
 CP2K| Input file name                                imidazole_GFN2_k333_sp.inp

 GLOBAL| Force Environment number                                              1
 GLOBAL| Basis set file name                                           BASIS_SET
 GLOBAL| Potential file name                                           POTENTIAL
 GLOBAL| MM Potential file name                                     MM_POTENTIAL
 GLOBAL| Coordinate file name                                      __STD_INPUT__
 GLOBAL| Method name                                                        CP2K
 GLOBAL| Project name                                 imidazole_GFN2_k333_energy
 GLOBAL| Run type                                                         ENERGY
 GLOBAL| FFT library                                                       FFTW3
 GLOBAL| Diagonalization library                                       ScaLAPACK
 GLOBAL| Cholesky decomposition library                                ScaLAPACK
 GLOBAL| DGEMM library                                                      BLAS
 GLOBAL| Direct generalized diagonalization requested                          F
 GLOBAL| Orthonormality check for eigenvectors                          DISABLED
 GLOBAL| Matrix multiplication library                                 ScaLAPACK
 GLOBAL| All-to-all communication in single precision                          F
 GLOBAL| FFTs using library dependent lengths                                  F
 GLOBAL| Grid backend                                                       AUTO
 GLOBAL| Global print level                                                  LOW
 GLOBAL| MPI I/O enabled                                                       T
 GLOBAL| Total number of message passing processes                             1
 GLOBAL| Number of distributed systems (nodes)                                 1
 GLOBAL| Number of threads for this process                                    1
 GLOBAL| This output is from process                                           0
 GLOBAL| OpenMP stack size per thread (OMP_STACKSIZE)                    default
 GLOBAL| CPU model name                                                  UNKNOWN
 GLOBAL| CPUID                                                              2200
 GLOBAL| Compiled for CPUID                                                 2000

 *** HINT in environment.F:970 :: The compiler target flags (arm_arch64)   ***
 *** used to build this binary cannot exploit all extensions of this CPU   ***
 *** model (arm_sve256). Consider compiler target flags as part of FCFLAGS ***
 *** and CFLAGS (ARCH file).                                               ***


 MEMORY| system memory details [Kb]
 MEMORY|                        rank 0           min           max       average
 MEMORY| MemTotal            125508532     125508532     125508532     125508532
 MEMORY| MemFree             101773816     101773816     101773816     101773816
 MEMORY| Buffers                867364        867364        867364        867364
 MEMORY| Cached               13847768      13847768      13847768      13847768
 MEMORY| Slab                  1586260       1586260       1586260       1586260
 MEMORY| SReclaimable           908164        908164        908164        908164
 MEMORY| MemLikelyFree       117397112     117397112     117397112     117397112


 GENERATE|  Preliminary Number of Bonds generated:                             0
 GENERATE|  Achieved consistency in connectivity generation.


                  #####   #####        #     #   #     #       #          
                 #     # #     #      #    ##### #     #   # #####  ####  
                 #     # #           #       #   ###   #       #   #    # 
                 #     #  #####     #        #   #  #  #   #   #   ###### 
                 #   # #       #   #         #   #   # #   #   #   #      
                 #    #  #     #  #          #   #  #  # # #   #    #   # 
                  #### #  #####  #           #   ###   ##  #   #     ###  

                                   GFN2-xTB  
                                 Version 0.0                       
                            Johann V. Pototschnig                  



 TOTAL NUMBERS AND MAXIMUM NUMBERS

  Total number of            - Atomic kinds:                                   3
                             - Atoms:                                         36
                             - Shell sets:                                    56
                             - Shells:                                        56
                             - Primitive Cartesian functions:                208
                             - Cartesian basis functions:                     96
                             - Spherical basis functions:                     96

  Maximum angular momentum of the orbital basis functions:                     1


 SCF PARAMETERS         Density guess:                                     MOPAC
                        --------------------------------------------------------
                        max_scf:                                             300
                        max_scf_history:                                       0
                        max_diis:                                              4
                        --------------------------------------------------------
                        eps_scf:                                        1.00E-09
                        eps_scf_history:                                0.00E+00
                        eps_diis:                                       1.00E-01
                        eps_eigval:                                     1.00E-05
                        --------------------------------------------------------
                        level_shift [a.u.]:                             0.000000
                        added MOs                                        44    0
                        --------------------------------------------------------
                        Mixing method:                           DIRECT_P_MIXING
                        --------------------------------------------------------
                        Smear method:                                FERMI_DIRAC
                        Electronic temperature [K]:                        300.0
                        Electronic temperature [a.u.]:                  9.50E-04
                        Accuracy threshold:                             1.00E-06
                        --------------------------------------------------------
                        No outer SCF

 Extrapolation method: initial_guess

 Number of electrons:                                                        104
 Number of occupied orbitals:                                                 52
 Number of molecular orbitals:                                                96

 Number of orbital functions:                                                 96
 Number of independent orbital functions:                                     96


 SCF WAVEFUNCTION OPTIMIZATION

  Step     Update method      Time    Convergence         Total energy    Change
  ------------------------------------------------------------------------------
     1 TBLite/Diag 0.40E+00    0.5     1.04191601       -57.0866983819 -5.71E+01
     2 TBLite/Diag 0.40E+00    0.6     0.17848350       -57.2756380067 -1.89E-01
     3 TBLite/Diag 0.40E+00    0.5     0.09467168       -57.2752459053  3.92E-04
     4 TBLite/Diag 0.40E+00    0.6     0.07006325       -57.2952592325 -2.00E-02
     5 TBLite/Diag 0.40E+00    0.6     0.01835114       -57.2982988317 -3.04E-03
     6 TBLite/Diag 0.40E+00    0.5     0.00379429       -57.2983530187 -5.42E-05
     7 TBLite/Diag 0.40E+00    0.5     0.00255932       -57.2983874207 -3.44E-05
     8 TBLite/Diag 0.40E+00    0.5     0.00084906       -57.2983928245 -5.40E-06
     9 TBLite/Diag 0.40E+00    0.2     0.00016023       -57.2983929750 -1.51E-07
    10 TBLite/Diag 0.40E+00    0.2     0.00004369       -57.2983929774 -2.36E-09
    11 TBLite/Diag 0.40E+00    0.2     0.00002576       -57.2983929811 -3.71E-09
    12 TBLite/Diag 0.40E+00    0.2     0.00000787       -57.2983929812 -7.08E-11
    13 TBLite/Diag 0.40E+00    0.2     0.00000382       -57.2983929812 -7.98E-11
    14 TBLite/Diag 0.40E+00    0.2     0.00000082       -57.2983929812 -3.34E-13
    15 TBLite/Diag 0.40E+00    0.2     0.00000059       -57.2983929812 -1.69E-12
    16 TBLite/Diag 0.40E+00    0.2     0.00000015       -57.2983929812 -1.99E-13
    17 TBLite/Diag 0.40E+00    0.2     0.00000004       -57.2983929812  7.11E-15
    18 TBLite/Diag 0.40E+00    0.2     0.00000003       -57.2983929812 -7.11E-15
    19 TBLite/Diag 0.40E+00    0.2     3.6132E-09       -57.2983929812  1.42E-14
    20 TBLite/Diag 0.40E+00    0.2     2.9514E-09       -57.2983929812 -7.11E-15
    21 TBLite/Diag 0.40E+00    0.2     3.2820E-10       -57.2983929812 -4.26E-14

  *** SCF run converged in    21 steps ***


  Core Hamiltonian energy:                                    -58.13501626297316
  Repulsive potential energy:                                   0.82719603355025
  Electrostatic energy:                                         0.08603231092129
  Self-consistent dispersion energy:                           -0.09533445660114
  Non-self consistent dispersion energy:                        0.01872939385636
  Correction for halogen bonding:                               0.00000000000000
  Electronic entropic energy:                                  -0.00000000000000
  Fermi energy:                                                -0.31708403670269

  Total energy:                                               -57.29839298124640
  Total energy (extrapolated to T->0):                        -57.29839298124640

 ENERGY| Total FORCE_EVAL ( QS ) energy [hartree]            -57.298392981246401

 -------------------------------------------------------------------------------
 -                                                                             -
 -                                DBCSR STATISTICS                             -
 -                                                                             -
 -------------------------------------------------------------------------------
 COUNTER                                    TOTAL       BLAS       SMM       ACC
 flops inhomo. stacks                           0       0.0%      0.0%      0.0%
 flops total                         0.000000E+00       0.0%      0.0%      0.0%
 flops max/rank                      0.000000E+00       0.0%      0.0%      0.0%
 matmuls inhomo. stacks                         0       0.0%      0.0%      0.0%
 matmuls total                                  0       0.0%      0.0%      0.0%
 number of processed stacks                     0       0.0%      0.0%      0.0%
 average stack size                                     0.0       0.0       0.0
 marketing flops                     0.000000E+00
 -------------------------------------------------------------------------------
 -                                                                             -
 -                      DBCSR MESSAGE PASSING PERFORMANCE                      -
 -                                                                             -
 -------------------------------------------------------------------------------
 ROUTINE             CALLS      AVE VOLUME [Bytes]
 MP_Bcast                1                     12.
 MP_Allreduce           19                     21.
 MP_Alltoall         48444                  59032.
 -------------------------------------------------------------------------------

 -------------------------------------------------------------------------------
 -                                                                             -
 -                          OFFLOAD MEMPOOL STATISTICS                         -
 -                                                                             -
 -------------------------------------------------------------------------------
 Memory consumption                Number of allocations  Used [MiB]  Size [MiB]
 Device                                                1           0           0
 Host                                                  1           0           0
 -------------------------------------------------------------------------------

 MEMORY| Estimated peak process memory [MiB]                                 269

 -------------------------------------------------------------------------------
 -                                                                             -
 -                         MESSAGE PASSING PERFORMANCE                         -
 -                                                                             -
 -------------------------------------------------------------------------------

 ROUTINE             CALLS      AVE VOLUME [Bytes]
 MP_Group                1
 MP_Bcast            20757                      7.
 MP_Allreduce        22897                    317.
 MP_Sync                 1
 MP_Wait             17280
 MP_ISend            24192                  10538.
 MP_IRecv            24192                  10538.
 -------------------------------------------------------------------------------


 -------------------------------------------------------------------------------
 -                                                                             -
 -                           R E F E R E N C E S                               -
 -                                                                             -
 -------------------------------------------------------------------------------
 
 CP2K version 2026.1 (Development Version), the CP2K developers group (2026).
 CP2K is freely available from https://www.cp2k.org/ .
 
 M. Iannuzzi, J. Wilhelm, F. Stein, A. Bussy, H. Elgabarty, D. Golze, A. Hehn, 
 M. Graml, S. Marek, B. Sertcan Gökmen, C. Schran, H. Forbert, R. Z. 
 Khaliullin, A. Kozhevnikov, M. Taillefumier, R. Meli, V. V. Rybkin, M. Brehm, 
 R. Schade, O. Schütt, J. V. Pototschnig, H. Mirhosseini, A. Knüpfer, D. Marx, 
 M. Krack, J. Hutter, T. D. Kühne.
 J. Phys. Chem. B 130, 1237-1310 (2026).
 The CP2K Program Package Made Simple.
 https://doi.org/10.1021/acs.jpcb.5c05851

 A. Katbashev, M. Stahn, T. Rose, V. Alizadeh, M. Friede, C. Plett, P. 
 Steinbach, S. Ehlert.
 J. Phys. Chem. A 129, 2667-2682 (2025).
 Overview on Building Blocks and Applications of Efficient and Robust Extended 
 Tight Binding.
 https://doi.org/10.1021/acs.jpca.4c08263

 T. D. Kühne, M. Iannuzzi, M. Del Ben, V. V. Rybkin, P. Seewald, F. Stein, T. 
 Laino, R. Z. Khaliullin, O. Schütt, F. Schiffmann, D. Golze, J. Wilhelm, S. 
 Chulkov, M. H. Bani-Hashemian, V. Weber, U. Borstnik, M. Taillefumier, A. S. 
 Jakobovits, A. Lazzaro, H. Pabst, T. Müller, R. Schade, M. Guidon, S. 
 Andermatt, N. Holmberg, G. K. Schenter, A. Hehn, A. Bussy, F. Belleflamme, G. 
 Tabacchi, A. Glöß, M. Lass, I. Bethune, C. J. Mundy, C. Plessl, M. Watkins, 
 J. VandeVondele, M. Krack, J. Hutter.
 J. Chem. Phys. 152, 194103 (2020).
 CP2K: An electronic structure and molecular dynamics software package - 
 Quickstep: Efficient and accurate electronic structure calculations.
 https://doi.org/10.1063/5.0007045

 P. Pracht, E. Caldeweyher, S. Ehlert, S. Grimme.
 ChemRxiv, (2019).
 A Robust Non-Self-Consistent Tight-Binding Quantum Chemistry Method for large 
 Molecules.
 https://doi.org/10.26434/chemrxiv.8326202.v1

 S. Grimme, C. Bannwarth, P. Shushkov.
 J. Chem. Theory Comput. 13, 1989 (2017).
 A Robust and Accurate Tight-Binding Quantum Chemical Method for Structures, 
 Vibrational Frequencies, and Noncovalent Interactions of Large Molecular 
 Systems Parametrized for All spd-Block Elements (Z = 1-86).
 https://doi.org/10.1021/acs.jctc.7b00118

 O. Schuett, P. Messmer, J. Hutter, J. VandeVondele.
 Electronic Structure Calculations on Graphics Processing Units, 173-190 (2016).
 GPU-Accelerated Sparse Matrix-Matrix Multiplication for Linear Scaling Density 
 Functional Theory.
 https://doi.org/10.1002/9781118670712.ch8

 A. Heinecke, G. Henry, M. Hutchinson, H. Pabst.
 Proceedings of Intl. Supercomputing Conference, 981-991 (2016).
 LIBXSMM: Accelerating Small Matrix Multiplications by Runtime Code Generation.
 https://doi.org/10.1109/SC.2016.83

 U. Borstnik, J. VandeVondele, V. Weber, J. Hutter.
 Parallel Comput. 40, 47-58 (2014).
 Sparse matrix multiplication: The distributed block-compressed sparse row 
 library.
 https://doi.org/10.1016/j.parco.2014.03.012

 M. Frigo, S. G. Johnson.
 Proc. IEEE 93, 216-231 (2005).
 The design and implementation of FFTW3.
 https://doi.org/10.1109/JPROC.2004.840301

 N. D. Mermin.
 Phys. Rev. 137, A1441-A1443 (1965).
 Thermal Properties of the Inhomogeneous Electron Gas.
 https://doi.org/10.1103/PhysRev.137.A1441


 -------------------------------------------------------------------------------
 -                                                                             -
 -                                T I M I N G                                  -
 -                                                                             -
 -------------------------------------------------------------------------------
 SUBROUTINE                       CALLS  ASD         SELF TIME        TOTAL TIME
                                MAXIMUM       AVERAGE  MAXIMUM  AVERAGE  MAXIMUM
 CP2K                                 1  1.0    0.008    0.008    8.105    8.105
 qs_energies                          1  2.0    0.000    0.000    8.092    8.092
 scf_env_do_scf                       1  3.0    0.000    0.000    7.436    7.436
 scf_env_do_scf_inner_loop           21  4.0    0.642    0.642    7.436    7.436
 qs_scf_new_mos_kp                   21  5.0    0.000    0.000    5.717    5.717
 do_general_diag_kp                  21  6.0    0.015    0.015    5.717    5.717
 kpoint_density_transform            21  7.0    0.003    0.003    1.258    1.258
 cp_cfm_geeig                       567  7.0    0.002    0.002    1.230    1.230
 rskp_transform                    1161  6.9    1.164    1.164    1.164    1.164
 copy_dbcsr_to_fm                  2408  6.9    0.011    0.011    0.961    0.961
 dbcsr_complete_redistribute       3542  8.3    0.769    0.769    0.953    0.953
 qs_ks_update_qs_env                 21  5.0    0.000    0.000    0.941    0.941
 rebuild_ks_matrix                   21  6.0    0.000    0.000    0.894    0.894
 build_tblite_ks_matrix              21  7.0    0.876    0.876    0.894    0.894
 cp_cfm_heevd                       567  8.0    0.000    0.000    0.821    0.821
 cp_cfm_heevd_base                  567  9.0    0.821    0.821    0.821    0.821
 copy_fm_to_dbcsr                  1134  8.0    0.003    0.003    0.609    0.609
 qs_energies_init_hamiltonians        1  3.0    0.000    0.000    0.597    0.597
 build_tblite_matrices                1  4.0    0.447    0.447    0.587    0.587
 dbcsr_desymmetrize_deep           4730  7.4    0.401    0.401    0.545    0.545
 transform_dmat                     567  8.0    0.503    0.503    0.503    0.503
 qs_diis_b_calc_err_kp              540  7.0    0.012    0.012    0.309    0.309
 cp_cfm_triangular_multiply        1701  8.0    0.299    0.299    0.299    0.299
 parallel_gemm_cfm                 2160  8.0    0.001    0.001    0.292    0.292
 parallel_gemm_cfm_gemm            2160  9.0    0.001    0.001    0.291    0.291
 cp_cfm_gemm                       2160 10.0    0.290    0.290    0.290    0.290
 cp_fm_start_copy_general          3456  7.3    0.220    0.220    0.252    0.252
 dbcsr_copy                        2940  7.5    0.009    0.009    0.236    0.236
 dbcsr_copy_into_existing          1134 10.0    0.222    0.222    0.225    0.225
 kpoint_density_matrices             21  7.0    0.005    0.005    0.185    0.185
 parallel_gemm_fm_gemm             2268  8.0    0.001    0.001    0.176    0.176
 cp_fm_gemm                        2268  9.0    0.175    0.175    0.175    0.175
 dbcsr_finalize                   11282  8.2    0.011    0.011    0.172    0.172
 cp_fm_finish_copy_general         3456  7.3    0.168    0.168    0.171    0.171
 -------------------------------------------------------------------------------

 The number of warnings for this run is : 0
 
 -------------------------------------------------------------------------------
  **** **** ******  **  PROGRAM ENDED AT                 2026-05-23 22:46:51.519
 ***** ** ***  *** **   PROGRAM RAN ON                                spark-c86c
 **    ****   ******    PROGRAM RAN BY                                  kuehne88
 ***** **    ** ** **   PROGRAM PROCESS ID                               2261476
  **** **  *******  **  PROGRAM STOPPED IN /home/kuehne88/periodic-gfn2-benchmar
                                           ks/X23b/runs/crystal_sp/k333/GFN2/imi
                                           dazole_GFN2_k333_sp
