 DBCSR| CPU Multiplication driver                                           BLAS (U)
 DBCSR| Multrec recursion limit                                              512 (U)
 DBCSR| Multiplication stack size                                           1000 (D)
 DBCSR| Maximum elements for images                                    UNLIMITED (U)
 DBCSR| Multiplicative factor virtual images                                   1 (U)
 DBCSR| Use multiplication densification                                       T (D)
 DBCSR| Multiplication size stacks                                             3 (U)
 DBCSR| Use memory pool for CPU allocation                                     F (U)
 DBCSR| Number of 3D layers                                               SINGLE (U)
 DBCSR| Use MPI memory allocation                                              F (U)
 DBCSR| Use RMA algorithm                                                      F (U)
 DBCSR| Use Communication thread                                               T (U)
 DBCSR| Communication thread load                                             87 (D)
 DBCSR| MPI: My process id                                                     0
 DBCSR| MPI: Number of processes                                               1
 DBCSR| OMP: Current number of threads                                         1
 DBCSR| OMP: Max number of threads                                             1
 DBCSR| Split modifier for TAS multiplication algorithm                  1.0E+00 (U)


  **** **** ******  **  PROGRAM STARTED AT               2026-07-22 20:23:49.026
 ***** ** ***  *** **   PROGRAM STARTED ON                                 terok
 **    ****   ******    PROGRAM STARTED BY                              kuehne88
 ***** **    ** ** **   PROGRAM PROCESS ID                                 57430
  **** **  *******  **  PROGRAM STARTED IN /home/kuehne88/work/gxtb-expanded-der
                                           ivatives-20260722/results/ch4_k666_sp
                                           glib_fd

 CP2K| version string:                 CP2K version 2026.2 (Development Version)
 CP2K| source code revision number:                                    8520b2e59
 CP2K| cp2kflags: omp parallel scalapack spglib s_dftd3 mctc-lib tblite tblite_g
 CP2K|            xtb
 CP2K| is freely available from                            https://www.cp2k.org/
 CP2K| Program compiled at                                   2026-07-18 23:48:15
 CP2K| Program compiled on                                                 terok
 CP2K| Program compiled for                                               x86_64
 CP2K| Data directory path                            /usr/local/share/cp2k/data
 CP2K| Input file name        /home/kuehne88/work/gxtb-expanded-derivatives-2026

 GLOBAL| Force Environment number                                              1
 GLOBAL| Basis set file name                                           BASIS_SET
 GLOBAL| Potential file name                                           POTENTIAL
 GLOBAL| MM Potential file name                                     MM_POTENTIAL
 GLOBAL| Coordinate file name                                      __STD_INPUT__
 GLOBAL| Method name                                                        CP2K
 GLOBAL| Project name                                         ch4_k666_spglib_fd
 GLOBAL| Run type                                                          DEBUG
 GLOBAL| FFT library                                                       FFTW3
 GLOBAL| Diagonalization library                                       ScaLAPACK
 GLOBAL| Cholesky decomposition library                                ScaLAPACK
 GLOBAL| DGEMM library                                                      BLAS
 GLOBAL| Direct generalized diagonalization requested                          F
 GLOBAL| Orthonormality check for eigenvectors                          DISABLED
 GLOBAL| Matrix multiplication library                                 ScaLAPACK
 GLOBAL| All-to-all communication in single precision                          F
 GLOBAL| FFTs using library dependent lengths                                  F
 GLOBAL| Grid backend                                                       AUTO
 GLOBAL| Global print level                                               MEDIUM
 GLOBAL| MPI I/O enabled                                                       T
 GLOBAL| Total number of message passing processes                             1
 GLOBAL| Number of distributed systems (nodes)                                 1
 GLOBAL| Number of threads for this process                                    1
 GLOBAL| This output is from process                                           0
 GLOBAL| OpenMP stack size per thread (OMP_STACKSIZE)                    default
 GLOBAL| CPU model name                                       AMD EPYC Processor
 GLOBAL| CPUID                                                              1002

 MEMORY| system memory details [Kb]
 MEMORY|                        rank 0           min           max       average
 MEMORY| MemTotal            528104804     528104804     528104804     528104804
 MEMORY| MemFree             453856384     453856384     453856384     453856384
 MEMORY| Buffers                    20            20            20            20
 MEMORY| Cached               67927988      67927988      67927988      67927988
 MEMORY| Slab                  3856748       3856748       3856748       3856748
 MEMORY| SReclaimable          2137816       2137816       2137816       2137816
 MEMORY| MemLikelyFree       523922208     523922208     523922208     523922208


 *** WARNING in environment.F:1098 :: FFT library FFTW3 is not available. ***
 *** Trying FFT library FFTSG.                                            ***


 *** Fundamental physical constants (SI units) ***

 *** Literature: B. J. Mohr and B. N. Taylor,
 ***             CODATA recommended values of the fundamental physical
 ***             constants: 2006, Web Version 5.1
 ***             http://physics.nist.gov/constants

 Speed of light in vacuum [m/s]                             2.99792458000000E+08
 Magnetic constant or permeability of vacuum [N/A**2]       1.25663706143592E-06
 Electric constant or permittivity of vacuum [F/m]          8.85418781762039E-12
 Planck constant (h) [J*s]                                  6.62606896000000E-34
 Planck constant (h-bar) [J*s]                              1.05457162825177E-34
 Elementary charge [C]                                      1.60217648700000E-19
 Electron mass [kg]                                         9.10938215000000E-31
 Electron g factor [ ]                                     -2.00231930436220E+00
 Proton mass [kg]                                           1.67262163700000E-27
 Fine-structure constant                                    7.29735253760000E-03
 Rydberg constant [1/m]                                     1.09737315685270E+07
 Avogadro constant [1/mol]                                  6.02214179000000E+23
 Boltzmann constant [J/K]                                   1.38065040000000E-23
 Atomic mass unit [kg]                                      1.66053878200000E-27
 Bohr radius [m]                                            5.29177208590000E-11

 *** Conversion factors ***

 [u] -> [a.u.]                                              1.82288848426455E+03
 [Angstrom] -> [Bohr] = [a.u.]                              1.88972613288564E+00
 [a.u.] = [Bohr] -> [Angstrom]                              5.29177208590000E-01
 [a.u.] -> [s]                                              2.41888432650478E-17
 [a.u.] -> [fs]                                             2.41888432650478E-02
 [a.u.] -> [J]                                              4.35974393937059E-18
 [a.u.] -> [N]                                              8.23872205491840E-08
 [a.u.] -> [K]                                              3.15774647902944E+05
 [a.u.] -> [kJ/mol]                                         2.62549961709828E+03
 [a.u.] -> [kcal/mol]                                       6.27509468713739E+02
 [a.u.] -> [Pa]                                             2.94210107994716E+13
 [a.u.] -> [bar]                                            2.94210107994716E+08
 [a.u.] -> [atm]                                            2.90362800883016E+08
 [a.u.] -> [eV]                                             2.72113838565563E+01
 [a.u.] -> [Hz]                                             6.57968392072181E+15
 [a.u.] -> [1/cm] (wave numbers)                            2.19474631370540E+05
 [a.u./Bohr**2] -> [1/cm]                                   5.14048714338585E+03
 

 CELL| Volume [angstrom^3]:                                           512.000000
 CELL| Vector a [angstrom]:       8.000     0.000     0.000   |a| =     8.000000
 CELL| Vector b [angstrom]:       0.000     8.000     0.000   |b| =     8.000000
 CELL| Vector c [angstrom]:       0.000     0.000     8.000   |c| =     8.000000
 CELL| Angle (b,c), alpha [degree]:                                    90.000000
 CELL| Angle (a,c), beta  [degree]:                                    90.000000
 CELL| Angle (a,b), gamma [degree]:                                    90.000000
 CELL| Requested initial symmetry:                                         CUBIC
 CELL| Numerically orthorhombic:                                             YES
 CELL| Periodicity                                                           XYZ

 CELL_REF| Volume [angstrom^3]:                                       512.000000
 CELL_REF| Vector a [angstrom     8.000     0.000     0.000   |a| =     8.000000
 CELL_REF| Vector b [angstrom     0.000     8.000     0.000   |b| =     8.000000
 CELL_REF| Vector c [angstrom     0.000     0.000     8.000   |c| =     8.000000
 CELL_REF| Angle (b,c), alpha [degree]:                                90.000000
 CELL_REF| Angle (a,c), beta  [degree]:                                90.000000
 CELL_REF| Angle (a,b), gamma [degree]:                                90.000000
 CELL_REF| Requested initial symmetry:                                     CUBIC
 CELL_REF| Numerically orthorhombic:                                         YES
 CELL_REF| Periodicity                                                       XYZ

 GENERATE|  Preliminary Number of Bonds generated:                             0
 GENERATE|  Achieved consistency in connectivity generation.


                  #####   #####        #     #   #     #       #          
                 #     # #     #      #    ##### #     #   # #####  ####  
                 #     # #           #       #   ###   #       #   #    # 
                 #     #  #####     #        #   #  #  #   #   #   ###### 
                 #   # #       #   #         #   #   # #   #   #   #      
                 #    #  #     #  #          #   #  #  # # #   #    #   # 
                  #### #  #####  #           #   ###   ##  #   #     ###  

                                     g-xTB   
                                 Version 0.0                       
                            Johann V. Pototschnig                  

                tblite provider: SAVE
                tblite source revision: 15915c9435644eb257178ca8f8bf7220c38b1a84
                g-xTB support: enabled

 xTB| Parameter file                                             xTB1_parameters
 xTB| Basis expansion STO-NG                                                   6
 xTB| Basis expansion STO-NG for Hydrogen                                      4
 xTB| Repulsive pair potential accuracy                               0.1000E-09
 xTB| Repulsive enhancement factor                                      0.000000
 xTB| Halogen interaction potential                                            T
 xTB| Halogen interaction potential cutoff radius                         20.000
 xTB| Nonbonded interactions                                                   F
 xTB| vdW potential type:                                              DFTD3(BJ)
 xTB| D3 Dispersion: Parameter                                         dftd3.dat
 xTB| Huckel constants ks kp kd                        1.850     2.250     2.000
 xTB| Huckel constants ksp k2sh                                  2.080     2.850
 xTB| Mataga-Nishimoto exponent                                            2.000
 xTB| Repulsion potential exponent                                         1.500
 xTB| Coordination number scaling kcn(s) kcn(p) kc     0.006    -0.003    -0.005
 xTB| Electronegativity scaling                                           -0.007
 xTB| Halogen potential scaling kxr kx2                          1.300     0.440
 xTB| SCC mixer:                                                       AUTO
 xTB| tblite accuracy:                                                 1.000E+00
 xTB| tblite SCC mixer damping:                                            0.400
 xTB| tblite SCC mixer iterations:                                           250
 xTB| tblite SCC mixer memory:                                               250
 xTB| tblite SCC mixer solver:                                         GVD
 xTB| tblite SCC mixer omega0:                                         1.000E-02
 xTB| tblite SCC mixer min weight:                                     1.000E+00
 xTB| tblite SCC mixer max weight:                                     1.000E+05
 xTB| tblite SCC mixer weight factor:                                  1.000E-02




 ATOMIC KIND INFORMATION

  1. Atomic kind: C                                     Number of atoms:       1

     Orbital Basis Set                                                 C _STO-6G

       Number of orbital shell sets:                                           2
       Number of orbital shells:                                               2
       Number of primitive Cartesian functions:                               12
       Number of Cartesian basis functions:                                    4
       Number of spherical basis functions:                                    4
       Norm type:                                                              3

       Normalised Cartesian orbitals:

                        Set   Shell   Orbital            Exponent    Coefficient

                          1       1    1s                2.208628      -1.157490
                                                         1.917959       0.886555
                                                         0.497153       0.232010
                                                         0.192182       0.116485
                                                         0.150531      -0.033296
                                                         0.078189       0.019361

                          2       1    2px              24.597336       0.464082
                                                         6.488161       0.691437
                                                         2.226359       0.612655
                                                         0.776897       0.415112
                                                         0.283425       0.113030
                                                         0.098628       0.020433
                          2       1    2py              24.597336       0.464082
                                                         6.488161       0.691437
                                                         2.226359       0.612655
                                                         0.776897       0.415112
                                                         0.283425       0.113030
                                                         0.098628       0.020433
                          2       1    2pz              24.597336       0.464082
                                                         6.488161       0.691437
                                                         2.226359       0.612655
                                                         0.776897       0.415112
                                                         0.283425       0.113030
                                                         0.098628       0.020433

     AE Potential information for                                         Carbon

       Description:                                       Bare Coulomb Potential
                                                             Valence charge only

       Gaussian exponent of the core charge distribution:               3.373250
       Electronic configuration (s p d ...):                       2   2   0   0

  2. Atomic kind: H                                     Number of atoms:       4

     Orbital Basis Set                                                 H _STO-8G

       Number of orbital shell sets:                                           1
       Number of orbital shells:                                               1
       Number of primitive Cartesian functions:                                8
       Number of Cartesian basis functions:                                    1
       Number of spherical basis functions:                                    1
       Norm type:                                                              3

       Normalised Cartesian orbitals:

                        Set   Shell   Orbital            Exponent    Coefficient

                          1       1    1s              337.005012       0.032613
                                                        53.310531       0.058991
                                                        12.208253       0.102844
                                                         3.418827       0.159923
                                                         1.108790       0.193518
                                                         0.478718       0.121328
                                                         0.212137       0.085046
                                                         0.069058       0.011171

     AE Potential information for                                       Hydrogen

       Description:                                       Bare Coulomb Potential
                                                              Full atomic charge

       Gaussian exponent of the core charge distribution:              12.500000
       Electronic configuration (s p d ...):                       1   0   0   0


 MOLECULE KIND INFORMATION


 All atoms are their own molecule, skipping detailed information


 TOTAL NUMBERS AND MAXIMUM NUMBERS

  Total number of            - Atomic kinds:                                   2
                             - Atoms:                                          5
                             - Shell sets:                                     6
                             - Shells:                                         6
                             - Primitive Cartesian functions:                 44
                             - Cartesian basis functions:                      8
                             - Spherical basis functions:                      8

  Maximum angular momentum of the orbital basis functions:                     1


 MODULE QUICKSTEP: ATOMIC COORDINATES IN ANGSTROM

   Atom Kind Element         X             Y             Z       Z(eff)     Mass
      1    1 C     6      4.000000      4.000000      4.000000   4.0000  12.0107
      2    2 H     1      4.692820      4.692820      4.692820   1.0000   1.0079
      3    2 H     1      4.692820      3.307180      3.307180   1.0000   1.0079
      4    2 H     1      3.307180      4.692820      3.307180   1.0000   1.0079
      5    2 H     1      3.307180      3.307180      4.692820   1.0000   1.0079



 SCF PARAMETERS         Density guess:                                     MOPAC
                        --------------------------------------------------------
                        max_scf:                                             300
                        max_scf_history:                                       0
                        max_diis:                                              4
                        --------------------------------------------------------
                        eps_scf:                                        1.00E-10
                        eps_scf_history:                                0.00E+00
                        eps_diis:                                       1.00E-01
                        eps_eigval:                                     1.00E-05
                        --------------------------------------------------------
                        level_shift [a.u.]:                             0.000000
                        added MOs                                         4    0
                        --------------------------------------------------------
                        Mixing method:                           DIRECT_P_MIXING
                        --------------------------------------------------------
                        No outer SCF

 PW_GRID| Information for grid number                                          1
 PW_GRID| Cutoff [a.u.]                                                      1.0
 PW_GRID| spherical cutoff:                                                   NO
 PW_GRID|   Bounds   1             -4       3                Points:           8
 PW_GRID|   Bounds   2             -4       3                Points:           8
 PW_GRID|   Bounds   3             -4       3                Points:           8
 PW_GRID| Volume element (a.u.^3)   6.748         Volume (a.u.^3)      3455.1473
 PW_GRID| Grid span                                                    FULLSPACE

 POISSON| Solver                                                        PERIODIC
 POISSON| Periodicity                                                        XYZ

 RS_GRID| Information for grid number                                          1
 RS_GRID|   Bounds   1             -4       3                Points:           8
 RS_GRID|   Bounds   2             -4       3                Points:           8
 RS_GRID|   Bounds   3             -4       3                Points:           8

 *******************************************************************************
  **                     Special K-Point Generation by SPGLIB                 **
 *******************************************************************************
 *******************************************************************************
  **                              Finished SPGLIB                             **
 *******************************************************************************

 Crystal Symmetry Information
       International Symbol:                                               P-43m
       Point Group Symbol:                                                  -43m
       Schoenflies Symbol:                                                  Td^1
       Number of Symmetry Operations:                                         24

 K-point Symmetry Information
       Number of Special K-points:                                            10
                   Wavevector Basis                                       Weight
          1  -0.41667  -0.41667  -0.41667                                      8
          2  -0.41667  -0.41667  -0.25000                                     24
          3  -0.41667  -0.41667  -0.08333                                     24
          4  -0.41667  -0.25000  -0.25000                                     24
          5  -0.41667  -0.25000  -0.08333                                     48
          6  -0.41667  -0.08333  -0.08333                                     24
          7  -0.25000  -0.25000  -0.25000                                      8
          8  -0.25000  -0.25000  -0.08333                                     24
          9  -0.25000  -0.08333  -0.08333                                     24
         10  -0.08333  -0.08333  -0.08333                                      8

       K-point Mesh:                                               6     6     6
                   Wavevector Basis                   Special Points    Rotation
          1  -0.41667  -0.41667  -0.41667              1           1           1
          2  -0.41667  -0.41667  -0.25000              2           2           1
          3  -0.41667  -0.41667  -0.08333              3           3           1
          4  -0.41667  -0.41667   0.08333              3           3          -8
          5  -0.41667  -0.41667   0.25000              2           2          -8
          6  -0.41667  -0.41667   0.41667              1           1          -8
          7  -0.41667  -0.25000  -0.41667              2           2          22
          8  -0.41667  -0.25000  -0.25000              8           4           1
          9  -0.41667  -0.25000  -0.08333              9           5           1
         10  -0.41667  -0.25000   0.08333              9           5          -3
         11  -0.41667  -0.25000   0.25000              8           4          -3
         12  -0.41667  -0.25000   0.41667              2           2         -21
         13  -0.41667  -0.08333  -0.41667              3           3          22
         14  -0.41667  -0.08333  -0.25000              9           5          22
         15  -0.41667  -0.08333  -0.08333             15           6           1
         16  -0.41667  -0.08333   0.08333             15           6          -3
         17  -0.41667  -0.08333   0.25000              9           5         -18
         18  -0.41667  -0.08333   0.41667              3           3         -21
         19  -0.41667   0.08333  -0.41667              3           3         -19
         20  -0.41667   0.08333  -0.25000              9           5         -24
         21  -0.41667   0.08333  -0.08333             15           6          -7
         22  -0.41667   0.08333   0.08333             15           6          20
         23  -0.41667   0.08333   0.25000              9           5          20
         24  -0.41667   0.08333   0.41667              3           3          20
         25  -0.41667   0.25000  -0.41667              2           2         -19
         26  -0.41667   0.25000  -0.25000              8           4          -7
         27  -0.41667   0.25000  -0.08333              9           5          -7
         28  -0.41667   0.25000   0.08333              9           5           5
         29  -0.41667   0.25000   0.25000              8           4          20
         30  -0.41667   0.25000   0.41667              2           2          20
         31  -0.41667   0.41667  -0.41667              1           1         -10
         32  -0.41667   0.41667  -0.25000              2           2          -7
         33  -0.41667   0.41667  -0.08333              3           3          -7
         34  -0.41667   0.41667   0.08333              3           3           5
         35  -0.41667   0.41667   0.25000              2           2           5
         36  -0.41667   0.41667   0.41667              1           1          20
         37  -0.25000  -0.41667  -0.41667              2           2          14
         38  -0.25000  -0.41667  -0.25000              8           4           6
         39  -0.25000  -0.41667  -0.08333              9           5           6
         40  -0.25000  -0.41667   0.08333              9           5          -8
         41  -0.25000  -0.41667   0.25000              8           4          -8
         42  -0.25000  -0.41667   0.41667              2           2         -15
         43  -0.25000  -0.25000  -0.41667              8           4          14
         44  -0.25000  -0.25000  -0.25000             44           7           1
         45  -0.25000  -0.25000  -0.08333             45           8           1
         46  -0.25000  -0.25000   0.08333             45           8          -8
         47  -0.25000  -0.25000   0.25000             44           7          -8
         48  -0.25000  -0.25000   0.41667              8           4         -21
         49  -0.25000  -0.08333  -0.41667              9           5          17
         50  -0.25000  -0.08333  -0.25000             45           8          22
         51  -0.25000  -0.08333  -0.08333             51           9           1
         52  -0.25000  -0.08333   0.08333             51           9          -3
         53  -0.25000  -0.08333   0.25000             45           8         -21
         54  -0.25000  -0.08333   0.41667              9           5         -21
         55  -0.25000   0.08333  -0.41667              9           5         -19
         56  -0.25000   0.08333  -0.25000             45           8         -19
         57  -0.25000   0.08333  -0.08333             51           9          -7
         58  -0.25000   0.08333   0.08333             51           9          20
         59  -0.25000   0.08333   0.25000             45           8          20
         60  -0.25000   0.08333   0.41667              9           5          23
         61  -0.25000   0.25000  -0.41667              8           4         -10
         62  -0.25000   0.25000  -0.25000             44           7         -10
         63  -0.25000   0.25000  -0.08333             45           8          -7
         64  -0.25000   0.25000   0.08333             45           8           5
         65  -0.25000   0.25000   0.25000             44           7          20
         66  -0.25000   0.25000   0.41667              8           4          23
         67  -0.25000   0.41667  -0.41667              2           2         -10
         68  -0.25000   0.41667  -0.25000              8           4         -13
         69  -0.25000   0.41667  -0.08333              9           5          -4
         70  -0.25000   0.41667   0.08333              9           5           2
         71  -0.25000   0.41667   0.25000              8           4          11
         72  -0.25000   0.41667   0.41667              2           2          11
         73  -0.08333  -0.41667  -0.41667              3           3          14
         74  -0.08333  -0.41667  -0.25000              9           5           9
         75  -0.08333  -0.41667  -0.08333             15           6           6
         76  -0.08333  -0.41667   0.08333             15           6          -8
         77  -0.08333  -0.41667   0.25000              9           5         -15
         78  -0.08333  -0.41667   0.41667              3           3         -15
         79  -0.08333  -0.25000  -0.41667              9           5          14
         80  -0.08333  -0.25000  -0.25000             45           8          14
         81  -0.08333  -0.25000  -0.08333             51           9           6
         82  -0.08333  -0.25000   0.08333             51           9          -8
         83  -0.08333  -0.25000   0.25000             45           8         -15
         84  -0.08333  -0.25000   0.41667              9           5         -12
         85  -0.08333  -0.08333  -0.41667             15           6          14
         86  -0.08333  -0.08333  -0.25000             51           9          14
         87  -0.08333  -0.08333  -0.08333             87          10           1
         88  -0.08333  -0.08333   0.08333             87          10          -8
         89  -0.08333  -0.08333   0.25000             51           9         -21
         90  -0.08333  -0.08333   0.41667             15           6         -21
         91  -0.08333   0.08333  -0.41667             15           6         -10
         92  -0.08333   0.08333  -0.25000             51           9         -10
         93  -0.08333   0.08333  -0.08333             87          10         -10
         94  -0.08333   0.08333   0.08333             87          10          20
         95  -0.08333   0.08333   0.25000             51           9          23
         96  -0.08333   0.08333   0.41667             15           6          23
         97  -0.08333   0.25000  -0.41667              9           5         -10
         98  -0.08333   0.25000  -0.25000             45           8         -10
         99  -0.08333   0.25000  -0.08333             51           9         -13
        100  -0.08333   0.25000   0.08333             51           9          11
        101  -0.08333   0.25000   0.25000             45           8          11
        102  -0.08333   0.25000   0.41667              9           5          16
        103  -0.08333   0.41667  -0.41667              3           3         -10
        104  -0.08333   0.41667  -0.25000              9           5         -13
        105  -0.08333   0.41667  -0.08333             15           6         -13
        106  -0.08333   0.41667   0.08333             15           6          11
        107  -0.08333   0.41667   0.25000              9           5          11
        108  -0.08333   0.41667   0.41667              3           3          11
        109   0.08333  -0.41667  -0.41667              3           3         -11
        110   0.08333  -0.41667  -0.25000              9           5         -11
        111   0.08333  -0.41667  -0.08333             15           6         -11
        112   0.08333  -0.41667   0.08333             15           6          13
        113   0.08333  -0.41667   0.25000              9           5          13
        114   0.08333  -0.41667   0.41667              3           3          10
        115   0.08333  -0.25000  -0.41667              9           5         -16
        116   0.08333  -0.25000  -0.25000             45           8         -11
        117   0.08333  -0.25000  -0.08333             51           9         -11
        118   0.08333  -0.25000   0.08333             51           9          13
        119   0.08333  -0.25000   0.25000             45           8          10
        120   0.08333  -0.25000   0.41667              9           5          10
        121   0.08333  -0.08333  -0.41667             15           6         -23
        122   0.08333  -0.08333  -0.25000             51           9         -23
        123   0.08333  -0.08333  -0.08333             87          10         -20
        124   0.08333  -0.08333   0.08333             87          10          10
        125   0.08333  -0.08333   0.25000             51           9          10
        126   0.08333  -0.08333   0.41667             15           6          10
        127   0.08333   0.08333  -0.41667             15           6          21
        128   0.08333   0.08333  -0.25000             51           9          21
        129   0.08333   0.08333  -0.08333             87          10           8
        130   0.08333   0.08333   0.08333             87          10          -1
        131   0.08333   0.08333   0.25000             51           9         -14
        132   0.08333   0.08333   0.41667             15           6         -14
        133   0.08333   0.25000  -0.41667              9           5          12
        134   0.08333   0.25000  -0.25000             45           8          15
        135   0.08333   0.25000  -0.08333             51           9           8
        136   0.08333   0.25000   0.08333             51           9          -6
        137   0.08333   0.25000   0.25000             45           8         -14
        138   0.08333   0.25000   0.41667              9           5         -14
        139   0.08333   0.41667  -0.41667              3           3          15
        140   0.08333   0.41667  -0.25000              9           5          15
        141   0.08333   0.41667  -0.08333             15           6           8
        142   0.08333   0.41667   0.08333             15           6          -6
        143   0.08333   0.41667   0.25000              9           5          -9
        144   0.08333   0.41667   0.41667              3           3         -14
        145   0.25000  -0.41667  -0.41667              2           2         -11
        146   0.25000  -0.41667  -0.25000              8           4         -11
        147   0.25000  -0.41667  -0.08333              9           5          -2
        148   0.25000  -0.41667   0.08333              9           5           4
        149   0.25000  -0.41667   0.25000              8           4          13
        150   0.25000  -0.41667   0.41667              2           2          10
        151   0.25000  -0.25000  -0.41667              8           4         -23
        152   0.25000  -0.25000  -0.25000             44           7         -20
        153   0.25000  -0.25000  -0.08333             45           8          -5
        154   0.25000  -0.25000   0.08333             45           8           7
        155   0.25000  -0.25000   0.25000             44           7          10
        156   0.25000  -0.25000   0.41667              8           4          10
        157   0.25000  -0.08333  -0.41667              9           5         -23
        158   0.25000  -0.08333  -0.25000             45           8         -20
        159   0.25000  -0.08333  -0.08333             51           9         -20
        160   0.25000  -0.08333   0.08333             51           9           7
        161   0.25000  -0.08333   0.25000             45           8          19
        162   0.25000  -0.08333   0.41667              9           5          19
        163   0.25000   0.08333  -0.41667              9           5          21
        164   0.25000   0.08333  -0.25000             45           8          21
        165   0.25000   0.08333  -0.08333             51           9           3
        166   0.25000   0.08333   0.08333             51           9          -1
        167   0.25000   0.08333   0.25000             45           8         -22
        168   0.25000   0.08333   0.41667              9           5         -17
        169   0.25000   0.25000  -0.41667              8           4          21
        170   0.25000   0.25000  -0.25000             44           7           8
        171   0.25000   0.25000  -0.08333             45           8           8
        172   0.25000   0.25000   0.08333             45           8          -1
        173   0.25000   0.25000   0.25000             44           7          -1
        174   0.25000   0.25000   0.41667              8           4         -14
        175   0.25000   0.41667  -0.41667              2           2          15
        176   0.25000   0.41667  -0.25000              8           4           8
        177   0.25000   0.41667  -0.08333              9           5           8
        178   0.25000   0.41667   0.08333              9           5          -6
        179   0.25000   0.41667   0.25000              8           4          -6
        180   0.25000   0.41667   0.41667              2           2         -14
        181   0.41667  -0.41667  -0.41667              1           1         -20
        182   0.41667  -0.41667  -0.25000              2           2          -5
        183   0.41667  -0.41667  -0.08333              3           3          -5
        184   0.41667  -0.41667   0.08333              3           3           7
        185   0.41667  -0.41667   0.25000              2           2           7
        186   0.41667  -0.41667   0.41667              1           1          10
        187   0.41667  -0.25000  -0.41667              2           2         -20
        188   0.41667  -0.25000  -0.25000              8           4         -20
        189   0.41667  -0.25000  -0.08333              9           5          -5
        190   0.41667  -0.25000   0.08333              9           5           7
        191   0.41667  -0.25000   0.25000              8           4           7
        192   0.41667  -0.25000   0.41667              2           2          19
        193   0.41667  -0.08333  -0.41667              3           3         -20
        194   0.41667  -0.08333  -0.25000              9           5         -20
        195   0.41667  -0.08333  -0.08333             15           6         -20
        196   0.41667  -0.08333   0.08333             15           6           7
        197   0.41667  -0.08333   0.25000              9           5          24
        198   0.41667  -0.08333   0.41667              3           3          19
        199   0.41667   0.08333  -0.41667              3           3          21
        200   0.41667   0.08333  -0.25000              9           5          18
        201   0.41667   0.08333  -0.08333             15           6           3
        202   0.41667   0.08333   0.08333             15           6          -1
        203   0.41667   0.08333   0.25000              9           5         -22
        204   0.41667   0.08333   0.41667              3           3         -22
        205   0.41667   0.25000  -0.41667              2           2          21
        206   0.41667   0.25000  -0.25000              8           4           3
        207   0.41667   0.25000  -0.08333              9           5           3
        208   0.41667   0.25000   0.08333              9           5          -1
        209   0.41667   0.25000   0.25000              8           4          -1
        210   0.41667   0.25000   0.41667              2           2         -22
        211   0.41667   0.41667  -0.41667              1           1           8
        212   0.41667   0.41667  -0.25000              2           2           8
        213   0.41667   0.41667  -0.08333              3           3           8
        214   0.41667   0.41667   0.08333              3           3          -1
        215   0.41667   0.41667   0.25000              2           2          -1
        216   0.41667   0.41667   0.41667              1           1          -1

       Atom Transformation Table
          Rot=    1     1    2    3    4    5
          Rot=    2     1    3    5    2    4
          Rot=    3     1    5    4    3    2
          Rot=    4     1    4    2    5    3
          Rot=    5     1    3    2    5    4
          Rot=    6     1    2    4    3    5
          Rot=    7     1    4    5    2    3
          Rot=    8     1    5    3    4    2
          Rot=    9     1    2    4    5    3
          Rot=   10     1    4    3    2    5
          Rot=   11     1    3    5    4    2
          Rot=   12     1    5    2    3    4
          Rot=   13     1    4    2    3    5
          Rot=   14     1    2    5    4    3
          Rot=   15     1    5    3    2    4
          Rot=   16     1    3    4    5    2
          Rot=   17     1    2    5    3    4
          Rot=   18     1    5    4    2    3
          Rot=   19     1    4    3    5    2
          Rot=   20     1    3    2    4    5
          Rot=   21     1    5    2    4    3
          Rot=   22     1    2    3    5    4
          Rot=   23     1    3    4    2    5
          Rot=   24     1    4    5    3    2

 *******************************************************************************
                                    Kpoints
 *******************************************************************************
 BRILLOUIN| K-point scheme                                        Monkhorst-Pack
 BRILLOUIN| K-Point grid                                             6    6    6
 BRILLOUIN| K-point symmetry accuracy                               0.100000E-07
 BRILLOUIN| K-Point point group symmetrization                                ON
 BRILLOUIN| Symmetry backend                                             SPGLIB
 BRILLOUIN| Symmetry reduction method                                    SPGLIB
 BRILLOUIN| Wavefunction type                                            COMPLEX
 BRILLOUIN| List of Kpoints [2 Pi/Bohr]                                       10
 BRILLOUIN| Number           Weight            X              Y              Z
 BRILLOUIN|     1           0.03704       -0.41667       -0.41667       -0.41667
 BRILLOUIN|     2           0.11111       -0.41667       -0.41667       -0.25000
 BRILLOUIN|     3           0.11111       -0.41667       -0.41667       -0.08333
 BRILLOUIN|     4           0.11111       -0.41667       -0.25000       -0.25000
 BRILLOUIN|     5           0.22222       -0.41667       -0.25000       -0.08333
 BRILLOUIN|     6           0.11111       -0.41667       -0.08333       -0.08333
 BRILLOUIN|     7           0.03704       -0.25000       -0.25000       -0.25000
 BRILLOUIN|     8           0.11111       -0.25000       -0.25000       -0.08333
 BRILLOUIN|     9           0.11111       -0.25000       -0.08333       -0.08333
 BRILLOUIN|    10           0.03704       -0.08333       -0.08333       -0.08333
 *******************************************************************************

 *******************************************************************************
  **                     Special K-Point Generation by SPGLIB                 **
 *******************************************************************************
 *******************************************************************************
  **                              Finished SPGLIB                             **
 *******************************************************************************

 Crystal Symmetry Information
       International Symbol:                                               P-43m
       Point Group Symbol:                                                  -43m
       Schoenflies Symbol:                                                  Td^1
       Number of Symmetry Operations:                                         24

 K-point Symmetry Information
       Number of Special K-points:                                            10
                   Wavevector Basis                                       Weight
          1  -0.41667  -0.41667  -0.41667                                      8
          2  -0.41667  -0.41667  -0.25000                                     24
          3  -0.41667  -0.41667  -0.08333                                     24
          4  -0.41667  -0.25000  -0.25000                                     24
          5  -0.41667  -0.25000  -0.08333                                     48
          6  -0.41667  -0.08333  -0.08333                                     24
          7  -0.25000  -0.25000  -0.25000                                      8
          8  -0.25000  -0.25000  -0.08333                                     24
          9  -0.25000  -0.08333  -0.08333                                     24
         10  -0.08333  -0.08333  -0.08333                                      8

       K-point Mesh:                                               6     6     6
                   Wavevector Basis                   Special Points    Rotation
          1  -0.41667  -0.41667  -0.41667              1           1           1
          2  -0.41667  -0.41667  -0.25000              2           2           1
          3  -0.41667  -0.41667  -0.08333              3           3           1
          4  -0.41667  -0.41667   0.08333              3           3          -8
          5  -0.41667  -0.41667   0.25000              2           2          -8
          6  -0.41667  -0.41667   0.41667              1           1          -8
          7  -0.41667  -0.25000  -0.41667              2           2          22
          8  -0.41667  -0.25000  -0.25000              8           4           1
          9  -0.41667  -0.25000  -0.08333              9           5           1
         10  -0.41667  -0.25000   0.08333              9           5          -3
         11  -0.41667  -0.25000   0.25000              8           4          -3
         12  -0.41667  -0.25000   0.41667              2           2         -21
         13  -0.41667  -0.08333  -0.41667              3           3          22
         14  -0.41667  -0.08333  -0.25000              9           5          22
         15  -0.41667  -0.08333  -0.08333             15           6           1
         16  -0.41667  -0.08333   0.08333             15           6          -3
         17  -0.41667  -0.08333   0.25000              9           5         -18
         18  -0.41667  -0.08333   0.41667              3           3         -21
         19  -0.41667   0.08333  -0.41667              3           3         -19
         20  -0.41667   0.08333  -0.25000              9           5         -24
         21  -0.41667   0.08333  -0.08333             15           6          -7
         22  -0.41667   0.08333   0.08333             15           6          20
         23  -0.41667   0.08333   0.25000              9           5          20
         24  -0.41667   0.08333   0.41667              3           3          20
         25  -0.41667   0.25000  -0.41667              2           2         -19
         26  -0.41667   0.25000  -0.25000              8           4          -7
         27  -0.41667   0.25000  -0.08333              9           5          -7
         28  -0.41667   0.25000   0.08333              9           5           5
         29  -0.41667   0.25000   0.25000              8           4          20
         30  -0.41667   0.25000   0.41667              2           2          20
         31  -0.41667   0.41667  -0.41667              1           1         -10
         32  -0.41667   0.41667  -0.25000              2           2          -7
         33  -0.41667   0.41667  -0.08333              3           3          -7
         34  -0.41667   0.41667   0.08333              3           3           5
         35  -0.41667   0.41667   0.25000              2           2           5
         36  -0.41667   0.41667   0.41667              1           1          20
         37  -0.25000  -0.41667  -0.41667              2           2          14
         38  -0.25000  -0.41667  -0.25000              8           4           6
         39  -0.25000  -0.41667  -0.08333              9           5           6
         40  -0.25000  -0.41667   0.08333              9           5          -8
         41  -0.25000  -0.41667   0.25000              8           4          -8
         42  -0.25000  -0.41667   0.41667              2           2         -15
         43  -0.25000  -0.25000  -0.41667              8           4          14
         44  -0.25000  -0.25000  -0.25000             44           7           1
         45  -0.25000  -0.25000  -0.08333             45           8           1
         46  -0.25000  -0.25000   0.08333             45           8          -8
         47  -0.25000  -0.25000   0.25000             44           7          -8
         48  -0.25000  -0.25000   0.41667              8           4         -21
         49  -0.25000  -0.08333  -0.41667              9           5          17
         50  -0.25000  -0.08333  -0.25000             45           8          22
         51  -0.25000  -0.08333  -0.08333             51           9           1
         52  -0.25000  -0.08333   0.08333             51           9          -3
         53  -0.25000  -0.08333   0.25000             45           8         -21
         54  -0.25000  -0.08333   0.41667              9           5         -21
         55  -0.25000   0.08333  -0.41667              9           5         -19
         56  -0.25000   0.08333  -0.25000             45           8         -19
         57  -0.25000   0.08333  -0.08333             51           9          -7
         58  -0.25000   0.08333   0.08333             51           9          20
         59  -0.25000   0.08333   0.25000             45           8          20
         60  -0.25000   0.08333   0.41667              9           5          23
         61  -0.25000   0.25000  -0.41667              8           4         -10
         62  -0.25000   0.25000  -0.25000             44           7         -10
         63  -0.25000   0.25000  -0.08333             45           8          -7
         64  -0.25000   0.25000   0.08333             45           8           5
         65  -0.25000   0.25000   0.25000             44           7          20
         66  -0.25000   0.25000   0.41667              8           4          23
         67  -0.25000   0.41667  -0.41667              2           2         -10
         68  -0.25000   0.41667  -0.25000              8           4         -13
         69  -0.25000   0.41667  -0.08333              9           5          -4
         70  -0.25000   0.41667   0.08333              9           5           2
         71  -0.25000   0.41667   0.25000              8           4          11
         72  -0.25000   0.41667   0.41667              2           2          11
         73  -0.08333  -0.41667  -0.41667              3           3          14
         74  -0.08333  -0.41667  -0.25000              9           5           9
         75  -0.08333  -0.41667  -0.08333             15           6           6
         76  -0.08333  -0.41667   0.08333             15           6          -8
         77  -0.08333  -0.41667   0.25000              9           5         -15
         78  -0.08333  -0.41667   0.41667              3           3         -15
         79  -0.08333  -0.25000  -0.41667              9           5          14
         80  -0.08333  -0.25000  -0.25000             45           8          14
         81  -0.08333  -0.25000  -0.08333             51           9           6
         82  -0.08333  -0.25000   0.08333             51           9          -8
         83  -0.08333  -0.25000   0.25000             45           8         -15
         84  -0.08333  -0.25000   0.41667              9           5         -12
         85  -0.08333  -0.08333  -0.41667             15           6          14
         86  -0.08333  -0.08333  -0.25000             51           9          14
         87  -0.08333  -0.08333  -0.08333             87          10           1
         88  -0.08333  -0.08333   0.08333             87          10          -8
         89  -0.08333  -0.08333   0.25000             51           9         -21
         90  -0.08333  -0.08333   0.41667             15           6         -21
         91  -0.08333   0.08333  -0.41667             15           6         -10
         92  -0.08333   0.08333  -0.25000             51           9         -10
         93  -0.08333   0.08333  -0.08333             87          10         -10
         94  -0.08333   0.08333   0.08333             87          10          20
         95  -0.08333   0.08333   0.25000             51           9          23
         96  -0.08333   0.08333   0.41667             15           6          23
         97  -0.08333   0.25000  -0.41667              9           5         -10
         98  -0.08333   0.25000  -0.25000             45           8         -10
         99  -0.08333   0.25000  -0.08333             51           9         -13
        100  -0.08333   0.25000   0.08333             51           9          11
        101  -0.08333   0.25000   0.25000             45           8          11
        102  -0.08333   0.25000   0.41667              9           5          16
        103  -0.08333   0.41667  -0.41667              3           3         -10
        104  -0.08333   0.41667  -0.25000              9           5         -13
        105  -0.08333   0.41667  -0.08333             15           6         -13
        106  -0.08333   0.41667   0.08333             15           6          11
        107  -0.08333   0.41667   0.25000              9           5          11
        108  -0.08333   0.41667   0.41667              3           3          11
        109   0.08333  -0.41667  -0.41667              3           3         -11
        110   0.08333  -0.41667  -0.25000              9           5         -11
        111   0.08333  -0.41667  -0.08333             15           6         -11
        112   0.08333  -0.41667   0.08333             15           6          13
        113   0.08333  -0.41667   0.25000              9           5          13
        114   0.08333  -0.41667   0.41667              3           3          10
        115   0.08333  -0.25000  -0.41667              9           5         -16
        116   0.08333  -0.25000  -0.25000             45           8         -11
        117   0.08333  -0.25000  -0.08333             51           9         -11
        118   0.08333  -0.25000   0.08333             51           9          13
        119   0.08333  -0.25000   0.25000             45           8          10
        120   0.08333  -0.25000   0.41667              9           5          10
        121   0.08333  -0.08333  -0.41667             15           6         -23
        122   0.08333  -0.08333  -0.25000             51           9         -23
        123   0.08333  -0.08333  -0.08333             87          10         -20
        124   0.08333  -0.08333   0.08333             87          10          10
        125   0.08333  -0.08333   0.25000             51           9          10
        126   0.08333  -0.08333   0.41667             15           6          10
        127   0.08333   0.08333  -0.41667             15           6          21
        128   0.08333   0.08333  -0.25000             51           9          21
        129   0.08333   0.08333  -0.08333             87          10           8
        130   0.08333   0.08333   0.08333             87          10          -1
        131   0.08333   0.08333   0.25000             51           9         -14
        132   0.08333   0.08333   0.41667             15           6         -14
        133   0.08333   0.25000  -0.41667              9           5          12
        134   0.08333   0.25000  -0.25000             45           8          15
        135   0.08333   0.25000  -0.08333             51           9           8
        136   0.08333   0.25000   0.08333             51           9          -6
        137   0.08333   0.25000   0.25000             45           8         -14
        138   0.08333   0.25000   0.41667              9           5         -14
        139   0.08333   0.41667  -0.41667              3           3          15
        140   0.08333   0.41667  -0.25000              9           5          15
        141   0.08333   0.41667  -0.08333             15           6           8
        142   0.08333   0.41667   0.08333             15           6          -6
        143   0.08333   0.41667   0.25000              9           5          -9
        144   0.08333   0.41667   0.41667              3           3         -14
        145   0.25000  -0.41667  -0.41667              2           2         -11
        146   0.25000  -0.41667  -0.25000              8           4         -11
        147   0.25000  -0.41667  -0.08333              9           5          -2
        148   0.25000  -0.41667   0.08333              9           5           4
        149   0.25000  -0.41667   0.25000              8           4          13
        150   0.25000  -0.41667   0.41667              2           2          10
        151   0.25000  -0.25000  -0.41667              8           4         -23
        152   0.25000  -0.25000  -0.25000             44           7         -20
        153   0.25000  -0.25000  -0.08333             45           8          -5
        154   0.25000  -0.25000   0.08333             45           8           7
        155   0.25000  -0.25000   0.25000             44           7          10
        156   0.25000  -0.25000   0.41667              8           4          10
        157   0.25000  -0.08333  -0.41667              9           5         -23
        158   0.25000  -0.08333  -0.25000             45           8         -20
        159   0.25000  -0.08333  -0.08333             51           9         -20
        160   0.25000  -0.08333   0.08333             51           9           7
        161   0.25000  -0.08333   0.25000             45           8          19
        162   0.25000  -0.08333   0.41667              9           5          19
        163   0.25000   0.08333  -0.41667              9           5          21
        164   0.25000   0.08333  -0.25000             45           8          21
        165   0.25000   0.08333  -0.08333             51           9           3
        166   0.25000   0.08333   0.08333             51           9          -1
        167   0.25000   0.08333   0.25000             45           8         -22
        168   0.25000   0.08333   0.41667              9           5         -17
        169   0.25000   0.25000  -0.41667              8           4          21
        170   0.25000   0.25000  -0.25000             44           7           8
        171   0.25000   0.25000  -0.08333             45           8           8
        172   0.25000   0.25000   0.08333             45           8          -1
        173   0.25000   0.25000   0.25000             44           7          -1
        174   0.25000   0.25000   0.41667              8           4         -14
        175   0.25000   0.41667  -0.41667              2           2          15
        176   0.25000   0.41667  -0.25000              8           4           8
        177   0.25000   0.41667  -0.08333              9           5           8
        178   0.25000   0.41667   0.08333              9           5          -6
        179   0.25000   0.41667   0.25000              8           4          -6
        180   0.25000   0.41667   0.41667              2           2         -14
        181   0.41667  -0.41667  -0.41667              1           1         -20
        182   0.41667  -0.41667  -0.25000              2           2          -5
        183   0.41667  -0.41667  -0.08333              3           3          -5
        184   0.41667  -0.41667   0.08333              3           3           7
        185   0.41667  -0.41667   0.25000              2           2           7
        186   0.41667  -0.41667   0.41667              1           1          10
        187   0.41667  -0.25000  -0.41667              2           2         -20
        188   0.41667  -0.25000  -0.25000              8           4         -20
        189   0.41667  -0.25000  -0.08333              9           5          -5
        190   0.41667  -0.25000   0.08333              9           5           7
        191   0.41667  -0.25000   0.25000              8           4           7
        192   0.41667  -0.25000   0.41667              2           2          19
        193   0.41667  -0.08333  -0.41667              3           3         -20
        194   0.41667  -0.08333  -0.25000              9           5         -20
        195   0.41667  -0.08333  -0.08333             15           6         -20
        196   0.41667  -0.08333   0.08333             15           6           7
        197   0.41667  -0.08333   0.25000              9           5          24
        198   0.41667  -0.08333   0.41667              3           3          19
        199   0.41667   0.08333  -0.41667              3           3          21
        200   0.41667   0.08333  -0.25000              9           5          18
        201   0.41667   0.08333  -0.08333             15           6           3
        202   0.41667   0.08333   0.08333             15           6          -1
        203   0.41667   0.08333   0.25000              9           5         -22
        204   0.41667   0.08333   0.41667              3           3         -22
        205   0.41667   0.25000  -0.41667              2           2          21
        206   0.41667   0.25000  -0.25000              8           4           3
        207   0.41667   0.25000  -0.08333              9           5           3
        208   0.41667   0.25000   0.08333              9           5          -1
        209   0.41667   0.25000   0.25000              8           4          -1
        210   0.41667   0.25000   0.41667              2           2         -22
        211   0.41667   0.41667  -0.41667              1           1           8
        212   0.41667   0.41667  -0.25000              2           2           8
        213   0.41667   0.41667  -0.08333              3           3           8
        214   0.41667   0.41667   0.08333              3           3          -1
        215   0.41667   0.41667   0.25000              2           2          -1
        216   0.41667   0.41667   0.41667              1           1          -1

       Atom Transformation Table
          Rot=    1     1    2    3    4    5
          Rot=    2     1    3    5    2    4
          Rot=    3     1    5    4    3    2
          Rot=    4     1    4    2    5    3
          Rot=    5     1    3    2    5    4
          Rot=    6     1    2    4    3    5
          Rot=    7     1    4    5    2    3
          Rot=    8     1    5    3    4    2
          Rot=    9     1    2    4    5    3
          Rot=   10     1    4    3    2    5
          Rot=   11     1    3    5    4    2
          Rot=   12     1    5    2    3    4
          Rot=   13     1    4    2    3    5
          Rot=   14     1    2    5    4    3
          Rot=   15     1    5    3    2    4
          Rot=   16     1    3    4    5    2
          Rot=   17     1    2    5    3    4
          Rot=   18     1    5    4    2    3
          Rot=   19     1    4    3    5    2
          Rot=   20     1    3    2    4    5
          Rot=   21     1    5    2    4    3
          Rot=   22     1    2    3    5    4
          Rot=   23     1    3    4    2    5
          Rot=   24     1    4    5    3    2

 Extrapolation method: initial_guess

 Number of electrons:                                                          8
 Number of occupied orbitals:                                                  4
 Number of molecular orbitals:                                                 8

 Number of orbital functions:                                                  8
 Number of independent orbital functions:                                      8


 SCF WAVEFUNCTION OPTIMIZATION

  Step     Update method      Time    Convergence         Total energy    Change
  ------------------------------------------------------------------------------
 GXTB-EXCHANGE-TRANSFORM stage=FORWARD backend=DENSE fallback=0 iter=1
 GXTB-EXCHANGE-TRANSFORM stage=FORWARD backend=DENSE fallback=0 iter=1
     1 GXTB-Raw    0.10E+01   44.4     0.54061414       -40.4418582981 -4.04E+01
 GXTB-EXCHANGE-TRANSFORM stage=FORWARD backend=DENSE fallback=0 iter=2
 GXTB-EXCHANGE-TRANSFORM stage=FORWARD backend=DENSE fallback=0 iter=2
     2 GXTB-Simple 0.20E+00    0.8     0.04966823       -40.4549713285 -1.31E-02
 GXTB-EXCHANGE-TRANSFORM stage=FORWARD backend=DENSE fallback=0 iter=3
 GXTB-EXCHANGE-TRANSFORM stage=FORWARD backend=DENSE fallback=0 iter=3
     3 GXTB-Simple 0.20E+00    0.7     0.03454644       -40.4615420495 -6.57E-03
 GXTB-EXCHANGE-TRANSFORM stage=FORWARD backend=DENSE fallback=0 iter=4
 GXTB-EXCHANGE-TRANSFORM stage=FORWARD backend=DENSE fallback=0 iter=4
     4 GXTB-FDIIS  0.10E+01    0.7     0.05595321       -40.4671816398 -5.64E-03
 GXTB-EXCHANGE-TRANSFORM stage=FORWARD backend=DENSE fallback=0 iter=5
 GXTB-EXCHANGE-TRANSFORM stage=FORWARD backend=DENSE fallback=0 iter=5
     5 GXTB-FDIIS  0.10E+01    0.7     0.03572787       -40.4685333874 -1.35E-03
 GXTB-EXCHANGE-TRANSFORM stage=FORWARD backend=DENSE fallback=0 iter=6
 GXTB-EXCHANGE-TRANSFORM stage=FORWARD backend=DENSE fallback=0 iter=6
     6 GXTB-FDIIS  0.10E+01    0.7     0.00209286       -40.4685329312  4.56E-07
 GXTB-EXCHANGE-TRANSFORM stage=FORWARD backend=DENSE fallback=0 iter=7
 GXTB-EXCHANGE-TRANSFORM stage=FORWARD backend=DENSE fallback=0 iter=7
     7 GXTB-FDIIS  0.10E+01    0.7     0.00109189       -40.4685342014 -1.27E-06
 GXTB-EXCHANGE-TRANSFORM stage=FORWARD backend=DENSE fallback=0 iter=8
 GXTB-EXCHANGE-TRANSFORM stage=FORWARD backend=DENSE fallback=0 iter=8
     8 GXTB-FDIIS  0.10E+01    0.7     0.00003810       -40.4685342036 -2.16E-09
 GXTB-EXCHANGE-TRANSFORM stage=FORWARD backend=DENSE fallback=0 iter=9
 GXTB-EXCHANGE-TRANSFORM stage=FORWARD backend=DENSE fallback=0 iter=9
     9 GXTB-FDIIS  0.10E+01    0.7     0.00000851       -40.4685342037 -7.60E-11
 GXTB-EXCHANGE-TRANSFORM stage=FORWARD backend=DENSE fallback=0 iter=10
 GXTB-EXCHANGE-TRANSFORM stage=FORWARD backend=DENSE fallback=0 iter=10
    10 GXTB-FDIIS  0.10E+01    0.8     0.00000009       -40.4685342037 -7.11E-15
 GXTB-EXCHANGE-TRANSFORM stage=FORWARD backend=DENSE fallback=0 iter=11
 GXTB-EXCHANGE-TRANSFORM stage=FORWARD backend=DENSE fallback=0 iter=11
    11 GXTB-FDIIS  0.10E+01    0.8     9.1889E-11       -40.4685342037  0.00E+00

  *** SCF run converged in    11 steps ***


  Core Hamiltonian energy:                                     -3.06810214126466
  Repulsive potential energy:                                   0.37445740804951
  Electrostatic energy:                                         0.01420612097482
  Self-consistent dispersion energy:                           -0.00114279589942
  Non-self consistent dispersion energy:                        0.00003895111946
  Correction for halogen bonding:                               0.00000000000000

  Total energy:                                               -40.46853420367020


 MULLIKEN POPULATION ANALYSIS

  # Atom   Element   Kind        Atomic population                    Net charge
       1     C          1                 4.271933                     -0.271933
       2     H          2                 0.932017                      0.067983
       3     H          2                 0.932017                      0.067983
       4     H          2                 0.932017                      0.067983
       5     H          2                 0.932017                      0.067983
 # Total charge                           8.000000                      0.000000

 GXTB-EXCHANGE-TRANSFORM stage=FORWARD backend=DENSE fallback=0 iter=11
 GXTB-EXCHANGE-TRANSFORM stage=REVERSE backend=DENSE fallback=0

 ENERGY| Total FORCE_EVAL ( QS ) energy [hartree]            -40.468534203670195

 FORCES| Atomic forces [hartree/bohr]
 FORCES|   Atom     x               y               z               |f|
 FORCES|      1  2.81538995E-16  1.72021791E-16  5.73412897E-16   6.61557293E-16
 FORCES|      2 -3.17844887E-02 -3.17844887E-02 -3.17844887E-02   5.50523493E-02
 FORCES|      3 -3.17844887E-02  3.17844887E-02  3.17844887E-02   5.50523493E-02
 FORCES|      4  3.17844887E-02 -3.17844887E-02  3.17844887E-02   5.50523493E-02
 FORCES|      5  3.17844887E-02  3.17844887E-02 -3.17844887E-02   5.50523493E-02
 FORCES| Sum     1.11022302E-16  4.85722573E-17  6.93889390E-18
 FORCES| Total atomic force                                       1.21381070E-16

 STRESS| Analytical stress tensor [GPa]
 STRESS|                        x                   y                   z
 STRESS|      x       -1.41833194215E+00  -1.80611115978E-15  -2.11867796889E-15
 STRESS|      y       -1.80611115978E-15  -1.41833194215E+00  -6.41891923487E-16
 STRESS|      z       -2.11867796889E-15  -6.41891923487E-16  -1.41833194215E+00
 STRESS| 1/3 Trace                                            -1.41833194215E+00
 STRESS| Determinant                                          -2.85320943289E+00

 STRESS| Eigenvectors and eigenvalues of the analytical stress tensor [GPa]
 STRESS|                        1                   2                   3
 STRESS| Eigenvalues  -1.41833194215E+00  -1.41833194215E+00  -1.41833194215E+00
 STRESS|      x           1.000000000000      0.000000000000      0.000000000000
 STRESS|      y           0.000000000000      0.000000000000      1.000000000000
 STRESS|      z           0.000000000000      1.000000000000      0.000000000000

 **************************** NUMERICAL STRESS ********************************


 *******************************************************************************
  **                     Special K-Point Generation by SPGLIB                 **
 *******************************************************************************
 *******************************************************************************
  **                              Finished SPGLIB                             **
 *******************************************************************************

 Crystal Symmetry Information
       International Symbol:                                               P-42m
       Point Group Symbol:                                                  -42m
       Schoenflies Symbol:                                                 D2d^1
       Number of Symmetry Operations:                                          8

 K-point Symmetry Information
       Number of Special K-points:                                            18
                   Wavevector Basis                                       Weight
          1  -0.41667  -0.41667  -0.41667                                      8
          2  -0.41667  -0.41667  -0.25000                                     16
          3  -0.41667  -0.41667  -0.08333                                     16
          4  -0.41667  -0.25000  -0.25000                                      8
          5  -0.41667  -0.25000  -0.08333                                     16
          6  -0.41667  -0.08333  -0.08333                                      8
          7  -0.25000  -0.41667  -0.41667                                      8
          8  -0.25000  -0.41667  -0.25000                                     16
          9  -0.25000  -0.41667  -0.08333                                     16
         10  -0.25000  -0.25000  -0.25000                                      8
         11  -0.25000  -0.25000  -0.08333                                     16
         12  -0.25000  -0.08333  -0.08333                                      8
         13  -0.08333  -0.41667  -0.41667                                      8
         14  -0.08333  -0.41667  -0.25000                                     16
         15  -0.08333  -0.41667  -0.08333                                     16
         16  -0.08333  -0.25000  -0.25000                                      8
         17  -0.08333  -0.25000  -0.08333                                     16
         18  -0.08333  -0.08333  -0.08333                                      8

       K-point Mesh:                                               6     6     6
                   Wavevector Basis                   Special Points    Rotation
          1  -0.41667  -0.41667  -0.41667              1           1           1
          2  -0.41667  -0.41667  -0.25000              2           2           1
          3  -0.41667  -0.41667  -0.08333              3           3           1
          4  -0.41667  -0.41667   0.08333              3           3          -5
          5  -0.41667  -0.41667   0.25000              2           2          -5
          6  -0.41667  -0.41667   0.41667              1           1          -5
          7  -0.41667  -0.25000  -0.41667              2           2           8
          8  -0.41667  -0.25000  -0.25000              8           4           1
          9  -0.41667  -0.25000  -0.08333              9           5           1
         10  -0.41667  -0.25000   0.08333              9           5          -5
         11  -0.41667  -0.25000   0.25000              8           4          -5
         12  -0.41667  -0.25000   0.41667              2           2          -4
         13  -0.41667  -0.08333  -0.41667              3           3           8
         14  -0.41667  -0.08333  -0.25000              9           5           8
         15  -0.41667  -0.08333  -0.08333             15           6           1
         16  -0.41667  -0.08333   0.08333             15           6          -5
         17  -0.41667  -0.08333   0.25000              9           5          -4
         18  -0.41667  -0.08333   0.41667              3           3          -4
         19  -0.41667   0.08333  -0.41667              3           3          -2
         20  -0.41667   0.08333  -0.25000              9           5          -2
         21  -0.41667   0.08333  -0.08333             15           6          -7
         22  -0.41667   0.08333   0.08333             15           6           6
         23  -0.41667   0.08333   0.25000              9           5           6
         24  -0.41667   0.08333   0.41667              3           3           6
         25  -0.41667   0.25000  -0.41667              2           2          -2
         26  -0.41667   0.25000  -0.25000              8           4          -7
         27  -0.41667   0.25000  -0.08333              9           5          -7
         28  -0.41667   0.25000   0.08333              9           5           3
         29  -0.41667   0.25000   0.25000              8           4           6
         30  -0.41667   0.25000   0.41667              2           2           6
         31  -0.41667   0.41667  -0.41667              1           1          -7
         32  -0.41667   0.41667  -0.25000              2           2          -7
         33  -0.41667   0.41667  -0.08333              3           3          -7
         34  -0.41667   0.41667   0.08333              3           3           3
         35  -0.41667   0.41667   0.25000              2           2           3
         36  -0.41667   0.41667   0.41667              1           1           6
         37  -0.25000  -0.41667  -0.41667             37           7           1
         38  -0.25000  -0.41667  -0.25000             38           8           1
         39  -0.25000  -0.41667  -0.08333             39           9           1
         40  -0.25000  -0.41667   0.08333             39           9          -5
         41  -0.25000  -0.41667   0.25000             38           8          -5
         42  -0.25000  -0.41667   0.41667             37           7          -5
         43  -0.25000  -0.25000  -0.41667             38           8           8
         44  -0.25000  -0.25000  -0.25000             44          10           1
         45  -0.25000  -0.25000  -0.08333             45          11           1
         46  -0.25000  -0.25000   0.08333             45          11          -5
         47  -0.25000  -0.25000   0.25000             44          10          -5
         48  -0.25000  -0.25000   0.41667             38           8          -4
         49  -0.25000  -0.08333  -0.41667             39           9           8
         50  -0.25000  -0.08333  -0.25000             45          11           8
         51  -0.25000  -0.08333  -0.08333             51          12           1
         52  -0.25000  -0.08333   0.08333             51          12          -5
         53  -0.25000  -0.08333   0.25000             45          11          -4
         54  -0.25000  -0.08333   0.41667             39           9          -4
         55  -0.25000   0.08333  -0.41667             39           9          -2
         56  -0.25000   0.08333  -0.25000             45          11          -2
         57  -0.25000   0.08333  -0.08333             51          12          -7
         58  -0.25000   0.08333   0.08333             51          12           6
         59  -0.25000   0.08333   0.25000             45          11           6
         60  -0.25000   0.08333   0.41667             39           9           6
         61  -0.25000   0.25000  -0.41667             38           8          -2
         62  -0.25000   0.25000  -0.25000             44          10          -7
         63  -0.25000   0.25000  -0.08333             45          11          -7
         64  -0.25000   0.25000   0.08333             45          11           3
         65  -0.25000   0.25000   0.25000             44          10           6
         66  -0.25000   0.25000   0.41667             38           8           6
         67  -0.25000   0.41667  -0.41667             37           7          -7
         68  -0.25000   0.41667  -0.25000             38           8          -7
         69  -0.25000   0.41667  -0.08333             39           9          -7
[...]
        161   0.25000  -0.08333   0.25000             56          56           2
        162   0.25000  -0.08333   0.41667             55          55           2
        163   0.25000   0.08333  -0.41667             54          54           2
        164   0.25000   0.08333  -0.25000             53          53           2
        165   0.25000   0.08333  -0.08333             52          52           2
        166   0.25000   0.08333   0.08333             51          51           2
        167   0.25000   0.08333   0.25000             50          50           2
        168   0.25000   0.08333   0.41667             49          49           2
        169   0.25000   0.25000  -0.41667             48          48           2
        170   0.25000   0.25000  -0.25000             47          47           2
        171   0.25000   0.25000  -0.08333             46          46           2
        172   0.25000   0.25000   0.08333             45          45           2
        173   0.25000   0.25000   0.25000             44          44           2
        174   0.25000   0.25000   0.41667             43          43           2
        175   0.25000   0.41667  -0.41667             42          42           2
        176   0.25000   0.41667  -0.25000             41          41           2
        177   0.25000   0.41667  -0.08333             40          40           2
        178   0.25000   0.41667   0.08333             39          39           2
        179   0.25000   0.41667   0.25000             38          38           2
        180   0.25000   0.41667   0.41667             37          37           2
        181   0.41667  -0.41667  -0.41667             36          36           2
        182   0.41667  -0.41667  -0.25000             35          35           2
        183   0.41667  -0.41667  -0.08333             34          34           2
        184   0.41667  -0.41667   0.08333             33          33           2
        185   0.41667  -0.41667   0.25000             32          32           2
        186   0.41667  -0.41667   0.41667             31          31           2
        187   0.41667  -0.25000  -0.41667             30          30           2
        188   0.41667  -0.25000  -0.25000             29          29           2
        189   0.41667  -0.25000  -0.08333             28          28           2
        190   0.41667  -0.25000   0.08333             27          27           2
        191   0.41667  -0.25000   0.25000             26          26           2
        192   0.41667  -0.25000   0.41667             25          25           2
        193   0.41667  -0.08333  -0.41667             24          24           2
        194   0.41667  -0.08333  -0.25000             23          23           2
        195   0.41667  -0.08333  -0.08333             22          22           2
        196   0.41667  -0.08333   0.08333             21          21           2
        197   0.41667  -0.08333   0.25000             20          20           2
        198   0.41667  -0.08333   0.41667             19          19           2
        199   0.41667   0.08333  -0.41667             18          18           2
        200   0.41667   0.08333  -0.25000             17          17           2
        201   0.41667   0.08333  -0.08333             16          16           2
        202   0.41667   0.08333   0.08333             15          15           2
        203   0.41667   0.08333   0.25000             14          14           2
        204   0.41667   0.08333   0.41667             13          13           2
        205   0.41667   0.25000  -0.41667             12          12           2
        206   0.41667   0.25000  -0.25000             11          11           2
        207   0.41667   0.25000  -0.08333             10          10           2
        208   0.41667   0.25000   0.08333              9           9           2
        209   0.41667   0.25000   0.25000              8           8           2
        210   0.41667   0.25000   0.41667              7           7           2
        211   0.41667   0.41667  -0.41667              6           6           2
        212   0.41667   0.41667  -0.25000              5           5           2
        213   0.41667   0.41667  -0.08333              4           4           2
        214   0.41667   0.41667   0.08333              3           3           2
        215   0.41667   0.41667   0.25000              2           2           2
        216   0.41667   0.41667   0.41667              1           1           2

 Extrapolation method: initial_guess

 Number of electrons:                                                          8
 Number of occupied orbitals:                                                  4
 Number of molecular orbitals:                                                 8

 Number of orbital functions:                                                  8
 Number of independent orbital functions:                                      8


 SCF WAVEFUNCTION OPTIMIZATION

  Step     Update method      Time    Convergence         Total energy    Change
  ------------------------------------------------------------------------------
 GXTB-EXCHANGE-TRANSFORM stage=FORWARD backend=DENSE fallback=0 iter=1
 GXTB-EXCHANGE-TRANSFORM stage=FORWARD backend=DENSE fallback=0 iter=1
     1 GXTB-Raw    0.10E+01   44.1     0.54062438       -40.4418611853 -4.04E+01
 GXTB-EXCHANGE-TRANSFORM stage=FORWARD backend=DENSE fallback=0 iter=2
 GXTB-EXCHANGE-TRANSFORM stage=FORWARD backend=DENSE fallback=0 iter=2
     2 GXTB-Simple 0.20E+00    1.0     0.04966892       -40.4549743922 -1.31E-02
 GXTB-EXCHANGE-TRANSFORM stage=FORWARD backend=DENSE fallback=0 iter=3
 GXTB-EXCHANGE-TRANSFORM stage=FORWARD backend=DENSE fallback=0 iter=3
     3 GXTB-Simple 0.20E+00    0.9     0.03454691       -40.4615451855 -6.57E-03
 GXTB-EXCHANGE-TRANSFORM stage=FORWARD backend=DENSE fallback=0 iter=4
 GXTB-EXCHANGE-TRANSFORM stage=FORWARD backend=DENSE fallback=0 iter=4
     4 GXTB-FDIIS  0.10E+01    0.9     0.05595379       -40.4671847582 -5.64E-03
 GXTB-EXCHANGE-TRANSFORM stage=FORWARD backend=DENSE fallback=0 iter=5
 GXTB-EXCHANGE-TRANSFORM stage=FORWARD backend=DENSE fallback=0 iter=5
     5 GXTB-FDIIS  0.10E+01    0.9     0.03572820       -40.4685365653 -1.35E-03
 GXTB-EXCHANGE-TRANSFORM stage=FORWARD backend=DENSE fallback=0 iter=6
 GXTB-EXCHANGE-TRANSFORM stage=FORWARD backend=DENSE fallback=0 iter=6
     6 GXTB-FDIIS  0.10E+01    0.9     0.00209313       -40.4685361088  4.57E-07
 GXTB-EXCHANGE-TRANSFORM stage=FORWARD backend=DENSE fallback=0 iter=7
 GXTB-EXCHANGE-TRANSFORM stage=FORWARD backend=DENSE fallback=0 iter=7
     7 GXTB-FDIIS  0.10E+01    0.9     0.00109206       -40.4685373794 -1.27E-06
 GXTB-EXCHANGE-TRANSFORM stage=FORWARD backend=DENSE fallback=0 iter=8
 GXTB-EXCHANGE-TRANSFORM stage=FORWARD backend=DENSE fallback=0 iter=8
     8 GXTB-FDIIS  0.10E+01    0.9     0.00003811       -40.4685373816 -2.16E-09
 GXTB-EXCHANGE-TRANSFORM stage=FORWARD backend=DENSE fallback=0 iter=9
 GXTB-EXCHANGE-TRANSFORM stage=FORWARD backend=DENSE fallback=0 iter=9
     9 GXTB-FDIIS  0.10E+01    0.9     0.00000851       -40.4685373816 -7.60E-11
 GXTB-EXCHANGE-TRANSFORM stage=FORWARD backend=DENSE fallback=0 iter=10
 GXTB-EXCHANGE-TRANSFORM stage=FORWARD backend=DENSE fallback=0 iter=10
    10 GXTB-FDIIS  0.10E+01    0.9     0.00000009       -40.4685373816 -1.42E-14
 GXTB-EXCHANGE-TRANSFORM stage=FORWARD backend=DENSE fallback=0 iter=11
 GXTB-EXCHANGE-TRANSFORM stage=FORWARD backend=DENSE fallback=0 iter=11
    11 GXTB-FDIIS  0.10E+01    0.9     1.2605E-10       -40.4685373816  0.00E+00
 GXTB-EXCHANGE-TRANSFORM stage=FORWARD backend=DENSE fallback=0 iter=12
 GXTB-EXCHANGE-TRANSFORM stage=FORWARD backend=DENSE fallback=0 iter=12
    12 GXTB-FDIIS  0.10E+01    0.9     6.6149E-12       -40.4685373816  0.00E+00

  *** SCF run converged in    12 steps ***


  Core Hamiltonian energy:                                     -3.06810726521236
  Repulsive potential energy:                                   0.37446898028173
  Electrostatic energy:                                         0.01420758003053
  Self-consistent dispersion energy:                           -0.00114277226165
  Non-self consistent dispersion energy:                        0.00003895029687
  Correction for halogen bonding:                               0.00000000000000

  Total energy:                                               -40.46853738164558


 MULLIKEN POPULATION ANALYSIS

  # Atom   Element   Kind        Atomic population                    Net charge
       1     C          1                 4.271938                     -0.271938
       2     H          2                 0.932011                      0.067989
       3     H          2                 0.932015                      0.067985
       4     H          2                 0.932018                      0.067982
       5     H          2                 0.932018                      0.067982
 # Total charge                           8.000000                     -0.000000

 GXTB-EXCHANGE-TRANSFORM stage=FORWARD backend=DENSE fallback=0 iter=12

 ENERGY| Total FORCE_EVAL ( QS ) energy [hartree]            -40.468537381645575

 DEBUG| Atom    E(x + 0.0001)    E(x - 0.0001)     f(numerical)    f(analytical)
 DEBUG|    2     -40.46853102     -40.46853738      -0.03178449      -0.03178449

 DEBUG| Atom  Coordinate   f(numerical)   f(analytical)   Difference   Error [%]
 DEBUG|    2      x         -0.03178449     -0.03178449  -0.00000000       -0.00

 DEBUG|======================== BEGIN OF SUMMARY ===============================
 DEBUG| Atom  Coordinate   f(numerical)   f(analytical)   Difference   Error [%]
 DEBUG|    2      x         -0.03178449     -0.03178449  -0.00000000       -0.00
 DEBUG| Sum of differences:                               0.00000000        0.00
 DEBUG|======================== END OF SUMMARY =================================

 -------------------------------------------------------------------------------
 -                                                                             -
 -                                DBCSR STATISTICS                             -
 -                                                                             -
 -------------------------------------------------------------------------------
 COUNTER                                    TOTAL       BLAS       SMM       ACC
 flops inhomo. stacks                           0       0.0%      0.0%      0.0%
 flops total                         0.000000E+00       0.0%      0.0%      0.0%
 flops max/rank                      0.000000E+00       0.0%      0.0%      0.0%
 matmuls inhomo. stacks                         0       0.0%      0.0%      0.0%
 matmuls total                                  0       0.0%      0.0%      0.0%
 number of processed stacks                     0       0.0%      0.0%      0.0%
 average stack size                                     0.0       0.0       0.0
 marketing flops                     0.000000E+00
 -------------------------------------------------------------------------------
 -                                                                             -
 -                      DBCSR MESSAGE PASSING PERFORMANCE                      -
 -                                                                             -
 -------------------------------------------------------------------------------
 ROUTINE             CALLS      AVE VOLUME [Bytes]
 MP_Bcast                1                     12.
 MP_Allreduce           19                     21.
 MP_Alltoall       1753552                    572.
 -------------------------------------------------------------------------------

 -------------------------------------------------------------------------------
 -                                                                             -
 -                          OFFLOAD MEMPOOL STATISTICS                         -
 -                                                                             -
 -------------------------------------------------------------------------------
 Memory consumption                Number of allocations  Used [MiB]  Size [MiB]
 Host                                                  1           0           0
 -------------------------------------------------------------------------------

 MEMORY| Estimated peak process memory [MiB]                                1062

 -------------------------------------------------------------------------------
 ----                             MULTIGRID INFO                            ----
 -------------------------------------------------------------------------------
 total grid count     :           420              cutoff [a.u.]            1.00

 -------------------------------------------------------------------------------
 -                                                                             -
 -                         MESSAGE PASSING PERFORMANCE                         -
 -                                                                             -
 -------------------------------------------------------------------------------

 ROUTINE             CALLS      AVE VOLUME [Bytes]
 MP_Group               20
 MP_Bcast          1798376                      7.
 MP_Allreduce      2915733                    117.
 MP_Sync                20
 MP_Wait           1498440
 MP_ISend          2097816                     79.
 MP_IRecv          2097816                     79.
 -------------------------------------------------------------------------------


 -------------------------------------------------------------------------------
 -                                                                             -
 -                           R E F E R E N C E S                               -
 -                                                                             -
 -------------------------------------------------------------------------------
 
 CP2K version 2026.2 (Development Version), the CP2K developers group (2026).
 CP2K is freely available from https://www.cp2k.org/ .
 
 M. Iannuzzi, J. Wilhelm, F. Stein, A. Bussy, H. Elgabarty, D. Golze, A. Hehn, 
 M. Graml, S. Marek, B. Sertcan Gökmen, C. Schran, H. Forbert, R. Z. 
 Khaliullin, A. Kozhevnikov, M. Taillefumier, R. Meli, V. V. Rybkin, M. Brehm, 
 R. Schade, O. Schütt, J. V. Pototschnig, H. Mirhosseini, A. Knüpfer, D. Marx, 
 M. Krack, J. Hutter, T. D. Kühne.
 J. Phys. Chem. B 130, 1237-1310 (2026).
 The CP2K Program Package Made Simple.
 https://doi.org/10.1021/acs.jpcb.5c05851

 A. Katbashev, M. Stahn, T. Rose, V. Alizadeh, M. Friede, C. Plett, P. 
 Steinbach, S. Ehlert.
 J. Phys. Chem. A 129, 2667-2682 (2025).
 Overview on Building Blocks and Applications of Efficient and Robust Extended 
 Tight Binding.
 https://doi.org/10.1021/acs.jpca.4c08263

 T. D. Kühne, M. Iannuzzi, M. Del Ben, V. V. Rybkin, P. Seewald, F. Stein, T. 
 Laino, R. Z. Khaliullin, O. Schütt, F. Schiffmann, D. Golze, J. Wilhelm, S. 
 Chulkov, M. H. Bani-Hashemian, V. Weber, U. Borstnik, M. Taillefumier, A. S. 
 Jakobovits, A. Lazzaro, H. Pabst, T. Müller, R. Schade, M. Guidon, S. 
 Andermatt, N. Holmberg, G. K. Schenter, A. Hehn, A. Bussy, F. Belleflamme, G. 
 Tabacchi, A. Glöß, M. Lass, I. Bethune, C. J. Mundy, C. Plessl, M. Watkins, 
 J. VandeVondele, M. Krack, J. Hutter.
 J. Chem. Phys. 152, 194103 (2020).
 CP2K: An electronic structure and molecular dynamics software package - 
 Quickstep: Efficient and accurate electronic structure calculations.
 https://doi.org/10.1063/5.0007045

 P. Pracht, E. Caldeweyher, S. Ehlert, S. Grimme.
 ChemRxiv, (2019).
 A Robust Non-Self-Consistent Tight-Binding Quantum Chemistry Method for large 
 Molecules.
 https://doi.org/10.26434/chemrxiv.8326202.v1

 A. Togo, I. Tanaka.
 arXiv, 1808.01590 (2018).
 Spglib : a software library for crystal symmetry search.

 S. Grimme, C. Bannwarth, P. Shushkov.
 J. Chem. Theory Comput. 13, 1989 (2017).
 A Robust and Accurate Tight-Binding Quantum Chemical Method for Structures, 
 Vibrational Frequencies, and Noncovalent Interactions of Large Molecular 
 Systems Parametrized for All spd-Block Elements (Z = 1-86).
 https://doi.org/10.1021/acs.jctc.7b00118

 O. Schuett, P. Messmer, J. Hutter, J. VandeVondele.
 Electronic Structure Calculations on Graphics Processing Units, 173-190 (2016).
 GPU-Accelerated Sparse Matrix-Matrix Multiplication for Linear Scaling Density 
 Functional Theory.
 https://doi.org/10.1002/9781118670712.ch8

 U. Borstnik, J. VandeVondele, V. Weber, J. Hutter.
 Parallel Comput. 40, 47-58 (2014).
 Sparse matrix multiplication: The distributed block-compressed sparse row 
 library.
 https://doi.org/10.1016/j.parco.2014.03.012

 T. D. Kühne, M. Krack, F. R. Mohamed, M. Parrinello.
 Phys. Rev. Lett. 98, 066401 (2007).
 Efficient and accurate Car-Parrinello-like approach to Born-Oppenheimer 
 molecular dynamics.
 https://doi.org/10.1103/PhysRevLett.98.066401

 M. Frigo, S. G. Johnson.
 Proc. IEEE 93, 216-231 (2005).
 The design and implementation of FFTW3.
 https://doi.org/10.1109/JPROC.2004.840301

 J. Kolafa.
 J. Comput. Chem. 25, 335-342 (2004).
 Time-reversible always stable predictor-corrector method for molecular dynamics 
 of polarizable molecules.
 https://doi.org/10.1002/jcc.10385

 C.-L. Fu, K.-M. Ho.
 Phys. Rev. B 28, 5480-5486 (1983).
 First-principles calculation of the equilibrium ground-state properties of 
 transition metals: Applications to Nb and Mo.
 https://doi.org/10.1103/PhysRevB.28.5480


 -------------------------------------------------------------------------------
 -                                                                             -
 -                                T I M I N G                                  -
 -                                                                             -
 -------------------------------------------------------------------------------
 SUBROUTINE                       CALLS  ASD         SELF TIME        TOTAL TIME
                                MAXIMUM       AVERAGE  MAXIMUM  AVERAGE  MAXIMUM
 CP2K                                 1  1.0    0.025    0.025 1335.934 1335.934
 qs_energies                         23  2.1    0.015    0.015 1201.763 1201.763
 scf_env_do_scf                      23  3.1    0.001    0.001 1179.399 1179.399
 scf_env_do_scf_inner_loop          248  4.0   27.548   27.548 1179.398 1179.398
 rebuild_ks_matrix                  271  5.9    0.001    0.001 1163.353 1163.353
 build_tblite_ks_matrix             271  6.9 1117.875 1117.875 1163.352 1163.352
 qs_ks_update_qs_env                269  4.9    0.002    0.002 1030.805 1030.805
 qs_forces                            2  2.0    0.000    0.000  188.842  188.842
 qs_ks_update_qs_env_forces           2  3.0    0.000    0.000  133.111  133.111
 rskp_transform                  178418  6.6  125.100  125.100  125.100  125.100
 qs_scf_new_mos_kp                  248  5.0    0.002    0.002   85.045   85.045
 do_general_diag_kp                 248  6.0    0.719    0.719   85.043   85.043
 kpoint_density_transform           253  7.0    0.129    0.129   27.644   27.644
 -------------------------------------------------------------------------------

 The number of warnings for this run is : 1
 
 -------------------------------------------------------------------------------
  **** **** ******  **  PROGRAM ENDED AT                 2026-07-22 20:46:06.483
 ***** ** ***  *** **   PROGRAM RAN ON                                     terok
 **    ****   ******    PROGRAM RAN BY                                  kuehne88
 ***** **    ** ** **   PROGRAM PROCESS ID                                 57430
  **** **  *******  **  PROGRAM STOPPED IN /home/kuehne88/work/gxtb-expanded-der
                                           ivatives-20260722/results/ch4_k666_sp
                                           glib_fd
