 DBCSR| CPU Multiplication driver                                           XSMM (U)
 DBCSR| Multrec recursion limit                                              512 (U)
 DBCSR| Multiplication stack size                                           1000 (D)
 DBCSR| Maximum elements for images                                    UNLIMITED (U)
 DBCSR| Multiplicative factor virtual images                                   1 (U)
 DBCSR| Use multiplication densification                                       T (D)
 DBCSR| Multiplication size stacks                                             3 (U)
 DBCSR| Use memory pool for CPU allocation                                     F (U)
 DBCSR| Number of 3D layers                                               SINGLE (U)
 DBCSR| Use MPI memory allocation                                              F (U)
 DBCSR| Use RMA algorithm                                                      F (U)
 DBCSR| Use Communication thread                                               T (U)
 DBCSR| Communication thread load                                             87 (D)
 DBCSR| MPI: My process id                                                     0
 DBCSR| MPI: Number of processes                                               1
 DBCSR| OMP: Current number of threads                                         1
 DBCSR| OMP: Max number of threads                                             1
 DBCSR| Split modifier for TAS multiplication algorithm                  1.0E+00 (U)


  **** **** ******  **  PROGRAM STARTED AT               2026-05-23 22:46:50.975
 ***** ** ***  *** **   PROGRAM STARTED ON                            spark-c86c
 **    ****   ******    PROGRAM STARTED BY                              kuehne88
 ***** **    ** ** **   PROGRAM PROCESS ID                               2264700
  **** **  *******  **  PROGRAM STARTED IN /home/kuehne88/periodic-gfn2-benchmar
                                           ks/X23b/runs/cellopt_gamma/GFN1/cyana
                                           mide_GFN1_gamma_cellopt

 CP2K| version string:                 CP2K version 2026.1 (Development Version)
 CP2K| source code revision number:                                   0622d442e4
 CP2K| cp2kflags: omp fftw3 libxc parallel scalapack mpi_f08 xsmm spglib libdftd
 CP2K|            4 dftd4_v3 mctc-lib tblite
 CP2K| is freely available from                            https://www.cp2k.org/
 CP2K| Program compiled at                                   2026-05-23 22:05:08
 CP2K| Program compiled on                                            spark-c86c
 CP2K| Program compiled for                                              aarch64
 CP2K| Data directory path    /home/kuehne88/cp2k-master-tblite-20260523/install
 CP2K| Input file name                          cyanamide_GFN1_gamma_cellopt.inp

 GLOBAL| Force Environment number                                              1
 GLOBAL| Basis set file name                                           BASIS_SET
 GLOBAL| Potential file name                                           POTENTIAL
 GLOBAL| MM Potential file name                                     MM_POTENTIAL
 GLOBAL| Coordinate file name                                      __STD_INPUT__
 GLOBAL| Method name                                                        CP2K
 GLOBAL| Project name                              cyanamide_GFN1_gamma_cell_opt
 GLOBAL| Run type                                                       CELL_OPT
 GLOBAL| FFT library                                                       FFTW3
 GLOBAL| Diagonalization library                                       ScaLAPACK
 GLOBAL| Cholesky decomposition library                                ScaLAPACK
 GLOBAL| DGEMM library                                                      BLAS
 GLOBAL| Direct generalized diagonalization requested                          F
 GLOBAL| Orthonormality check for eigenvectors                          DISABLED
 GLOBAL| Matrix multiplication library                                 ScaLAPACK
 GLOBAL| All-to-all communication in single precision                          F
 GLOBAL| FFTs using library dependent lengths                                  F
 GLOBAL| Grid backend                                                       AUTO
 GLOBAL| Global print level                                                  LOW
 GLOBAL| MPI I/O enabled                                                       T
 GLOBAL| Total number of message passing processes                             1
 GLOBAL| Number of distributed systems (nodes)                                 1
 GLOBAL| Number of threads for this process                                    1
 GLOBAL| This output is from process                                           0
 GLOBAL| OpenMP stack size per thread (OMP_STACKSIZE)                    default
 GLOBAL| CPU model name                                                  UNKNOWN
 GLOBAL| CPUID                                                              2200
 GLOBAL| Compiled for CPUID                                                 2000

 *** HINT in environment.F:970 :: The compiler target flags (arm_arch64)   ***
 *** used to build this binary cannot exploit all extensions of this CPU   ***
 *** model (arm_sve256). Consider compiler target flags as part of FCFLAGS ***
 *** and CFLAGS (ARCH file).                                               ***


 MEMORY| system memory details [Kb]
 MEMORY|                        rank 0           min           max       average
 MEMORY| MemTotal            125508532     125508532     125508532     125508532
 MEMORY| MemFree             101775396     101775396     101775396     101775396
 MEMORY| Buffers                867412        867412        867412        867412
 MEMORY| Cached               13931256      13931256      13931256      13931256
 MEMORY| Slab                  1588804       1588804       1588804       1588804
 MEMORY| SReclaimable           910644        910644        910644        910644
 MEMORY| MemLikelyFree       117484708     117484708     117484708     117484708


 GENERATE|  Preliminary Number of Bonds generated:                             0
 GENERATE|  Achieved consistency in connectivity generation.


                  #####   #####        #     #   #     #       #          
                 #     # #     #      #    ##### #     #   # #####  ####  
                 #     # #           #       #   ###   #       #   #    # 
                 #     #  #####     #        #   #  #  #   #   #   ###### 
                 #   # #       #   #         #   #   # #   #   #   #      
                 #    #  #     #  #          #   #  #  # # #   #    #   # 
                  #### #  #####  #           #   ###   ##  #   #     ###  

                                   GFN1-xTB  
                                 Version 0.0                       
                            Johann V. Pototschnig                  



 TOTAL NUMBERS AND MAXIMUM NUMBERS

  Total number of            - Atomic kinds:                                   3
                             - Atoms:                                         40
                             - Shell sets:                                    80
                             - Shells:                                        80
                             - Primitive Cartesian functions:                464
                             - Cartesian basis functions:                    128
                             - Spherical basis functions:                    128

  Maximum angular momentum of the orbital basis functions:                     1


 SCF PARAMETERS         Density guess:                                     MOPAC
                        --------------------------------------------------------
                        max_scf:                                             300
                        max_scf_history:                                       0
                        max_diis:                                              4
                        --------------------------------------------------------
                        eps_scf:                                        1.00E-09
                        eps_scf_history:                                0.00E+00
                        eps_diis:                                       1.00E-01
                        eps_eigval:                                     1.00E-05
                        --------------------------------------------------------
                        level_shift [a.u.]:                             0.000000
                        added MOs                                        64    0
                        --------------------------------------------------------
                        Mixing method:                           DIRECT_P_MIXING
                        --------------------------------------------------------
                        Smear method:                                FERMI_DIRAC
                        Electronic temperature [K]:                        300.0
                        Electronic temperature [a.u.]:                  9.50E-04
                        Accuracy threshold:                             1.00E-06
                        --------------------------------------------------------
                        No outer SCF

 CELL_OPT| Pressure tolerance [bar]:                                       100.0
 CELL_OPT| Keep volume of cell:                                               NO
 CELL_OPT| Keep angles between the cell vectors:                              NO
 CELL_OPT| Keep cell symmetry:                                                NO
 CELL_OPT| Constraint:                                                      NONE

 BFGS| Use rational function optimization for step estimation:                NO
 BFGS| Use model Hessian for initial guess:                                   NO
 BFGS| Restart Hessian:                                                       NO
 BFGS| Trust radius:                                                       0.472

 *******************************************************************************
 ***                     STARTING   CELL   OPTIMIZATION                      ***
 ***                                   BFGS                                  ***
 *******************************************************************************

 CELL| Volume [angstrom^3]:                                           415.654022
 CELL| Vector a [angstrom]:       6.856     0.000     0.000   |a| =     6.856000
 CELL| Vector b [angstrom]:       0.000     6.628     0.000   |b| =     6.628000
 CELL| Vector c [angstrom]:       0.000     0.000     9.147   |c| =     9.147000
 CELL| Angle (b,c), alpha [degree]:                                    90.000000
 CELL| Angle (a,c), beta  [degree]:                                    90.000000
 CELL| Angle (a,b), gamma [degree]:                                    90.000000
 CELL| Numerically orthorhombic:                                             YES
 CELL| Periodicity                                                           XYZ

 Extrapolation method: initial_guess

 Number of electrons:                                                        128
 Number of occupied orbitals:                                                 64
 Number of molecular orbitals:                                               128

 Number of orbital functions:                                                128
 Number of independent orbital functions:                                    128


 SCF WAVEFUNCTION OPTIMIZATION

  Step     Update method      Time    Convergence         Total energy    Change
  ------------------------------------------------------------------------------
     1 TBLite/Diag 0.40E+00    0.0     1.49262607       -75.0374247017 -7.50E+01
     2 TBLite/Diag 0.40E+00    0.0     0.43782010       -76.1305041952 -1.09E+00
     3 TBLite/Diag 0.40E+00    0.0     0.19724753       -76.2806146563 -1.50E-01
     4 TBLite/Diag 0.40E+00    0.0     0.09642859       -76.3231566536 -4.25E-02
     5 TBLite/Diag 0.40E+00    0.0     0.03857718       -76.3301562524 -7.00E-03
     6 TBLite/Diag 0.40E+00    0.0     0.01273397       -76.3316283872 -1.47E-03
     7 TBLite/Diag 0.40E+00    0.0     0.00184984       -76.3316653392 -3.70E-05
     8 TBLite/Diag 0.40E+00    0.0     0.00002244       -76.3316653249  1.44E-08
     9 TBLite/Diag 0.40E+00    0.0     0.00003919       -76.3316653455 -2.07E-08
    10 TBLite/Diag 0.40E+00    0.0     0.00000413       -76.3316653457 -1.78E-10
    11 TBLite/Diag 0.40E+00    0.0     0.00000017       -76.3316653457 -1.85E-13
    12 TBLite/Diag 0.40E+00    0.0     1.0595E-09       -76.3316653457 -9.95E-14
    13 TBLite/Diag 0.40E+00    0.0     3.5567E-10       -76.3316653457  9.95E-14

  *** SCF run converged in    13 steps ***


  Core Hamiltonian energy:                                    -78.28350002199483
  Repulsive potential energy:                                   1.80232046876630
  Electrostatic energy:                                         0.22628127440034
  Self-consistent dispersion energy:                            0.00000000000000
  Non-self consistent dispersion energy:                       -0.07676706686812
  Correction for halogen bonding:                               0.00000000000000
  Electronic entropic energy:                                  -0.00000000000000
  Fermi energy:                                                -0.26153411941784

  Total energy:                                               -76.33166534569629
  Total energy (extrapolated to T->0):                        -76.33166534569629

 ENERGY| Total FORCE_EVAL ( QS ) energy [hartree]            -76.331665345696294

 OPT| **************************************************************************
 OPT| Step number                                                              0
 OPT| Optimization method                                                   BFGS
 OPT| Total energy [hartree]                                      -76.3316653457
 OPT| Internal pressure [bar]                                  139670.1224364585
 OPT| Used time [s]                                                        0.538
 OPT| **************************************************************************
 OPT| Estimated peak process memory [MiB]                                    169

 --------------------------
 OPTIMIZATION STEP:      1
 --------------------------

 CELL| Volume [angstrom^3]:                                           424.585845
 CELL| Vector a [angstrom]:       6.910     0.000     0.000   |a| =     6.910082
 CELL| Vector b [angstrom]:       0.000     6.691     0.000   |b| =     6.691047
 CELL| Vector c [angstrom]:      -0.000    -0.000     9.183   |c| =     9.183077
 CELL| Angle (b,c), alpha [degree]:                                    90.000000
 CELL| Angle (a,c), beta  [degree]:                                    90.000000
 CELL| Angle (a,b), gamma [degree]:                                    90.000000
 CELL| Numerically orthorhombic:                                              NO
 CELL| Periodicity                                                           XYZ

 Extrapolation method: ASPC

 Number of electrons:                                                        128
 Number of occupied orbitals:                                                 64
 Number of molecular orbitals:                                               128

 Number of orbital functions:                                                128
 Number of independent orbital functions:                                    128


 SCF WAVEFUNCTION OPTIMIZATION

  Step     Update method      Time    Convergence         Total energy    Change
  ------------------------------------------------------------------------------
     1 TBLite/Diag 0.40E+00    0.0     0.12904040       -76.5094652264 -7.65E+01
     2 TBLite/Diag 0.40E+00    0.0     0.06569309       -76.5244481743 -1.50E-02
     3 TBLite/Diag 0.40E+00    0.0     0.02276073       -76.5290054670 -4.56E-03
     4 TBLite/Diag 0.40E+00    0.0     0.00331363       -76.5290841185 -7.87E-05
     5 TBLite/Diag 0.40E+00    0.0     0.00076921       -76.5290879820 -3.86E-06
     6 TBLite/Diag 0.40E+00    0.0     0.00010095       -76.5290881009 -1.19E-07
     7 TBLite/Diag 0.40E+00    0.0     0.00000227       -76.5290881011 -1.81E-10
     8 TBLite/Diag 0.40E+00    0.0     0.00000067       -76.5290881011 -3.48E-12
     9 TBLite/Diag 0.40E+00    0.0     0.00000010       -76.5290881011  4.26E-14
    10 TBLite/Diag 0.40E+00    0.0     0.00000001       -76.5290881011  2.27E-13
    11 TBLite/Diag 0.40E+00    0.0     1.4016E-09       -76.5290881011 -2.70E-13
    12 TBLite/Diag 0.40E+00    0.0     2.7403E-10       -76.5290881011  1.42E-13

  *** SCF run converged in    12 steps ***


  Core Hamiltonian energy:                                    -78.04360811054966
  Repulsive potential energy:                                   1.33615047213901
  Electrostatic energy:                                         0.25349047786285
  Self-consistent dispersion energy:                            0.00000000000000
  Non-self consistent dispersion energy:                       -0.07512094052167
  Correction for halogen bonding:                               0.00000000000000
  Electronic entropic energy:                                  -0.00000000000000
  Fermi energy:                                                -0.26713346276762

  Total energy:                                               -76.52908810106946
  Total energy (extrapolated to T->0):                        -76.52908810106946

 ENERGY| Total FORCE_EVAL ( QS ) energy [hartree]            -76.529088101069462

 OPT| **************************************************************************
 OPT| Step number                                                              1
 OPT| Optimization method                                                   BFGS
 OPT| Total energy [hartree]                                      -76.5290881011
 OPT| Internal pressure [bar]                                   16304.2014534036
 OPT| Effective energy change [hartree]                            -0.1974227554
 OPT| Predicted energy change [hartree]                            -0.3166464254
 OPT| Scaling factor                                                0.0000000000
 OPT| Step size                                                     0.1353637610
 OPT| Trust radius                                                  0.4724315332
 OPT| Decrease in energy                                                     YES
 OPT| Used time [s]                                                        0.537
 OPT|
 OPT| Maximum step size                                             0.1353637610
 OPT| Convergence limit for maximum step size                       0.0030000000
 OPT| Maximum step size is converged                                          NO
 OPT|
 OPT| RMS step size                                                 0.0708952307
 OPT| Convergence limit for RMS step size                           0.0015000000
 OPT| RMS step size is converged                                              NO
 OPT|
 OPT| Maximum gradient                                              0.0825510978
 OPT| Convergence limit for maximum gradient                        0.0004500000
 OPT| Maximum gradient is converged                                           NO
 OPT|
 OPT| RMS gradient                                                  0.0348716338
 OPT| Convergence limit for RMS gradient                            0.0003000000
 OPT| RMS gradient is converged                                               NO
 OPT|
 OPT| Pressure deviation [bar]                                  16304.2014534036
 OPT| Pressure tolerance [bar]                                    100.0000000000
 OPT| Pressure is converged                                                   NO
 OPT| **************************************************************************
 OPT| Estimated peak process memory after this step [MiB]                    171

 --------------------------
 OPTIMIZATION STEP:      2
 --------------------------

 CELL| Volume [angstrom^3]:                                           426.158808
 CELL| Vector a [angstrom]:       6.912     0.000     0.000   |a| =     6.911689
 CELL| Vector b [angstrom]:       0.000     6.699     0.000   |b| =     6.699025
 CELL| Vector c [angstrom]:       0.000    -0.000     9.204   |c| =     9.203980
 CELL| Angle (b,c), alpha [degree]:                                    90.000000
 CELL| Angle (a,c), beta  [degree]:                                    90.000000
 CELL| Angle (a,b), gamma [degree]:                                    90.000000
 CELL| Numerically orthorhombic:                                              NO
 CELL| Periodicity                                                           XYZ

 Extrapolation method: ASPC

 Number of electrons:                                                        128
 Number of occupied orbitals:                                                 64
 Number of molecular orbitals:                                               128

 Number of orbital functions:                                                128
 Number of independent orbital functions:                                    128


 SCF WAVEFUNCTION OPTIMIZATION

  Step     Update method      Time    Convergence         Total energy    Change
  ------------------------------------------------------------------------------
     1 TBLite/Diag 0.40E+00    0.0     0.09503666       -76.5417628540 -7.65E+01
     2 TBLite/Diag 0.40E+00    0.0     0.04896105       -76.5535751597 -1.18E-02
     3 TBLite/Diag 0.40E+00    0.0     0.01288827       -76.5554957635 -1.92E-03
     4 TBLite/Diag 0.40E+00    0.0     0.00219363       -76.5555097718 -1.40E-05
     5 TBLite/Diag 0.40E+00    0.0     0.00052806       -76.5555161498 -6.38E-06
     6 TBLite/Diag 0.40E+00    0.0     0.00012084       -76.5555163211 -1.71E-07
     7 TBLite/Diag 0.40E+00    0.0     0.00000709       -76.5555163223 -1.16E-09
     8 TBLite/Diag 0.40E+00    0.0     0.00000042       -76.5555163223 -2.07E-12
     9 TBLite/Diag 0.40E+00    0.0     0.00000012       -76.5555163223 -3.55E-13
    10 TBLite/Diag 0.40E+00    0.0     5.4582E-10       -76.5555163223  3.13E-13

  *** SCF run converged in    10 steps ***


  Core Hamiltonian energy:                                    -78.12443724850100
  Repulsive potential energy:                                   1.41086157384720
  Electrostatic energy:                                         0.23290632355719
  Self-consistent dispersion energy:                            0.00000000000000
  Non-self consistent dispersion energy:                       -0.07484697119543
  Correction for halogen bonding:                               0.00000000000000
  Electronic entropic energy:                                  -0.00000000000000
  Fermi energy:                                                -0.25729646165698

  Total energy:                                               -76.55551632229204
  Total energy (extrapolated to T->0):                        -76.55551632229204

 ENERGY| Total FORCE_EVAL ( QS ) energy [hartree]            -76.555516322292036

 OPT| **************************************************************************
 OPT| Step number                                                              2
 OPT| Optimization method                                                   BFGS
 OPT| Total energy [hartree]                                      -76.5555163223
 OPT| Internal pressure [bar]                                   21055.1479462328
 OPT| Effective energy change [hartree]                            -0.0264282212
 OPT| Predicted energy change [hartree]                            -0.0537863137
 OPT| Scaling factor                                                0.0000000000
 OPT| Step size                                                     0.0662882159
 OPT| Trust radius                                                  0.4724315332
 OPT| Decrease in energy                                                     YES
 OPT| Used time [s]                                                        0.525
 OPT|
 OPT| Maximum step size                                             0.0662882159
 OPT| Convergence limit for maximum step size                       0.0030000000
 OPT| Maximum step size is converged                                          NO
 OPT|
 OPT| RMS step size                                                 0.0258453420
 OPT| Convergence limit for RMS step size                           0.0015000000
 OPT| RMS step size is converged                                              NO
 OPT|
 OPT| Maximum gradient                                              0.0816277440
 OPT| Convergence limit for maximum gradient                        0.0004500000
 OPT| Maximum gradient is converged                                           NO
 OPT|
 OPT| RMS gradient                                                  0.0311520393
 OPT| Convergence limit for RMS gradient                            0.0003000000
 OPT| RMS gradient is converged                                               NO
 OPT|
 OPT| Pressure deviation [bar]                                  21055.1479462328
 OPT| Pressure tolerance [bar]                                    100.0000000000
 OPT| Pressure is converged                                                   NO
 OPT| **************************************************************************
 OPT| Estimated peak process memory after this step [MiB]                    172

 --------------------------
 OPTIMIZATION STEP:      3
 --------------------------

 CELL| Volume [angstrom^3]:                                           426.851691
 CELL| Vector a [angstrom]:       6.907     0.000     0.000   |a| =     6.906535
 CELL| Vector b [angstrom]:       0.000     6.699     0.000   |b| =     6.699184
 CELL| Vector c [angstrom]:       0.000    -0.000     9.226   |c| =     9.225606
 CELL| Angle (b,c), alpha [degree]:                                    90.000000
 CELL| Angle (a,c), beta  [degree]:                                    90.000000
 CELL| Angle (a,b), gamma [degree]:                                    90.000000
 CELL| Numerically orthorhombic:                                              NO
 CELL| Periodicity                                                           XYZ

 Extrapolation method: ASPC

 Number of electrons:                                                        128
 Number of occupied orbitals:                                                 64
 Number of molecular orbitals:                                               128

 Number of orbital functions:                                                128
 Number of independent orbital functions:                                    128


 SCF WAVEFUNCTION OPTIMIZATION

  Step     Update method      Time    Convergence         Total energy    Change
  ------------------------------------------------------------------------------
     1 TBLite/Diag 0.40E+00    0.0     0.09157035       -76.5711904309 -7.66E+01
     2 TBLite/Diag 0.40E+00    0.0     0.01382314       -76.5725212449 -1.33E-03
     3 TBLite/Diag 0.40E+00    0.0     0.00676445       -76.5728074616 -2.86E-04
     4 TBLite/Diag 0.40E+00    0.0     0.00134064       -76.5728299222 -2.25E-05
     5 TBLite/Diag 0.40E+00    0.0     0.00014315       -76.5728300266 -1.04E-07
     6 TBLite/Diag 0.40E+00    0.0     0.00005987       -76.5728300684 -4.18E-08
     7 TBLite/Diag 0.40E+00    0.0     0.00000130       -76.5728300684 -2.44E-11
     8 TBLite/Diag 0.40E+00    0.0     0.00000060       -76.5728300684 -2.16E-12
     9 TBLite/Diag 0.40E+00    0.0     0.00000002       -76.5728300684 -1.99E-13
    10 TBLite/Diag 0.40E+00    0.0     0.00000001       -76.5728300684  2.84E-14
    11 TBLite/Diag 0.40E+00    0.0     4.6623E-09       -76.5728300684 -9.95E-14
    12 TBLite/Diag 0.40E+00    0.0     9.5077E-12       -76.5728300684 -9.95E-14

  *** SCF run converged in    12 steps ***


  Core Hamiltonian energy:                                    -77.90915081002925
  Repulsive potential energy:                                   1.17865041747734
  Electrostatic energy:                                         0.23238702743198
  Self-consistent dispersion energy:                            0.00000000000000
  Non-self consistent dispersion energy:                       -0.07471670326738
  Correction for halogen bonding:                               0.00000000000000
  Electronic entropic energy:                                  -0.00000000000000
  Fermi energy:                                                -0.27529238741055

  Total energy:                                               -76.57283006838729
  Total energy (extrapolated to T->0):                        -76.57283006838729

 ENERGY| Total FORCE_EVAL ( QS ) energy [hartree]            -76.572830068387290

 OPT| **************************************************************************
 OPT| Step number                                                              3
 OPT| Optimization method                                                   BFGS
 OPT| Total energy [hartree]                                      -76.5728300684
 OPT| Internal pressure [bar]                                  -43194.4161922046
 OPT| Effective energy change [hartree]                            -0.0173137461
 OPT| Predicted energy change [hartree]                            -0.0313756360
 OPT| Scaling factor                                                0.0000000000
 OPT| Step size                                                     0.0491590447
 OPT| Trust radius                                                  0.4724315332
 OPT| Decrease in energy                                                     YES
 OPT| Used time [s]                                                        0.542
 OPT|
 OPT| Maximum step size                                             0.0491590447
 OPT| Convergence limit for maximum step size                       0.0030000000
 OPT| Maximum step size is converged                                          NO
 OPT|
 OPT| RMS step size                                                 0.0193257960
 OPT| Convergence limit for RMS step size                           0.0015000000
 OPT| RMS step size is converged                                              NO
 OPT|
 OPT| Maximum gradient                                              0.0600835359
 OPT| Convergence limit for maximum gradient                        0.0004500000
 OPT| Maximum gradient is converged                                           NO
 OPT|
 OPT| RMS gradient                                                  0.0114822936
 OPT| Convergence limit for RMS gradient                            0.0003000000
 OPT| RMS gradient is converged                                               NO
 OPT|
 OPT| Pressure deviation [bar]                                 -43194.4161922046
 OPT| Pressure tolerance [bar]                                    100.0000000000
 OPT| Pressure is converged                                                   NO
 OPT| **************************************************************************
 OPT| Estimated peak process memory after this step [MiB]                    172

 --------------------------
 OPTIMIZATION STEP:      4
 --------------------------

 CELL| Volume [angstrom^3]:                                           425.233445
 CELL| Vector a [angstrom]:       6.906     0.000     0.000   |a| =     6.906495
 CELL| Vector b [angstrom]:       0.000     6.691     0.000   |b| =     6.691346
 CELL| Vector c [angstrom]:       0.000    -0.000     9.201   |c| =     9.201450
 CELL| Angle (b,c), alpha [degree]:                                    90.000000
 CELL| Angle (a,c), beta  [degree]:                                    90.000000
 CELL| Angle (a,b), gamma [degree]:                                    90.000000
 CELL| Numerically orthorhombic:                                              NO
 CELL| Periodicity                                                           XYZ

 Extrapolation method: ASPC

 Number of electrons:                                                        128
 Number of occupied orbitals:                                                 64
 Number of molecular orbitals:                                               128

 Number of orbital functions:                                                128
 Number of independent orbital functions:                                    128


 SCF WAVEFUNCTION OPTIMIZATION

  Step     Update method      Time    Convergence         Total energy    Change
  ------------------------------------------------------------------------------
     1 TBLite/Diag 0.40E+00    0.0     0.02392644       -76.5786766150 -7.66E+01
     2 TBLite/Diag 0.40E+00    0.0     0.01026927       -76.5789942402 -3.18E-04
     3 TBLite/Diag 0.40E+00    0.0     0.00397566       -76.5791524308 -1.58E-04
     4 TBLite/Diag 0.40E+00    0.0     0.00023671       -76.5791530519 -6.21E-07
     5 TBLite/Diag 0.40E+00    0.0     0.00001199       -76.5791530532 -1.27E-09
     6 TBLite/Diag 0.40E+00    0.0     0.00000357       -76.5791530534 -1.71E-10
     7 TBLite/Diag 0.40E+00    0.0     0.00000042       -76.5791530534 -9.81E-13
     8 TBLite/Diag 0.40E+00    0.0     0.00000004       -76.5791530534  1.42E-14
     9 TBLite/Diag 0.40E+00    0.0     4.2212E-09       -76.5791530534 -9.95E-14
    10 TBLite/Diag 0.40E+00    0.0     3.5374E-09       -76.5791530534 -1.28E-13
    11 TBLite/Diag 0.40E+00    0.0     1.6821E-09       -76.5791530534 -9.95E-14
    12 TBLite/Diag 0.40E+00    0.0     3.3085E-14       -76.5791530534  1.42E-14

  *** SCF run converged in    12 steps ***


  Core Hamiltonian energy:                                    -77.98359686031110
  Repulsive potential energy:                                   1.24474021248044
  Electrostatic energy:                                         0.23470986002292
  Self-consistent dispersion energy:                            0.00000000000000
  Non-self consistent dispersion energy:                       -0.07500626554687
  Correction for halogen bonding:                               0.00000000000000
  Electronic entropic energy:                                  -0.00000000000000
  Fermi energy:                                                -0.26999804583628

  Total energy:                                               -76.57915305335462
  Total energy (extrapolated to T->0):                        -76.57915305335462

 ENERGY| Total FORCE_EVAL ( QS ) energy [hartree]            -76.579153053354617

 OPT| **************************************************************************
 OPT| Step number                                                              4
 OPT| Optimization method                                                   BFGS
 OPT| Total energy [hartree]                                      -76.5791530534
 OPT| Internal pressure [bar]                                  -21650.5497803308
 OPT| Effective energy change [hartree]                            -0.0063229850
 OPT| Predicted energy change [hartree]                            -0.0051515701
 OPT| Scaling factor                                                0.0000000000
 OPT| Step size                                                     0.0456485119
 OPT| Trust radius                                                  0.4724315332
 OPT| Decrease in energy                                                     YES
 OPT| Used time [s]                                                        0.544
 OPT|
 OPT| Maximum step size                                             0.0456485119
 OPT| Convergence limit for maximum step size                       0.0030000000
 OPT| Maximum step size is converged                                          NO
 OPT|
 OPT| RMS step size                                                 0.0079024353
 OPT| Convergence limit for RMS step size                           0.0015000000
 OPT| RMS step size is converged                                              NO
 OPT|
 OPT| Maximum gradient                                              0.0258533120
 OPT| Convergence limit for maximum gradient                        0.0004500000
 OPT| Maximum gradient is converged                                           NO
 OPT|
 OPT| RMS gradient                                                  0.0033971413
 OPT| Convergence limit for RMS gradient                            0.0003000000
 OPT| RMS gradient is converged                                               NO
 OPT|
 OPT| Pressure deviation [bar]                                 -21650.5497803308
 OPT| Pressure tolerance [bar]                                    100.0000000000
 OPT| Pressure is converged                                                   NO
 OPT| **************************************************************************
 OPT| Estimated peak process memory after this step [MiB]                    172

 --------------------------
 OPTIMIZATION STEP:      5
 --------------------------

 CELL| Volume [angstrom^3]:                                           423.715092
 CELL| Vector a [angstrom]:       6.905     0.000     0.000   |a| =     6.904776
 CELL| Vector b [angstrom]:      -0.000     6.683     0.000   |b| =     6.682634
 CELL| Vector c [angstrom]:      -0.000     0.000     9.183   |c| =     9.182833
 CELL| Angle (b,c), alpha [degree]:                                    90.000000
 CELL| Angle (a,c), beta  [degree]:                                    90.000000
 CELL| Angle (a,b), gamma [degree]:                                    90.000000
 CELL| Numerically orthorhombic:                                              NO
 CELL| Periodicity                                                           XYZ

 Extrapolation method: ASPC

 Number of electrons:                                                        128
 Number of occupied orbitals:                                                 64
 Number of molecular orbitals:                                               128

 Number of orbital functions:                                                128
 Number of independent orbital functions:                                    128


 SCF WAVEFUNCTION OPTIMIZATION

  Step     Update method      Time    Convergence         Total energy    Change
  ------------------------------------------------------------------------------
     1 TBLite/Diag 0.40E+00    0.0     0.00699966       -76.5806519892 -7.66E+01
     2 TBLite/Diag 0.40E+00    0.0     0.00284754       -76.5806762575 -2.43E-05
     3 TBLite/Diag 0.40E+00    0.0     0.00109067       -76.5806875581 -1.13E-05
     4 TBLite/Diag 0.40E+00    0.0     0.00010827       -76.5806876641 -1.06E-07
     5 TBLite/Diag 0.40E+00    0.0     0.00000544       -76.5806876646 -5.52E-10
     6 TBLite/Diag 0.40E+00    0.0     0.00000405       -76.5806876647 -9.18E-11
     7 TBLite/Diag 0.40E+00    0.0     0.00000004       -76.5806876647  1.71E-13
     8 TBLite/Diag 0.40E+00    0.0     0.00000003       -76.5806876647 -3.69E-13
     9 TBLite/Diag 0.40E+00    0.0     2.2857E-09       -76.5806876647  4.12E-13
    10 TBLite/Diag 0.40E+00    0.0     1.5462E-09       -76.5806876647  2.84E-14
    11 TBLite/Diag 0.40E+00    0.0     1.3451E-11       -76.5806876647  1.56E-13

  *** SCF run converged in    11 steps ***


  Core Hamiltonian energy:                                    -78.00652275388222
  Repulsive potential energy:                                   1.26592411635540
  Electrostatic energy:                                         0.23518949233434
  Self-consistent dispersion energy:                            0.00000000000000
  Non-self consistent dispersion energy:                       -0.07527851950469
  Correction for halogen bonding:                               0.00000000000000
  Electronic entropic energy:                                  -0.00000000000000
  Fermi energy:                                                -0.26848971929121

  Total energy:                                               -76.58068766469717
  Total energy (extrapolated to T->0):                        -76.58068766469717

 ENERGY| Total FORCE_EVAL ( QS ) energy [hartree]            -76.580687664697166

 OPT| **************************************************************************
 OPT| Step number                                                              5
 OPT| Optimization method                                                   BFGS
 OPT| Total energy [hartree]                                      -76.5806876647
 OPT| Internal pressure [bar]                                  -14405.6466326965
 OPT| Effective energy change [hartree]                            -0.0015346113
 OPT| Predicted energy change [hartree]                            -0.0009406512
 OPT| Scaling factor                                                0.0000000000
 OPT| Step size                                                     0.0351812106
 OPT| Trust radius                                                  0.4724315332
 OPT| Decrease in energy                                                     YES
 OPT| Used time [s]                                                        0.544
 OPT|
 OPT| Maximum step size                                             0.0351812106
 OPT| Convergence limit for maximum step size                       0.0030000000
 OPT| Maximum step size is converged                                          NO
 OPT|
 OPT| RMS step size                                                 0.0045036163
 OPT| Convergence limit for RMS step size                           0.0015000000
 OPT| RMS step size is converged                                              NO
 OPT|
 OPT| Maximum gradient                                              0.0148910841
 OPT| Convergence limit for maximum gradient                        0.0004500000
 OPT| Maximum gradient is converged                                           NO
 OPT|
 OPT| RMS gradient                                                  0.0028402633
 OPT| Convergence limit for RMS gradient                            0.0003000000
 OPT| RMS gradient is converged                                               NO
 OPT|
 OPT| Pressure deviation [bar]                                 -14405.6466326965
 OPT| Pressure tolerance [bar]                                    100.0000000000
 OPT| Pressure is converged                                                   NO
 OPT| **************************************************************************
 OPT| Estimated peak process memory after this step [MiB]                    172

 --------------------------
 OPTIMIZATION STEP:      6
 --------------------------

 CELL| Volume [angstrom^3]:                                           419.127813
 CELL| Vector a [angstrom]:       6.899     0.000     0.000   |a| =     6.898737
 CELL| Vector b [angstrom]:      -0.000     6.655     0.000   |b| =     6.654631
 CELL| Vector c [angstrom]:      -0.000    -0.000     9.130   |c| =     9.129625
 CELL| Angle (b,c), alpha [degree]:                                    90.000000
 CELL| Angle (a,c), beta  [degree]:                                    90.000000
 CELL| Angle (a,b), gamma [degree]:                                    90.000000
 CELL| Numerically orthorhombic:                                              NO
 CELL| Periodicity                                                           XYZ

 Extrapolation method: ASPC

 Number of electrons:                                                        128
 Number of occupied orbitals:                                                 64
 Number of molecular orbitals:                                               128

 Number of orbital functions:                                                128
 Number of independent orbital functions:                                    128


 SCF WAVEFUNCTION OPTIMIZATION

  Step     Update method      Time    Convergence         Total energy    Change
  ------------------------------------------------------------------------------
     1 TBLite/Diag 0.40E+00    0.0     0.00974672       -76.5838304019 -7.66E+01
     2 TBLite/Diag 0.40E+00    0.0     0.00392452       -76.5838774350 -4.70E-05
     3 TBLite/Diag 0.40E+00    0.0     0.00147615       -76.5838963266 -1.89E-05
     4 TBLite/Diag 0.40E+00    0.0     0.00023315       -76.5838968128 -4.86E-07
     5 TBLite/Diag 0.40E+00    0.0     0.00000785       -76.5838968147 -1.89E-09
     6 TBLite/Diag 0.40E+00    0.0     0.00001305       -76.5838968156 -9.10E-10
     7 TBLite/Diag 0.40E+00    0.0     0.00000018       -76.5838968156 -5.54E-13
     8 TBLite/Diag 0.40E+00    0.0     0.00000012       -76.5838968156  1.42E-13
     9 TBLite/Diag 0.40E+00    0.0     3.0343E-09       -76.5838968156  1.14E-13
    10 TBLite/Diag 0.40E+00    0.0     1.2156E-09       -76.5838968156 -2.70E-13
    11 TBLite/Diag 0.40E+00    0.0     2.6666E-11       -76.5838968156  1.99E-13

  *** SCF run converged in    11 steps ***


  Core Hamiltonian energy:                                    -78.03668892727011
  Repulsive potential energy:                                   1.29323502213892
  Electrostatic energy:                                         0.23566887368362
  Self-consistent dispersion energy:                            0.00000000000000
  Non-self consistent dispersion energy:                       -0.07611178419848
  Correction for halogen bonding:                               0.00000000000000
  Electronic entropic energy:                                  -0.00000000000000
  Fermi energy:                                                -0.26662950410054

  Total energy:                                               -76.58389681564603
  Total energy (extrapolated to T->0):                        -76.58389681564603

 ENERGY| Total FORCE_EVAL ( QS ) energy [hartree]            -76.583896815646028

 OPT| **************************************************************************
 OPT| Step number                                                              6
 OPT| Optimization method                                                   BFGS
 OPT| Total energy [hartree]                                      -76.5838968156
 OPT| Internal pressure [bar]                                   -4145.4877656561
 OPT| Effective energy change [hartree]                            -0.0032091509
 OPT| Predicted energy change [hartree]                            -0.0022035225
 OPT| Scaling factor                                                0.0000000000
 OPT| Step size                                                     0.1005484729
 OPT| Trust radius                                                  0.4724315332
 OPT| Decrease in energy                                                     YES
 OPT| Used time [s]                                                        0.542
 OPT|
 OPT| Maximum step size                                             0.1005484729
 OPT| Convergence limit for maximum step size                       0.0030000000
 OPT| Maximum step size is converged                                          NO
 OPT|
 OPT| RMS step size                                                 0.0139153743
 OPT| Convergence limit for RMS step size                           0.0015000000
 OPT| RMS step size is converged                                              NO
 OPT|
 OPT| Maximum gradient                                              0.0121282350
 OPT| Convergence limit for maximum gradient                        0.0004500000
 OPT| Maximum gradient is converged                                           NO
 OPT|
 OPT| RMS gradient                                                  0.0043638010
 OPT| Convergence limit for RMS gradient                            0.0003000000
 OPT| RMS gradient is converged                                               NO
 OPT|
 OPT| Pressure deviation [bar]                                  -4145.4877656561
 OPT| Pressure tolerance [bar]                                    100.0000000000
 OPT| Pressure is converged                                                   NO
 OPT| **************************************************************************
 OPT| Estimated peak process memory after this step [MiB]                    172

 --------------------------
 OPTIMIZATION STEP:      7
 --------------------------

 CELL| Volume [angstrom^3]:                                           413.430330
 CELL| Vector a [angstrom]:       6.890     0.000     0.000   |a| =     6.890058
 CELL| Vector b [angstrom]:      -0.000     6.617     0.000   |b| =     6.616989
 CELL| Vector c [angstrom]:       0.000     0.000     9.068   |c| =     9.068157
 CELL| Angle (b,c), alpha [degree]:                                    90.000000
 CELL| Angle (a,c), beta  [degree]:                                    90.000000
 CELL| Angle (a,b), gamma [degree]:                                    90.000000
 CELL| Numerically orthorhombic:                                              NO
 CELL| Periodicity                                                           XYZ

 Extrapolation method: ASPC

 Number of electrons:                                                        128
 Number of occupied orbitals:                                                 64
 Number of molecular orbitals:                                               128

 Number of orbital functions:                                                128
 Number of independent orbital functions:                                    128


 SCF WAVEFUNCTION OPTIMIZATION

  Step     Update method      Time    Convergence         Total energy    Change
  ------------------------------------------------------------------------------
     1 TBLite/Diag 0.40E+00    0.0     0.01040964       -76.5866955799 -7.66E+01
     2 TBLite/Diag 0.40E+00    0.0     0.00141588       -76.5867027497 -7.17E-06
     3 TBLite/Diag 0.40E+00    0.0     0.00057445       -76.5867044314 -1.68E-06
     4 TBLite/Diag 0.40E+00    0.0     0.00021192       -76.5867049257 -4.94E-07
     5 TBLite/Diag 0.40E+00    0.0     0.00000772       -76.5867049280 -2.33E-09
     6 TBLite/Diag 0.40E+00    0.0     0.00000742       -76.5867049292 -1.12E-09
     7 TBLite/Diag 0.40E+00    0.0     0.00000036       -76.5867049292 -6.39E-13
     8 TBLite/Diag 0.40E+00    0.0     0.00000002       -76.5867049292  1.14E-13
     9 TBLite/Diag 0.40E+00    0.0     8.9358E-09       -76.5867049292  1.42E-14
    10 TBLite/Diag 0.40E+00    0.0     2.4084E-10       -76.5867049292  1.56E-13

  *** SCF run converged in    10 steps ***


  Core Hamiltonian energy:                                    -78.04025392716291
  Repulsive potential energy:                                   1.29501989658250
  Electrostatic energy:                                         0.23569939754558
  Self-consistent dispersion energy:                            0.00000000000000
  Non-self consistent dispersion energy:                       -0.07717029613314
  Correction for halogen bonding:                               0.00000000000000
  Electronic entropic energy:                                  -0.00000000000000
  Fermi energy:                                                -0.26651292150378

  Total energy:                                               -76.58670492916798
  Total energy (extrapolated to T->0):                        -76.58670492916798

 ENERGY| Total FORCE_EVAL ( QS ) energy [hartree]            -76.586704929167979

 OPT| **************************************************************************
 OPT| Step number                                                              7
 OPT| Optimization method                                                   BFGS
 OPT| Total energy [hartree]                                      -76.5867049292
 OPT| Internal pressure [bar]                                   -1781.6791042091
 OPT| Effective energy change [hartree]                            -0.0028081135
 OPT| Predicted energy change [hartree]                            -0.0019795679
 OPT| Scaling factor                                                0.0000000000
 OPT| Step size                                                     0.1161580854
 OPT| Trust radius                                                  0.4724315332
 OPT| Decrease in energy                                                     YES
 OPT| Used time [s]                                                        0.538
 OPT|
 OPT| Maximum step size                                             0.1161580854
 OPT| Convergence limit for maximum step size                       0.0030000000
 OPT| Maximum step size is converged                                          NO
 OPT|
 OPT| RMS step size                                                 0.0175868938
 OPT| Convergence limit for RMS step size                           0.0015000000
 OPT| RMS step size is converged                                              NO
 OPT|
 OPT| Maximum gradient                                              0.0126215553
 OPT| Convergence limit for maximum gradient                        0.0004500000
 OPT| Maximum gradient is converged                                           NO
 OPT|
 OPT| RMS gradient                                                  0.0044366585
 OPT| Convergence limit for RMS gradient                            0.0003000000
 OPT| RMS gradient is converged                                               NO
 OPT|
 OPT| Pressure deviation [bar]                                  -1781.6791042091
 OPT| Pressure tolerance [bar]                                    100.0000000000
 OPT| Pressure is converged                                                   NO
 OPT| **************************************************************************
 OPT| Estimated peak process memory after this step [MiB]                    173

 --------------------------
 OPTIMIZATION STEP:      8
 --------------------------

 CELL| Volume [angstrom^3]:                                           407.975673
 CELL| Vector a [angstrom]:       6.880     0.000     0.000   |a| =     6.879884
 CELL| Vector b [angstrom]:      -0.000     6.577     0.000   |b| =     6.576930
 CELL| Vector c [angstrom]:      -0.000    -0.000     9.016   |c| =     9.016333
 CELL| Angle (b,c), alpha [degree]:                                    90.000000
 CELL| Angle (a,c), beta  [degree]:                                    90.000000
 CELL| Angle (a,b), gamma [degree]:                                    90.000000
 CELL| Numerically orthorhombic:                                              NO
 CELL| Periodicity                                                           XYZ

 Extrapolation method: ASPC

 Number of electrons:                                                        128
 Number of occupied orbitals:                                                 64
 Number of molecular orbitals:                                               128

 Number of orbital functions:                                                128
 Number of independent orbital functions:                                    128


 SCF WAVEFUNCTION OPTIMIZATION

  Step     Update method      Time    Convergence         Total energy    Change
  ------------------------------------------------------------------------------
     1 TBLite/Diag 0.40E+00    0.0     0.00987677       -76.5887381554 -7.66E+01
     2 TBLite/Diag 0.40E+00    0.0     0.00053087       -76.5887403510 -2.20E-06
     3 TBLite/Diag 0.40E+00    0.0     0.00040565       -76.5887407425 -3.91E-07
     4 TBLite/Diag 0.40E+00    0.0     0.00014820       -76.5887410758 -3.33E-07
     5 TBLite/Diag 0.40E+00    0.0     0.00001515       -76.5887410789 -3.15E-09
     6 TBLite/Diag 0.40E+00    0.0     0.00000275       -76.5887410790 -9.03E-11
     7 TBLite/Diag 0.40E+00    0.0     0.00000024       -76.5887410790 -4.41E-13
     8 TBLite/Diag 0.40E+00    0.0     0.00000006       -76.5887410790 -9.95E-14
     9 TBLite/Diag 0.40E+00    0.0     0.00000003       -76.5887410790  8.53E-14
    10 TBLite/Diag 0.40E+00    0.0     4.4899E-10       -76.5887410790  7.11E-14

  *** SCF run converged in    10 steps ***


  Core Hamiltonian energy:                                    -78.02222853458294
  Repulsive potential energy:                                   1.27626491893455
  Electrostatic energy:                                         0.23543241205047
  Self-consistent dispersion energy:                            0.00000000000000
  Non-self consistent dispersion energy:                       -0.07820987542677
  Correction for halogen bonding:                               0.00000000000000
  Electronic entropic energy:                                  -0.00000000000000
  Fermi energy:                                                -0.26776327444967

  Total energy:                                               -76.58874107902467
  Total energy (extrapolated to T->0):                        -76.58874107902467

 ENERGY| Total FORCE_EVAL ( QS ) energy [hartree]            -76.588741079024672

 OPT| **************************************************************************
 OPT| Step number                                                              8
 OPT| Optimization method                                                   BFGS
 OPT| Total energy [hartree]                                      -76.5887410790
 OPT| Internal pressure [bar]                                   -6582.1617978356
 OPT| Effective energy change [hartree]                            -0.0020361499
 OPT| Predicted energy change [hartree]                            -0.0014554857
 OPT| Scaling factor                                                0.0000000000
 OPT| Step size                                                     0.0979322742
 OPT| Trust radius                                                  0.4724315332
 OPT| Decrease in energy                                                     YES
 OPT| Used time [s]                                                        0.540
 OPT|
 OPT| Maximum step size                                             0.0979322742
 OPT| Convergence limit for maximum step size                       0.0030000000
 OPT| Maximum step size is converged                                          NO
 OPT|
 OPT| RMS step size                                                 0.0161404491
 OPT| Convergence limit for RMS step size                           0.0015000000
 OPT| RMS step size is converged                                              NO
 OPT|
 OPT| Maximum gradient                                              0.0145336666
 OPT| Convergence limit for maximum gradient                        0.0004500000
 OPT| Maximum gradient is converged                                           NO
 OPT|
 OPT| RMS gradient                                                  0.0031969791
 OPT| Convergence limit for RMS gradient                            0.0003000000
 OPT| RMS gradient is converged                                               NO
 OPT|
 OPT| Pressure deviation [bar]                                  -6582.1617978356
 OPT| Pressure tolerance [bar]                                    100.0000000000
 OPT| Pressure is converged                                                   NO
 OPT| **************************************************************************
 OPT| Estimated peak process memory after this step [MiB]                    173

 --------------------------
 OPTIMIZATION STEP:      9
 --------------------------

 CELL| Volume [angstrom^3]:                                           402.396600
 CELL| Vector a [angstrom]:       6.867     0.000     0.000   |a| =     6.866992
 CELL| Vector b [angstrom]:      -0.000     6.531     0.000   |b| =     6.531339
 CELL| Vector c [angstrom]:       0.000     0.000     8.972   |c| =     8.971923
 CELL| Angle (b,c), alpha [degree]:                                    90.000000
 CELL| Angle (a,c), beta  [degree]:                                    90.000000
 CELL| Angle (a,b), gamma [degree]:                                    90.000000
 CELL| Numerically orthorhombic:                                              NO
 CELL| Periodicity                                                           XYZ

 Extrapolation method: ASPC

 Number of electrons:                                                        128
 Number of occupied orbitals:                                                 64
 Number of molecular orbitals:                                               128

 Number of orbital functions:                                                128
 Number of independent orbital functions:                                    128


 SCF WAVEFUNCTION OPTIMIZATION

  Step     Update method      Time    Convergence         Total energy    Change
  ------------------------------------------------------------------------------
     1 TBLite/Diag 0.40E+00    0.0     0.01043049       -76.5905982147 -7.66E+01
     2 TBLite/Diag 0.40E+00    0.0     0.00035341       -76.5905998885 -1.67E-06
     3 TBLite/Diag 0.40E+00    0.0     0.00035396       -76.5905998982 -9.74E-09
     4 TBLite/Diag 0.40E+00    0.0     0.00021020       -76.5906003103 -4.12E-07
     5 TBLite/Diag 0.40E+00    0.0     0.00003163       -76.5906003191 -8.84E-09
     6 TBLite/Diag 0.40E+00    0.0     0.00000601       -76.5906003196 -4.88E-10
     7 TBLite/Diag 0.40E+00    0.0     0.00000013       -76.5906003196 -1.28E-13
     8 TBLite/Diag 0.40E+00    0.0     0.00000014       -76.5906003196  9.95E-14
     9 TBLite/Diag 0.40E+00    0.0     0.00000005       -76.5906003196 -1.14E-13
    10 TBLite/Diag 0.40E+00    0.0     5.0196E-10       -76.5906003196 -9.95E-14

  *** SCF run converged in    10 steps ***


  Core Hamiltonian energy:                                    -78.00053528576922
  Repulsive potential energy:                                   1.25414060198699
  Electrostatic energy:                                         0.23509549742197
  Self-consistent dispersion energy:                            0.00000000000000
  Non-self consistent dispersion energy:                       -0.07930113327368
  Correction for halogen bonding:                               0.00000000000000
  Electronic entropic energy:                                  -0.00000000000000
  Fermi energy:                                                -0.26929583225237

  Total energy:                                               -76.59060031963395
  Total energy (extrapolated to T->0):                        -76.59060031963395

 ENERGY| Total FORCE_EVAL ( QS ) energy [hartree]            -76.590600319633950

 OPT| **************************************************************************
 OPT| Step number                                                              9
 OPT| Optimization method                                                   BFGS
 OPT| Total energy [hartree]                                      -76.5906003196
 OPT| Internal pressure [bar]                                  -12821.1047658354
 OPT| Effective energy change [hartree]                            -0.0018592406
 OPT| Predicted energy change [hartree]                            -0.0012143852
 OPT| Scaling factor                                                0.0000000000
 OPT| Step size                                                     0.0861532370
 OPT| Trust radius                                                  0.4724315332
 OPT| Decrease in energy                                                     YES
 OPT| Used time [s]                                                        0.546
 OPT|
 OPT| Maximum step size                                             0.0861532370
 OPT| Convergence limit for maximum step size                       0.0030000000
 OPT| Maximum step size is converged                                          NO
 OPT|
 OPT| RMS step size                                                 0.0149514651
 OPT| Convergence limit for RMS step size                           0.0015000000
 OPT| RMS step size is converged                                              NO
 OPT|
 OPT| Maximum gradient                                              0.0180761627
 OPT| Convergence limit for maximum gradient                        0.0004500000
 OPT| Maximum gradient is converged                                           NO
 OPT|
 OPT| RMS gradient                                                  0.0031698418
 OPT| Convergence limit for RMS gradient                            0.0003000000
 OPT| RMS gradient is converged                                               NO
 OPT|
 OPT| Pressure deviation [bar]                                 -12821.1047658354
 OPT| Pressure tolerance [bar]                                    100.0000000000
 OPT| Pressure is converged                                                   NO
 OPT| **************************************************************************
 OPT| Estimated peak process memory after this step [MiB]                    173

 --------------------------
 OPTIMIZATION STEP:     10
 --------------------------

 CELL| Volume [angstrom^3]:                                           392.554625
 CELL| Vector a [angstrom]:       6.841     0.000     0.000   |a| =     6.841025
 CELL| Vector b [angstrom]:      -0.000     6.445     0.000   |b| =     6.445449
 CELL| Vector c [angstrom]:      -0.000    -0.000     8.903   |c| =     8.902782
 CELL| Angle (b,c), alpha [degree]:                                    90.000000
 CELL| Angle (a,c), beta  [degree]:                                    90.000000
 CELL| Angle (a,b), gamma [degree]:                                    90.000000
 CELL| Numerically orthorhombic:                                              NO
 CELL| Periodicity                                                           XYZ

 Extrapolation method: ASPC

 Number of electrons:                                                        128
 Number of occupied orbitals:                                                 64
 Number of molecular orbitals:                                               128

 Number of orbital functions:                                                128
 Number of independent orbital functions:                                    128


 SCF WAVEFUNCTION OPTIMIZATION

  Step     Update method      Time    Convergence         Total energy    Change
  ------------------------------------------------------------------------------
     1 TBLite/Diag 0.40E+00    0.0     0.01896278       -76.5936133753 -7.66E+01
     2 TBLite/Diag 0.40E+00    0.0     0.00124121       -76.5936272776 -1.39E-05
     3 TBLite/Diag 0.40E+00    0.0     0.00073404       -76.5936286082 -1.33E-06
     4 TBLite/Diag 0.40E+00    0.0     0.00034798       -76.5936301058 -1.50E-06
     5 TBLite/Diag 0.40E+00    0.0     0.00003472       -76.5936301162 -1.04E-08
     6 TBLite/Diag 0.40E+00    0.0     0.00001160       -76.5936301176 -1.44E-09
     7 TBLite/Diag 0.40E+00    0.0     0.00000036       -76.5936301176  2.84E-13
     8 TBLite/Diag 0.40E+00    0.0     0.00000028       -76.5936301176 -5.68E-13
     9 TBLite/Diag 0.40E+00    0.0     0.00000008       -76.5936301176 -5.68E-14
    10 TBLite/Diag 0.40E+00    0.0     5.0434E-10       -76.5936301176  5.68E-14

  *** SCF run converged in    10 steps ***


  Core Hamiltonian energy:                                    -77.97523308074510
  Repulsive potential energy:                                   1.22825879582554
  Electrostatic energy:                                         0.23464055888562
  Self-consistent dispersion energy:                            0.00000000000000
  Non-self consistent dispersion energy:                       -0.08129639159422
  Correction for halogen bonding:                               0.00000000000000
  Electronic entropic energy:                                  -0.00000000000000
  Fermi energy:                                                -0.27131791246602

  Total energy:                                               -76.59363011762815
  Total energy (extrapolated to T->0):                        -76.59363011762815

 ENERGY| Total FORCE_EVAL ( QS ) energy [hartree]            -76.593630117628152

 OPT| **************************************************************************
 OPT| Step number                                                             10
 OPT| Optimization method                                                   BFGS
 OPT| Total energy [hartree]                                      -76.5936301176
 OPT| Internal pressure [bar]                                  -19427.2190498952
 OPT| Effective energy change [hartree]                            -0.0030297980
 OPT| Predicted energy change [hartree]                            -0.0020068075
 OPT| Scaling factor                                                0.0000000000
 OPT| Step size                                                     0.1623086029
 OPT| Trust radius                                                  0.4724315332
 OPT| Decrease in energy                                                     YES
 OPT| Used time [s]                                                        0.551
 OPT|
 OPT| Maximum step size                                             0.1623086029
 OPT| Convergence limit for maximum step size                       0.0030000000
 OPT| Maximum step size is converged                                          NO
 OPT|
 OPT| RMS step size                                                 0.0247374102
 OPT| Convergence limit for RMS step size                           0.0015000000
 OPT| RMS step size is converged                                              NO
 OPT|
 OPT| Maximum gradient                                              0.0198778799
 OPT| Convergence limit for maximum gradient                        0.0004500000
 OPT| Maximum gradient is converged                                           NO
 OPT|
 OPT| RMS gradient                                                  0.0049650509
 OPT| Convergence limit for RMS gradient                            0.0003000000
 OPT| RMS gradient is converged                                               NO
 OPT|
 OPT| Pressure deviation [bar]                                 -19427.2190498952
 OPT| Pressure tolerance [bar]                                    100.0000000000
 OPT| Pressure is converged                                                   NO
 OPT| **************************************************************************
 OPT| Estimated peak process memory after this step [MiB]                    173

 --------------------------
 OPTIMIZATION STEP:     11
 --------------------------

 CELL| Volume [angstrom^3]:                                           381.032402
 CELL| Vector a [angstrom]:       6.806     0.000     0.000   |a| =     6.806481
 CELL| Vector b [angstrom]:       0.000     6.339     0.000   |b| =     6.339006
 CELL| Vector c [angstrom]:       0.000     0.000     8.831   |c| =     8.831167
 CELL| Angle (b,c), alpha [degree]:                                    90.000000
 CELL| Angle (a,c), beta  [degree]:                                    90.000000
 CELL| Angle (a,b), gamma [degree]:                                    90.000000
 CELL| Numerically orthorhombic:                                              NO
 CELL| Periodicity                                                           XYZ

 Extrapolation method: ASPC

 Number of electrons:                                                        128
 Number of occupied orbitals:                                                 64
 Number of molecular orbitals:                                               128

 Number of orbital functions:                                                128
 Number of independent orbital functions:                                    128


 SCF WAVEFUNCTION OPTIMIZATION

  Step     Update method      Time    Convergence         Total energy    Change
  ------------------------------------------------------------------------------
     1 TBLite/Diag 0.40E+00    0.0     0.02463912       -76.5969132166 -7.66E+01
     2 TBLite/Diag 0.40E+00    0.0     0.00333778       -76.5969748954 -6.17E-05
     3 TBLite/Diag 0.40E+00    0.0     0.00163097       -76.5969897188 -1.48E-05
     4 TBLite/Diag 0.40E+00    0.0     0.00038919       -76.5969922268 -2.51E-06
     5 TBLite/Diag 0.40E+00    0.0     0.00009478       -76.5969923322 -1.05E-07
     6 TBLite/Diag 0.40E+00    0.0     0.00001305       -76.5969923350 -2.85E-09
     7 TBLite/Diag 0.40E+00    0.0     0.00000118       -76.5969923350 -2.13E-13
     8 TBLite/Diag 0.40E+00    0.0     0.00000058       -76.5969923350 -4.49E-12
     9 TBLite/Diag 0.40E+00    0.0     0.00000002       -76.5969923350  3.13E-13
    10 TBLite/Diag 0.40E+00    0.0     6.5853E-10       -76.5969923350 -1.56E-13

  *** SCF run converged in    10 steps ***


  Core Hamiltonian energy:                                    -77.96421187754912
  Repulsive potential energy:                                   1.21659344884466
  Electrostatic energy:                                         0.23437732374802
  Self-consistent dispersion energy:                            0.00000000000000
  Non-self consistent dispersion energy:                       -0.08375123007425
  Correction for halogen bonding:                               0.00000000000000
  Electronic entropic energy:                                  -0.00000000000000
  Fermi energy:                                                -0.27284759227766

  Total energy:                                               -76.59699233503069
  Total energy (extrapolated to T->0):                        -76.59699233503069

 ENERGY| Total FORCE_EVAL ( QS ) energy [hartree]            -76.596992335030691

 OPT| **************************************************************************
 OPT| Step number                                                             11
 OPT| Optimization method                                                   BFGS
 OPT| Total energy [hartree]                                      -76.5969923350
 OPT| Internal pressure [bar]                                  -19662.2770973451
 OPT| Effective energy change [hartree]                            -0.0033622174
 OPT| Predicted energy change [hartree]                            -0.0023266161
 OPT| Scaling factor                                                0.0000000000
 OPT| Step size                                                     0.2011487025
 OPT| Trust radius                                                  0.4724315332
 OPT| Decrease in energy                                                     YES
 OPT| Used time [s]                                                        0.558
 OPT|
 OPT| Maximum step size                                             0.2011487025
 OPT| Convergence limit for maximum step size                       0.0030000000
 OPT| Maximum step size is converged                                          NO
 OPT|
 OPT| RMS step size                                                 0.0280819512
 OPT| Convergence limit for RMS step size                           0.0015000000
 OPT| RMS step size is converged                                              NO
 OPT|
 OPT| Maximum gradient                                              0.0153649175
 OPT| Convergence limit for maximum gradient                        0.0004500000
 OPT| Maximum gradient is converged                                           NO
 OPT|
 OPT| RMS gradient                                                  0.0058946370
 OPT| Convergence limit for RMS gradient                            0.0003000000
 OPT| RMS gradient is converged                                               NO
 OPT|
 OPT| Pressure deviation [bar]                                 -19662.2770973451
 OPT| Pressure tolerance [bar]                                    100.0000000000
 OPT| Pressure is converged                                                   NO
 OPT| **************************************************************************
 OPT| Estimated peak process memory after this step [MiB]                    173

 --------------------------
 OPTIMIZATION STEP:     12
 --------------------------

 CELL| Volume [angstrom^3]:                                           374.831663
 CELL| Vector a [angstrom]:       6.783     0.000     0.000   |a| =     6.782713
 CELL| Vector b [angstrom]:      -0.000     6.276     0.000   |b| =     6.276143
 CELL| Vector c [angstrom]:      -0.000    -0.000     8.805   |c| =     8.805216
 CELL| Angle (b,c), alpha [degree]:                                    90.000000
 CELL| Angle (a,c), beta  [degree]:                                    90.000000
 CELL| Angle (a,b), gamma [degree]:                                    90.000000
 CELL| Numerically orthorhombic:                                              NO
 CELL| Periodicity                                                           XYZ

 Extrapolation method: ASPC

 Number of electrons:                                                        128
 Number of occupied orbitals:                                                 64
 Number of molecular orbitals:                                               128

 Number of orbital functions:                                                128
 Number of independent orbital functions:                                    128


 SCF WAVEFUNCTION OPTIMIZATION

  Step     Update method      Time    Convergence         Total energy    Change
  ------------------------------------------------------------------------------
     1 TBLite/Diag 0.40E+00    0.0     0.01608709       -76.5996498842 -7.66E+01
     2 TBLite/Diag 0.40E+00    0.0     0.00408039       -76.5997232999 -7.34E-05
     3 TBLite/Diag 0.40E+00    0.0     0.00171390       -76.5997494251 -2.61E-05
     4 TBLite/Diag 0.40E+00    0.0     0.00016628       -76.5997499089 -4.84E-07
     5 TBLite/Diag 0.40E+00    0.0     0.00003962       -76.5997499202 -1.13E-08
     6 TBLite/Diag 0.40E+00    0.0     0.00001154       -76.5997499209 -7.13E-10
     7 TBLite/Diag 0.40E+00    0.0     0.00000221       -76.5997499209 -3.98E-11
     8 TBLite/Diag 0.40E+00    0.0     0.00000045       -76.5997499209 -2.80E-12
     9 TBLite/Diag 0.40E+00    0.0     0.00000005       -76.5997499209 -1.42E-14
    10 TBLite/Diag 0.40E+00    0.0     1.1055E-09       -76.5997499209  2.84E-14
    11 TBLite/Diag 0.40E+00    0.0     4.8235E-10       -76.5997499209 -1.28E-13

  *** SCF run converged in    11 steps ***


  Core Hamiltonian energy:                                    -77.97673219711668
  Repulsive potential energy:                                   1.22760799305548
  Electrostatic energy:                                         0.23450597223245
  Self-consistent dispersion energy:                            0.00000000000000
  Non-self consistent dispersion energy:                       -0.08513168911633
  Correction for halogen bonding:                               0.00000000000000
  Electronic entropic energy:                                  -0.00000000000000
  Fermi energy:                                                -0.27298460900045

  Total energy:                                               -76.59974992094509
  Total energy (extrapolated to T->0):                        -76.59974992094509

 ENERGY| Total FORCE_EVAL ( QS ) energy [hartree]            -76.599749920945087

 OPT| **************************************************************************
 OPT| Step number                                                             12
 OPT| Optimization method                                                   BFGS
[...]
 CELL| Periodicity                                                           XYZ

 Extrapolation method: ASPC

 Number of electrons:                                                        128
 Number of occupied orbitals:                                                 64
 Number of molecular orbitals:                                               128

 Number of orbital functions:                                                128
 Number of independent orbital functions:                                    128


 SCF WAVEFUNCTION OPTIMIZATION

  Step     Update method      Time    Convergence         Total energy    Change
  ------------------------------------------------------------------------------
     1 TBLite/Diag 0.40E+00    0.0     0.00193811       -76.6166872778 -7.66E+01
     2 TBLite/Diag 0.40E+00    0.0     0.00021172       -76.6166872358  4.20E-08
     3 TBLite/Diag 0.40E+00    0.0     0.00010459       -76.6166873673 -1.32E-07
     4 TBLite/Diag 0.40E+00    0.0     0.00001701       -76.6166873674 -5.23E-11
     5 TBLite/Diag 0.40E+00    0.0     0.00001409       -76.6166873677 -3.80E-10
     6 TBLite/Diag 0.40E+00    0.0     0.00000393       -76.6166873678 -4.11E-11
     7 TBLite/Diag 0.40E+00    0.0     0.00000130       -76.6166873678 -1.33E-11
     8 TBLite/Diag 0.40E+00    0.0     0.00000029       -76.6166873678 -1.85E-13
     9 TBLite/Diag 0.40E+00    0.0     0.00000008       -76.6166873678 -2.27E-13
    10 TBLite/Diag 0.40E+00    0.0     0.00000004       -76.6166873678  1.99E-13
    11 TBLite/Diag 0.40E+00    0.0     9.0051E-09       -76.6166873678  5.68E-14
    12 TBLite/Diag 0.40E+00    0.0     1.8567E-09       -76.6166873678 -9.95E-14
    13 TBLite/Diag 0.40E+00    0.0     3.7254E-10       -76.6166873678  1.42E-13

  *** SCF run converged in    13 steps ***


  Core Hamiltonian energy:                                    -78.01943298948835
  Repulsive potential energy:                                   1.26065282038972
  Electrostatic energy:                                         0.23101108446992
  Self-consistent dispersion energy:                            0.00000000000000
  Non-self consistent dispersion energy:                       -0.08891828316375
  Correction for halogen bonding:                               0.00000000000000
  Electronic entropic energy:                                  -0.00000000000000
  Fermi energy:                                                -0.27914730184902

  Total energy:                                               -76.61668736779247
  Total energy (extrapolated to T->0):                        -76.61668736779247

 ENERGY| Total FORCE_EVAL ( QS ) energy [hartree]            -76.616687367792466

 OPT| **************************************************************************
 OPT| Step number                                                             87
 OPT| Optimization method                                                   BFGS
 OPT| Total energy [hartree]                                      -76.6166873678
 OPT| Internal pressure [bar]                                     -67.7729907785
 OPT| Effective energy change [hartree]                            -0.0000046090
 OPT| Predicted energy change [hartree]                            -0.0000034200
 OPT| Scaling factor                                                0.0000000000
 OPT| Step size                                                     0.0023656956
 OPT| Trust radius                                                  0.4724315332
 OPT| Decrease in energy                                                     YES
 OPT| Used time [s]                                                        0.282
 OPT|
 OPT| Maximum step size                                             0.0023656956
 OPT| Convergence limit for maximum step size                       0.0030000000
 OPT| Maximum step size is converged                                         YES
 OPT|
 OPT| RMS step size                                                 0.0009349341
 OPT| Convergence limit for RMS step size                           0.0015000000
 OPT| RMS step size is converged                                             YES
 OPT|
 OPT| Maximum gradient                                              0.0003785485
 OPT| Convergence limit for maximum gradient                        0.0004500000
 OPT| Maximum gradient is converged                                          YES
 OPT|
 OPT| RMS gradient                                                  0.0001473298
 OPT| Convergence limit for RMS gradient                            0.0003000000
 OPT| RMS gradient is converged                                              YES
 OPT|
 OPT| Pressure deviation [bar]                                    -67.7729907785
 OPT| Pressure tolerance [bar]                                    100.0000000000
 OPT| Pressure is converged                                                  YES
 OPT| **************************************************************************
 OPT| Estimated peak process memory after this step [MiB]                    173

 *******************************************************************************
 ***                    GEOMETRY OPTIMIZATION COMPLETED                      ***
 *******************************************************************************

 write_final_structure: Optimization converged, writing XYZ file gladly:
  cyanamide_GFN1_gamma_cell_opt-FINAL-1_87.xyz

 write_final_structure: Optimization converged, writing CIF file gladly:
  cyanamide_GFN1_gamma_cell_opt-FINAL-1_87.cif

 write_final_structure: Done!

                    Reevaluating energy at the minimum

 CELL| Volume [angstrom^3]:                                           359.411561
 CELL| Vector a [angstrom]:       6.680     0.000     0.000   |a| =     6.680455
 CELL| Vector b [angstrom]:       0.000     6.292     0.000   |b| =     6.291642
 CELL| Vector c [angstrom]:       0.000    -0.000     8.551   |c| =     8.551100
 CELL| Angle (b,c), alpha [degree]:                                    90.000117
 CELL| Angle (a,c), beta  [degree]:                                    89.997243
 CELL| Angle (a,b), gamma [degree]:                                    89.999720
 CELL| Numerically orthorhombic:                                              NO
 CELL| Periodicity                                                           XYZ

 Extrapolation method: ASPC

 Number of electrons:                                                        128
 Number of occupied orbitals:                                                 64
 Number of molecular orbitals:                                               128

 Number of orbital functions:                                                128
 Number of independent orbital functions:                                    128


 SCF WAVEFUNCTION OPTIMIZATION

  Step     Update method      Time    Convergence         Total energy    Change
  ------------------------------------------------------------------------------
     1 TBLite/Diag 0.40E+00    0.0     4.4002E-10       -76.6166873678 -7.66E+01

  *** SCF run converged in     1 steps ***


  Core Hamiltonian energy:                                    -78.01943298941424
  Repulsive potential energy:                                   1.26065282038972
  Electrostatic energy:                                         0.23101108439567
  Self-consistent dispersion energy:                            0.00000000000000
  Non-self consistent dispersion energy:                       -0.08891828316375
  Correction for halogen bonding:                               0.00000000000000
  Electronic entropic energy:                                  -0.00000000000000
  Fermi energy:                                                -0.27914730185432

  Total energy:                                               -76.61668736779259
  Total energy (extrapolated to T->0):                        -76.61668736779259

 ENERGY| Total FORCE_EVAL ( QS ) energy [hartree]            -76.616687367792593

 -------------------------------------------------------------------------------
 -                                                                             -
 -                                DBCSR STATISTICS                             -
 -                                                                             -
 -------------------------------------------------------------------------------
 COUNTER                                    TOTAL       BLAS       SMM       ACC
 flops     2 x    32 x     2            112721920       0.0%    100.0%      0.0%     
 flops     2 x     2 x   128            187031552       0.0%    100.0%      0.0%     
 flops     2 x    32 x     4            338165760       0.0%    100.0%      0.0%     
 flops     4 x    32 x     2            338165760       0.0%    100.0%      0.0%     
 flops     2 x     4 x   128            528089088       0.0%    100.0%      0.0%     
 flops     4 x     2 x   128            528089088       0.0%    100.0%      0.0%     
 flops     4 x    32 x     4           1014497280       0.0%    100.0%      0.0%     
 flops     4 x     4 x   128           1650278400       0.0%    100.0%      0.0%     
 flops inhomo. stacks                           0       0.0%      0.0%      0.0%
 flops total                         4.697039E+09       0.0%    100.0%      0.0%
 flops max/rank                      4.697039E+09       0.0%    100.0%      0.0%
 matmuls inhomo. stacks                         0       0.0%      0.0%      0.0%
 matmuls total                            3853260       0.0%    100.0%      0.0%
 number of processed stacks                  9242       0.0%    100.0%      0.0%
 average stack size                                     0.0     416.9       0.0
 marketing flops                     4.620026E+09
 -------------------------------------------------------------------------------
 # multiplications                           1773
 max memory usage/rank              13.676450E+09
 # max total images/rank                        1
 # max 3D layers                                1
 # MPI messages exchanged                       0
 -------------------------------------------------------------------------------
 -                                                                             -
 -                      DBCSR MESSAGE PASSING PERFORMANCE                      -
 -                                                                             -
 -------------------------------------------------------------------------------
 ROUTINE             CALLS      AVE VOLUME [Bytes]
 MP_Bcast                9                     12.
 MP_Allreduce         8040                      8.
 MP_Alltoall         58526                  87230.
 MP_ISend             7092                   6692.
 MP_IRecv             7092                   6692.
 -------------------------------------------------------------------------------

 -------------------------------------------------------------------------------
 -                                                                             -
 -                          OFFLOAD MEMPOOL STATISTICS                         -
 -                                                                             -
 -------------------------------------------------------------------------------
 Memory consumption                Number of allocations  Used [MiB]  Size [MiB]
 Device                                                1           0           0
 Host                                                  1           0           0
 -------------------------------------------------------------------------------

 MEMORY| Estimated peak process memory [MiB]                                 173

 -------------------------------------------------------------------------------
 -                                                                             -
 -                         MESSAGE PASSING PERFORMANCE                         -
 -                                                                             -
 -------------------------------------------------------------------------------

 ROUTINE             CALLS      AVE VOLUME [Bytes]
 MP_Group               88
 MP_Bcast             2684                    514.
 MP_Allreduce        19862                    276.
 MP_Sync              1430
 MP_comm_split        1342
 -------------------------------------------------------------------------------


 -------------------------------------------------------------------------------
 -                                                                             -
 -                           R E F E R E N C E S                               -
 -                                                                             -
 -------------------------------------------------------------------------------
 
 CP2K version 2026.1 (Development Version), the CP2K developers group (2026).
 CP2K is freely available from https://www.cp2k.org/ .
 
 M. Iannuzzi, J. Wilhelm, F. Stein, A. Bussy, H. Elgabarty, D. Golze, A. Hehn, 
 M. Graml, S. Marek, B. Sertcan Gökmen, C. Schran, H. Forbert, R. Z. 
 Khaliullin, A. Kozhevnikov, M. Taillefumier, R. Meli, V. V. Rybkin, M. Brehm, 
 R. Schade, O. Schütt, J. V. Pototschnig, H. Mirhosseini, A. Knüpfer, D. Marx, 
 M. Krack, J. Hutter, T. D. Kühne.
 J. Phys. Chem. B 130, 1237-1310 (2026).
 The CP2K Program Package Made Simple.
 https://doi.org/10.1021/acs.jpcb.5c05851

 A. Katbashev, M. Stahn, T. Rose, V. Alizadeh, M. Friede, C. Plett, P. 
 Steinbach, S. Ehlert.
 J. Phys. Chem. A 129, 2667-2682 (2025).
 Overview on Building Blocks and Applications of Efficient and Robust Extended 
 Tight Binding.
 https://doi.org/10.1021/acs.jpca.4c08263

 T. D. Kühne, M. Iannuzzi, M. Del Ben, V. V. Rybkin, P. Seewald, F. Stein, T. 
 Laino, R. Z. Khaliullin, O. Schütt, F. Schiffmann, D. Golze, J. Wilhelm, S. 
 Chulkov, M. H. Bani-Hashemian, V. Weber, U. Borstnik, M. Taillefumier, A. S. 
 Jakobovits, A. Lazzaro, H. Pabst, T. Müller, R. Schade, M. Guidon, S. 
 Andermatt, N. Holmberg, G. K. Schenter, A. Hehn, A. Bussy, F. Belleflamme, G. 
 Tabacchi, A. Glöß, M. Lass, I. Bethune, C. J. Mundy, C. Plessl, M. Watkins, 
 J. VandeVondele, M. Krack, J. Hutter.
 J. Chem. Phys. 152, 194103 (2020).
 CP2K: An electronic structure and molecular dynamics software package - 
 Quickstep: Efficient and accurate electronic structure calculations.
 https://doi.org/10.1063/5.0007045

 P. Pracht, E. Caldeweyher, S. Ehlert, S. Grimme.
 ChemRxiv, (2019).
 A Robust Non-Self-Consistent Tight-Binding Quantum Chemistry Method for large 
 Molecules.
 https://doi.org/10.26434/chemrxiv.8326202.v1

 S. Grimme, C. Bannwarth, P. Shushkov.
 J. Chem. Theory Comput. 13, 1989 (2017).
 A Robust and Accurate Tight-Binding Quantum Chemical Method for Structures, 
 Vibrational Frequencies, and Noncovalent Interactions of Large Molecular 
 Systems Parametrized for All spd-Block Elements (Z = 1-86).
 https://doi.org/10.1021/acs.jctc.7b00118

 O. Schuett, P. Messmer, J. Hutter, J. VandeVondele.
 Electronic Structure Calculations on Graphics Processing Units, 173-190 (2016).
 GPU-Accelerated Sparse Matrix-Matrix Multiplication for Linear Scaling Density 
 Functional Theory.
 https://doi.org/10.1002/9781118670712.ch8

 A. Heinecke, G. Henry, M. Hutchinson, H. Pabst.
 Proceedings of Intl. Supercomputing Conference, 981-991 (2016).
 LIBXSMM: Accelerating Small Matrix Multiplications by Runtime Code Generation.
 https://doi.org/10.1109/SC.2016.83

 U. Borstnik, J. VandeVondele, V. Weber, J. Hutter.
 Parallel Comput. 40, 47-58 (2014).
 Sparse matrix multiplication: The distributed block-compressed sparse row 
 library.
 https://doi.org/10.1016/j.parco.2014.03.012

 T. D. Kühne, M. Krack, F. R. Mohamed, M. Parrinello.
 Phys. Rev. Lett. 98, 066401 (2007).
 Efficient and accurate Car-Parrinello-like approach to Born-Oppenheimer 
 molecular dynamics.
 https://doi.org/10.1103/PhysRevLett.98.066401

 M. Frigo, S. G. Johnson.
 Proc. IEEE 93, 216-231 (2005).
 The design and implementation of FFTW3.
 https://doi.org/10.1109/JPROC.2004.840301

 J. Kolafa.
 J. Comput. Chem. 25, 335-342 (2004).
 Time-reversible always stable predictor-corrector method for molecular dynamics 
 of polarizable molecules.
 https://doi.org/10.1002/jcc.10385

 N. D. Mermin.
 Phys. Rev. 137, A1441-A1443 (1965).
 Thermal Properties of the Inhomogeneous Electron Gas.
 https://doi.org/10.1103/PhysRev.137.A1441


 -------------------------------------------------------------------------------
 -                                                                             -
 -                                T I M I N G                                  -
 -                                                                             -
 -------------------------------------------------------------------------------
 SUBROUTINE                       CALLS  ASD         SELF TIME        TOTAL TIME
                                MAXIMUM       AVERAGE  MAXIMUM  AVERAGE  MAXIMUM
 CP2K                                 1  1.0    0.002    0.002   33.073   33.073
 cp_cell_opt                          1  2.0    0.000    0.000   33.064   33.064
 geoopt_bfgs                          1  3.0    0.010    0.010   33.064   33.064
 cp_eval_at                          89  4.0    0.010    0.010   32.866   32.866
 qs_forces                           88  5.0    0.005    0.005   32.795   32.795
 build_tblite_matrices              177  7.0   13.662   13.662   13.799   13.799
 rebuild_ks_matrix                 1255  9.8    0.001    0.001   12.682   12.682
 build_tblite_ks_matrix            1255 10.8   12.667   12.667   12.681   12.681
 qs_energies                         89  6.0    0.003    0.003   12.421   12.421
 qs_ks_update_qs_env_forces          88  6.0    0.000    0.000   12.322   12.322
 qs_energies_init_hamiltonians       89  7.0    0.000    0.000    5.901    5.901
 scf_env_do_scf                      89  7.0    0.001    0.001    5.463    5.463
 scf_env_do_scf_inner_loop         1167  8.0    0.119    0.119    5.455    5.455
 qs_scf_new_mos                    1167  9.0    0.006    0.006    4.699    4.699
 eigensolver                       1167 10.0    0.018    0.018    2.026    2.026
 cp_fm_syevd                       1342 10.7    0.003    0.003    1.828    1.828
 cp_fm_syevd_base                  1342 11.7    1.728    1.728    1.728    1.728
 cp_dbcsr_plus_fm_fm_t             1343 10.9    0.008    0.008    1.370    1.370
 calculate_dm_sparse               1255 10.0    0.006    0.006    1.296    1.296
 dbcsr_multiply_generic            1773 12.0    0.041    0.041    1.183    1.183
 dbcsr_complete_redistribute       5880 12.2    0.915    0.915    1.157    1.157
 copy_dbcsr_to_fm                  2764 10.5    0.014    0.014    1.103    1.103
 init_scf_run                        89  7.0    0.001    0.001    0.910    0.910
 qs_diis_b_step                    1078 10.0    0.008    0.008    0.864    0.864
 scf_env_initial_rho_setup           89  8.0    0.001    0.001    0.856    0.856
 wfi_extrapolate                     89  9.0    0.003    0.003    0.855    0.855
 -------------------------------------------------------------------------------

 The number of warnings for this run is : 0
 
 -------------------------------------------------------------------------------
  **** **** ******  **  PROGRAM ENDED AT                 2026-05-23 22:47:24.432
 ***** ** ***  *** **   PROGRAM RAN ON                                spark-c86c
 **    ****   ******    PROGRAM RAN BY                                  kuehne88
 ***** **    ** ** **   PROGRAM PROCESS ID                               2264700
  **** **  *******  **  PROGRAM STOPPED IN /home/kuehne88/periodic-gfn2-benchmar
                                           ks/X23b/runs/cellopt_gamma/GFN1/cyana
                                           mide_GFN1_gamma_cellopt
