 DBCSR| CPU Multiplication driver                                           XSMM (U)
 DBCSR| Multrec recursion limit                                              512 (U)
 DBCSR| Multiplication stack size                                           1000 (D)
 DBCSR| Maximum elements for images                                    UNLIMITED (U)
 DBCSR| Multiplicative factor virtual images                                   1 (U)
 DBCSR| Use multiplication densification                                       T (D)
 DBCSR| Multiplication size stacks                                             3 (U)
 DBCSR| Use memory pool for CPU allocation                                     F (U)
 DBCSR| Number of 3D layers                                               SINGLE (U)
 DBCSR| Use MPI memory allocation                                              F (U)
 DBCSR| Use RMA algorithm                                                      F (U)
 DBCSR| Use Communication thread                                               T (U)
 DBCSR| Communication thread load                                             87 (D)
 DBCSR| MPI: My process id                                                     0
 DBCSR| MPI: Number of processes                                               1
 DBCSR| OMP: Current number of threads                                         1
 DBCSR| OMP: Max number of threads                                             1
 DBCSR| Split modifier for TAS multiplication algorithm                  1.0E+00 (U)


  **** **** ******  **  PROGRAM STARTED AT               2026-05-23 22:46:19.965
 ***** ** ***  *** **   PROGRAM STARTED ON                            spark-c86c
 **    ****   ******    PROGRAM STARTED BY                              kuehne88
 ***** **    ** ** **   PROGRAM PROCESS ID                               2227344
  **** **  *******  **  PROGRAM STARTED IN /home/kuehne88/periodic-gfn2-benchmar
                                           ks/X23b/runs/molecule_geoopt/GFN2/for
                                           mamide_GFN2_mol_geoopt

 CP2K| version string:                 CP2K version 2026.1 (Development Version)
 CP2K| source code revision number:                                   0622d442e4
 CP2K| cp2kflags: omp fftw3 libxc parallel scalapack mpi_f08 xsmm spglib libdftd
 CP2K|            4 dftd4_v3 mctc-lib tblite
 CP2K| is freely available from                            https://www.cp2k.org/
 CP2K| Program compiled at                                   2026-05-23 22:05:08
 CP2K| Program compiled on                                            spark-c86c
 CP2K| Program compiled for                                              aarch64
 CP2K| Data directory path    /home/kuehne88/cp2k-master-tblite-20260523/install
 CP2K| Input file name                             formamide_GFN2_mol_geoopt.inp

 GLOBAL| Force Environment number                                              1
 GLOBAL| Basis set file name                                           BASIS_SET
 GLOBAL| Potential file name                                           POTENTIAL
 GLOBAL| MM Potential file name                                     MM_POTENTIAL
 GLOBAL| Coordinate file name                                      __STD_INPUT__
 GLOBAL| Method name                                                        CP2K
 GLOBAL| Project name                                  formamide_GFN2_mol_geoopt
 GLOBAL| Run type                                                        GEO_OPT
 GLOBAL| FFT library                                                       FFTW3
 GLOBAL| Diagonalization library                                       ScaLAPACK
 GLOBAL| Cholesky decomposition library                                ScaLAPACK
 GLOBAL| DGEMM library                                                      BLAS
 GLOBAL| Direct generalized diagonalization requested                          F
 GLOBAL| Orthonormality check for eigenvectors                          DISABLED
 GLOBAL| Matrix multiplication library                                 ScaLAPACK
 GLOBAL| All-to-all communication in single precision                          F
 GLOBAL| FFTs using library dependent lengths                                  F
 GLOBAL| Grid backend                                                       AUTO
 GLOBAL| Global print level                                                  LOW
 GLOBAL| MPI I/O enabled                                                       T
 GLOBAL| Total number of message passing processes                             1
 GLOBAL| Number of distributed systems (nodes)                                 1
 GLOBAL| Number of threads for this process                                    1
 GLOBAL| This output is from process                                           0
 GLOBAL| OpenMP stack size per thread (OMP_STACKSIZE)                    default
 GLOBAL| CPU model name                                                  UNKNOWN
 GLOBAL| CPUID                                                              2200
 GLOBAL| Compiled for CPUID                                                 2000

 *** HINT in environment.F:970 :: The compiler target flags (arm_arch64)   ***
 *** used to build this binary cannot exploit all extensions of this CPU   ***
 *** model (arm_sve256). Consider compiler target flags as part of FCFLAGS ***
 *** and CFLAGS (ARCH file).                                               ***


 MEMORY| system memory details [Kb]
 MEMORY|                        rank 0           min           max       average
 MEMORY| MemTotal            125508532     125508532     125508532     125508532
 MEMORY| MemFree             105912680     105912680     105912680     105912680
 MEMORY| Buffers                866120        866120        866120        866120
 MEMORY| Cached               13217076      13217076      13217076      13217076
 MEMORY| Slab                  1564704       1564704       1564704       1564704
 MEMORY| SReclaimable           888664        888664        888664        888664
 MEMORY| MemLikelyFree       120884540     120884540     120884540     120884540


 GENERATE|  Preliminary Number of Bonds generated:                             0
 GENERATE|  Achieved consistency in connectivity generation.


                  #####   #####        #     #   #     #       #          
                 #     # #     #      #    ##### #     #   # #####  ####  
                 #     # #           #       #   ###   #       #   #    # 
                 #     #  #####     #        #   #  #  #   #   #   ###### 
                 #   # #       #   #         #   #   # #   #   #   #      
                 #    #  #     #  #          #   #  #  # # #   #    #   # 
                  #### #  #####  #           #   ###   ##  #   #     ###  

                                   GFN2-xTB  
                                 Version 0.0                       
                            Johann V. Pototschnig                  



 TOTAL NUMBERS AND MAXIMUM NUMBERS

  Total number of            - Atomic kinds:                                   4
                             - Atoms:                                          6
                             - Shell sets:                                     9
                             - Shells:                                         9
                             - Primitive Cartesian functions:                 33
                             - Cartesian basis functions:                     15
                             - Spherical basis functions:                     15

  Maximum angular momentum of the orbital basis functions:                     1


 SCF PARAMETERS         Density guess:                                     MOPAC
                        --------------------------------------------------------
                        max_scf:                                             300
                        max_scf_history:                                       0
                        max_diis:                                              4
                        --------------------------------------------------------
                        eps_scf:                                        1.00E-09
                        eps_scf_history:                                0.00E+00
                        eps_diis:                                       1.00E-01
                        eps_eigval:                                     1.00E-05
                        --------------------------------------------------------
                        level_shift [a.u.]:                             0.000000
                        added MOs                                         6    0
                        --------------------------------------------------------
                        Mixing method:                           DIRECT_P_MIXING
                        --------------------------------------------------------
                        Smear method:                                FERMI_DIRAC
                        Electronic temperature [K]:                        300.0
                        Electronic temperature [a.u.]:                  9.50E-04
                        Accuracy threshold:                             1.00E-06
                        --------------------------------------------------------
                        No outer SCF

 BFGS| Use rational function optimization for step estimation:                NO
 BFGS| Use model Hessian for initial guess:                                  YES
 BFGS| Restart Hessian:                                                       NO
 BFGS| Trust radius:                                                       0.472

 *******************************************************************************
 ***                     STARTING GEOMETRY OPTIMIZATION                      ***
 ***                                   BFGS                                  ***
 *******************************************************************************

 Extrapolation method: initial_guess

 Number of electrons:                                                         18
 Number of occupied orbitals:                                                  9
 Number of molecular orbitals:                                                15

 Number of orbital functions:                                                 15
 Number of independent orbital functions:                                     15


 SCF WAVEFUNCTION OPTIMIZATION

  Step     Update method      Time    Convergence         Total energy    Change
  ------------------------------------------------------------------------------
     1 TBLite/Diag 0.40E+00    0.0     1.04257771       -10.4943806346 -1.05E+01
     2 TBLite/Diag 0.40E+00    0.0     0.30680705       -10.6335867299 -1.39E-01
     3 TBLite/Diag 0.40E+00    0.0     0.08583472       -10.6405833161 -7.00E-03
     4 TBLite/Diag 0.40E+00    0.0     0.05441288       -10.6427282301 -2.14E-03
     5 TBLite/Diag 0.40E+00    0.0     0.02847563       -10.6433121115 -5.84E-04
     6 TBLite/Diag 0.40E+00    0.0     0.00977855       -10.6434936772 -1.82E-04
     7 TBLite/Diag 0.40E+00    0.0     0.00116432       -10.6434935558  1.21E-07
     8 TBLite/Diag 0.40E+00    0.0     0.00096408       -10.6434942912 -7.35E-07
     9 TBLite/Diag 0.40E+00    0.0     0.00035019       -10.6434942649  2.63E-08
    10 TBLite/Diag 0.40E+00    0.0     0.00017337       -10.6434943329 -6.80E-08
    11 TBLite/Diag 0.40E+00    0.0     0.00001608       -10.6434943333 -4.18E-10
    12 TBLite/Diag 0.40E+00    0.0     0.00000206       -10.6434943333 -1.06E-11
    13 TBLite/Diag 0.40E+00    0.0     0.00000043       -10.6434943333 -3.36E-13
    14 TBLite/Diag 0.40E+00    0.0     0.00000022       -10.6434943333 -2.31E-14
    15 TBLite/Diag 0.40E+00    0.0     0.00000009       -10.6434943333 -3.55E-15
    16 TBLite/Diag 0.40E+00    0.0     3.7562E-09       -10.6434943333 -3.55E-15
    17 TBLite/Diag 0.40E+00    0.0     1.1740E-09       -10.6434943333  0.00E+00
    18 TBLite/Diag 0.40E+00    0.0     7.6230E-11       -10.6434943333  0.00E+00

  *** SCF run converged in    18 steps ***


  Core Hamiltonian energy:                                    -10.79269876009861
  Repulsive potential energy:                                   0.10816732018737
  Electrostatic energy:                                         0.04269152389689
  Self-consistent dispersion energy:                           -0.00165447201546
  Non-self consistent dispersion energy:                        0.00000005470516
  Correction for halogen bonding:                               0.00000000000000
  Electronic entropic energy:                                  -0.00000000000000
  Fermi energy:                                                -0.25849936651481

  Total energy:                                               -10.64349433332464
  Total energy (extrapolated to T->0):                        -10.64349433332464

 ENERGY| Total FORCE_EVAL ( QS ) energy [hartree]            -10.643494333324638

 OPT| **************************************************************************
 OPT| Step number                                                              0
 OPT| Optimization method                                                   BFGS
 OPT| Total energy [hartree]                                      -10.6434943333
 OPT| Used time [s]                                                        0.013
 OPT| **************************************************************************
 OPT| Estimated peak process memory [MiB]                                    162

 --------------------------
 OPTIMIZATION STEP:      1
 --------------------------

 Extrapolation method: ASPC

 Number of electrons:                                                         18
 Number of occupied orbitals:                                                  9
 Number of molecular orbitals:                                                15

 Number of orbital functions:                                                 15
 Number of independent orbital functions:                                     15


 SCF WAVEFUNCTION OPTIMIZATION

  Step     Update method      Time    Convergence         Total energy    Change
  ------------------------------------------------------------------------------
     1 TBLite/Diag 0.40E+00    0.0     0.02205688       -10.6442003998 -1.06E+01
     2 TBLite/Diag 0.40E+00    0.0     0.00317190       -10.6442156823 -1.53E-05
     3 TBLite/Diag 0.40E+00    0.0     0.00138396       -10.6442169074 -1.23E-06
     4 TBLite/Diag 0.40E+00    0.0     0.00068605       -10.6442175302 -6.23E-07
     5 TBLite/Diag 0.40E+00    0.0     0.00018499       -10.6442175765 -4.63E-08
     6 TBLite/Diag 0.40E+00    0.0     0.00007425       -10.6442175839 -7.40E-09
     7 TBLite/Diag 0.40E+00    0.0     0.00002372       -10.6442175842 -3.45E-10
     8 TBLite/Diag 0.40E+00    0.0     0.00000111       -10.6442175842 -2.72E-12
     9 TBLite/Diag 0.40E+00    0.0     0.00000061       -10.6442175842 -6.55E-13
    10 TBLite/Diag 0.40E+00    0.0     0.00000003       -10.6442175842  8.88E-15
    11 TBLite/Diag 0.40E+00    0.0     4.2695E-09       -10.6442175842 -1.24E-14
    12 TBLite/Diag 0.40E+00    0.0     1.0250E-09       -10.6442175842  0.00E+00
    13 TBLite/Diag 0.40E+00    0.0     1.6643E-10       -10.6442175842  1.07E-14

  *** SCF run converged in    13 steps ***


  Core Hamiltonian energy:                                    -10.79965560976113
  Repulsive potential energy:                                   0.11517760898588
  Electrostatic energy:                                         0.04192080386434
  Self-consistent dispersion energy:                           -0.00166043961864
  Non-self consistent dispersion energy:                        0.00000005231474
  Correction for halogen bonding:                               0.00000000000000
  Electronic entropic energy:                                  -0.00000000000000
  Fermi energy:                                                -0.25248747436729

  Total energy:                                               -10.64421758421481
  Total energy (extrapolated to T->0):                        -10.64421758421481

 ENERGY| Total FORCE_EVAL ( QS ) energy [hartree]            -10.644217584214806

 OPT| **************************************************************************
 OPT| Step number                                                              1
 OPT| Optimization method                                                   BFGS
 OPT| Total energy [hartree]                                      -10.6442175842
 OPT| Effective energy change [hartree]                            -0.0007232509
 OPT| Predicted energy change [hartree]                            -0.0005785505
 OPT| Scaling factor                                                0.0000000000
 OPT| Step size                                                     0.0260079254
 OPT| Trust radius                                                  0.4724315332
 OPT| Decrease in energy                                                     YES
 OPT| Used time [s]                                                        0.010
 OPT|
 OPT| Maximum step size                                             0.0260079254
 OPT| Convergence limit for maximum step size                       0.0030000000
 OPT| Maximum step size is converged                                          NO
 OPT|
 OPT| RMS step size                                                 0.0101854503
 OPT| Convergence limit for RMS step size                           0.0015000000
 OPT| RMS step size is converged                                              NO
 OPT|
 OPT| Maximum gradient                                              0.0051628655
 OPT| Convergence limit for maximum gradient                        0.0004500000
 OPT| Maximum gradient is converged                                           NO
 OPT|
 OPT| RMS gradient                                                  0.0023502331
 OPT| Convergence limit for RMS gradient                            0.0003000000
 OPT| RMS gradient is converged                                               NO
 OPT| **************************************************************************
 OPT| Estimated peak process memory after this step [MiB]                    162

 --------------------------
 OPTIMIZATION STEP:      2
 --------------------------

 Extrapolation method: ASPC

 Number of electrons:                                                         18
 Number of occupied orbitals:                                                  9
 Number of molecular orbitals:                                                15

 Number of orbital functions:                                                 15
 Number of independent orbital functions:                                     15


 SCF WAVEFUNCTION OPTIMIZATION

  Step     Update method      Time    Convergence         Total energy    Change
  ------------------------------------------------------------------------------
     1 TBLite/Diag 0.40E+00    0.0     0.00707502       -10.6442659968 -1.06E+01
     2 TBLite/Diag 0.40E+00    0.0     0.00099875       -10.6442672441 -1.25E-06
     3 TBLite/Diag 0.40E+00    0.0     0.00050173       -10.6442673179 -7.38E-08
     4 TBLite/Diag 0.40E+00    0.0     0.00028164       -10.6442674401 -1.22E-07
     5 TBLite/Diag 0.40E+00    0.0     0.00005467       -10.6442674439 -3.78E-09
     6 TBLite/Diag 0.40E+00    0.0     0.00001833       -10.6442674443 -3.87E-10
     7 TBLite/Diag 0.40E+00    0.0     0.00000665       -10.6442674443 -4.14E-11
     8 TBLite/Diag 0.40E+00    0.0     0.00000076       -10.6442674443 -9.29E-13
     9 TBLite/Diag 0.40E+00    0.0     0.00000006       -10.6442674443 -1.78E-14
    10 TBLite/Diag 0.40E+00    0.0     0.00000004       -10.6442674443  5.33E-15
    11 TBLite/Diag 0.40E+00    0.0     3.2818E-09       -10.6442674443 -5.33E-15
    12 TBLite/Diag 0.40E+00    0.0     5.0720E-10       -10.6442674443  7.11E-15

  *** SCF run converged in    12 steps ***


  Core Hamiltonian energy:                                    -10.80170288211434
  Repulsive potential energy:                                   0.11742502029031
  Electrostatic energy:                                         0.04167321621809
  Self-consistent dispersion energy:                           -0.00166285014875
  Non-self consistent dispersion energy:                        0.00000005145896
  Correction for halogen bonding:                               0.00000000000000
  Electronic entropic energy:                                  -0.00000000000000
  Fermi energy:                                                -0.25032781078994

  Total energy:                                               -10.64426744429574
  Total energy (extrapolated to T->0):                        -10.64426744429574

 ENERGY| Total FORCE_EVAL ( QS ) energy [hartree]            -10.644267444295739

 OPT| **************************************************************************
 OPT| Step number                                                              2
 OPT| Optimization method                                                   BFGS
 OPT| Total energy [hartree]                                      -10.6442674443
 OPT| Effective energy change [hartree]                            -0.0000498601
 OPT| Predicted energy change [hartree]                            -0.0000524496
 OPT| Scaling factor                                                0.0000000000
 OPT| Step size                                                     0.0104127869
 OPT| Trust radius                                                  0.4724315332
 OPT| Decrease in energy                                                     YES
 OPT| Used time [s]                                                        0.010
 OPT|
 OPT| Maximum step size                                             0.0104127869
 OPT| Convergence limit for maximum step size                       0.0030000000
 OPT| Maximum step size is converged                                          NO
 OPT|
 OPT| RMS step size                                                 0.0039107044
 OPT| Convergence limit for RMS step size                           0.0015000000
 OPT| RMS step size is converged                                              NO
 OPT|
 OPT| Maximum gradient                                              0.0009009979
 OPT| Convergence limit for maximum gradient                        0.0004500000
 OPT| Maximum gradient is converged                                           NO
 OPT|
 OPT| RMS gradient                                                  0.0003736395
 OPT| Convergence limit for RMS gradient                            0.0003000000
 OPT| RMS gradient is converged                                               NO
 OPT| **************************************************************************
 OPT| Estimated peak process memory after this step [MiB]                    163

 --------------------------
 OPTIMIZATION STEP:      3
 --------------------------

 Extrapolation method: ASPC

 Number of electrons:                                                         18
 Number of occupied orbitals:                                                  9
 Number of molecular orbitals:                                                15

 Number of orbital functions:                                                 15
 Number of independent orbital functions:                                     15


 SCF WAVEFUNCTION OPTIMIZATION

  Step     Update method      Time    Convergence         Total energy    Change
  ------------------------------------------------------------------------------
     1 TBLite/Diag 0.40E+00    0.0     0.00276576       -10.6442694564 -1.06E+01
     2 TBLite/Diag 0.40E+00    0.0     0.00034750       -10.6442695726 -1.16E-07
     3 TBLite/Diag 0.40E+00    0.0     0.00011218       -10.6442695774 -4.80E-09
     4 TBLite/Diag 0.40E+00    0.0     0.00005842       -10.6442695804 -3.00E-09
     5 TBLite/Diag 0.40E+00    0.0     0.00001339       -10.6442695806 -2.30E-10
     6 TBLite/Diag 0.40E+00    0.0     0.00000222       -10.6442695806 -9.84E-12
     7 TBLite/Diag 0.40E+00    0.0     0.00000065       -10.6442695806 -6.87E-13
     8 TBLite/Diag 0.40E+00    0.0     0.00000010       -10.6442695806  0.00E+00
     9 TBLite/Diag 0.40E+00    0.0     8.8882E-09       -10.6442695806 -5.33E-15
    10 TBLite/Diag 0.40E+00    0.0     6.1642E-09       -10.6442695806  7.11E-15
    11 TBLite/Diag 0.40E+00    0.0     1.2630E-09       -10.6442695806 -3.55E-15
    12 TBLite/Diag 0.40E+00    0.0     1.9645E-11       -10.6442695806  0.00E+00

  *** SCF run converged in    12 steps ***


  Core Hamiltonian energy:                                    -10.80161331410141
  Repulsive potential energy:                                   0.11729560667474
  Electrostatic energy:                                         0.04171094794649
  Self-consistent dispersion energy:                           -0.00166287270557
  Non-self consistent dispersion energy:                        0.00000005157701
  Correction for halogen bonding:                               0.00000000000000
  Electronic entropic energy:                                  -0.00000000000000
  Fermi energy:                                                -0.25033575368060

  Total energy:                                               -10.64426958060874
  Total energy (extrapolated to T->0):                        -10.64426958060874

 ENERGY| Total FORCE_EVAL ( QS ) energy [hartree]            -10.644269580608745

 OPT| **************************************************************************
 OPT| Step number                                                              3
 OPT| Optimization method                                                   BFGS
 OPT| Total energy [hartree]                                      -10.6442695806
 OPT| Effective energy change [hartree]                            -0.0000021363
 OPT| Predicted energy change [hartree]                            -0.0000022094
 OPT| Scaling factor                                                0.0000000000
 OPT| Step size                                                     0.0030999188
 OPT| Trust radius                                                  0.4724315332
 OPT| Decrease in energy                                                     YES
 OPT| Used time [s]                                                        0.010
 OPT|
 OPT| Maximum step size                                             0.0030999188
 OPT| Convergence limit for maximum step size                       0.0030000000
 OPT| Maximum step size is converged                                          NO
 OPT|
 OPT| RMS step size                                                 0.0012325151
 OPT| Convergence limit for RMS step size                           0.0015000000
 OPT| RMS step size is converged                                             YES
 OPT|
 OPT| Maximum gradient                                              0.0005205225
 OPT| Convergence limit for maximum gradient                        0.0004500000
 OPT| Maximum gradient is converged                                           NO
 OPT|
 OPT| RMS gradient                                                  0.0001930848
 OPT| Convergence limit for RMS gradient                            0.0003000000
 OPT| RMS gradient is converged                                              YES
 OPT| **************************************************************************
 OPT| Estimated peak process memory after this step [MiB]                    163

 --------------------------
 OPTIMIZATION STEP:      4
 --------------------------

 Extrapolation method: ASPC

 Number of electrons:                                                         18
 Number of occupied orbitals:                                                  9
 Number of molecular orbitals:                                                15

 Number of orbital functions:                                                 15
 Number of independent orbital functions:                                     15


 SCF WAVEFUNCTION OPTIMIZATION

  Step     Update method      Time    Convergence         Total energy    Change
  ------------------------------------------------------------------------------
     1 TBLite/Diag 0.40E+00    0.0     0.00061854       -10.6442702026 -1.06E+01
     2 TBLite/Diag 0.40E+00    0.0     0.00018942       -10.6442702410 -3.84E-08
     3 TBLite/Diag 0.40E+00    0.0     0.00003509       -10.6442702427 -1.66E-09
     4 TBLite/Diag 0.40E+00    0.0     0.00001213       -10.6442702429 -2.58E-10
     5 TBLite/Diag 0.40E+00    0.0     0.00000375       -10.6442702429 -6.81E-12
     6 TBLite/Diag 0.40E+00    0.0     0.00000197       -10.6442702429 -5.47E-12
     7 TBLite/Diag 0.40E+00    0.0     0.00000050       -10.6442702429 -2.49E-13
     8 TBLite/Diag 0.40E+00    0.0     0.00000010       -10.6442702429 -1.78E-15
     9 TBLite/Diag 0.40E+00    0.0     0.00000001       -10.6442702429  8.88E-15
    10 TBLite/Diag 0.40E+00    0.0     1.9890E-09       -10.6442702429 -7.11E-15
    11 TBLite/Diag 0.40E+00    0.0     6.3841E-10       -10.6442702429 -3.55E-15

  *** SCF run converged in    11 steps ***


  Core Hamiltonian energy:                                    -10.80149751243714
  Repulsive potential energy:                                   0.11715788715217
  Electrostatic energy:                                         0.04173220988478
  Self-consistent dispersion energy:                           -0.00166287914183
  Non-self consistent dispersion energy:                        0.00000005159415
  Correction for halogen bonding:                               0.00000000000000
  Electronic entropic energy:                                  -0.00000000000000
  Fermi energy:                                                -0.25039268960176

  Total energy:                                               -10.64427024294787
  Total energy (extrapolated to T->0):                        -10.64427024294787

 ENERGY| Total FORCE_EVAL ( QS ) energy [hartree]            -10.644270242947869

 OPT| **************************************************************************
 OPT| Step number                                                              4
 OPT| Optimization method                                                   BFGS
 OPT| Total energy [hartree]                                      -10.6442702429
 OPT| Effective energy change [hartree]                            -0.0000006623
 OPT| Predicted energy change [hartree]                            -0.0000005471
 OPT| Scaling factor                                                0.0000000000
 OPT| Step size                                                     0.0013114533
 OPT| Trust radius                                                  0.4724315332
 OPT| Decrease in energy                                                     YES
 OPT| Used time [s]                                                        0.009
 OPT|
 OPT| Maximum step size                                             0.0013114533
 OPT| Convergence limit for maximum step size                       0.0030000000
 OPT| Maximum step size is converged                                         YES
 OPT|
 OPT| RMS step size                                                 0.0005303434
 OPT| Convergence limit for RMS step size                           0.0015000000
 OPT| RMS step size is converged                                             YES
 OPT|
 OPT| Maximum gradient                                              0.0000812012
 OPT| Convergence limit for maximum gradient                        0.0004500000
 OPT| Maximum gradient is converged                                          YES
 OPT|
 OPT| RMS gradient                                                  0.0000394103
 OPT| Convergence limit for RMS gradient                            0.0003000000
 OPT| RMS gradient is converged                                              YES
 OPT| **************************************************************************
 OPT| Estimated peak process memory after this step [MiB]                    163

 *******************************************************************************
 ***                    GEOMETRY OPTIMIZATION COMPLETED                      ***
 *******************************************************************************

 write_final_structure: Optimization converged, writing XYZ file gladly:
  formamide_GFN2_mol_geoopt-FINAL-1_4.xyz

 write_final_structure: Optimization converged, writing CIF file gladly:
  formamide_GFN2_mol_geoopt-FINAL-1_4.cif

 write_final_structure: Done!

                    Reevaluating energy at the minimum

 Extrapolation method: ASPC

 Number of electrons:                                                         18
 Number of occupied orbitals:                                                  9
 Number of molecular orbitals:                                                15

 Number of orbital functions:                                                 15
 Number of independent orbital functions:                                     15


 SCF WAVEFUNCTION OPTIMIZATION

  Step     Update method      Time    Convergence         Total energy    Change
  ------------------------------------------------------------------------------
     1 TBLite/Diag 0.40E+00    0.0     1.3036E-10       -10.6442702429 -1.06E+01

  *** SCF run converged in     1 steps ***


  Core Hamiltonian energy:                                    -10.80149751242675
  Repulsive potential energy:                                   0.11715788715217
  Electrostatic energy:                                         0.04173220987433
  Self-consistent dispersion energy:                           -0.00166287914178
  Non-self consistent dispersion energy:                        0.00000005159415
  Correction for halogen bonding:                               0.00000000000000
  Electronic entropic energy:                                  -0.00000000000000
  Fermi energy:                                                -0.25039268960453

  Total energy:                                               -10.64427024294786
  Total energy (extrapolated to T->0):                        -10.64427024294786

 ENERGY| Total FORCE_EVAL ( QS ) energy [hartree]            -10.644270242947862

 -------------------------------------------------------------------------------
 -                                                                             -
 -                                DBCSR STATISTICS                             -
 -                                                                             -
 -------------------------------------------------------------------------------
 COUNTER                                    TOTAL       BLAS       SMM       ACC
 flops     1 x    15 x     1                 4050       0.0%    100.0%      0.0%     
 flops     1 x     1 x    15                13860       0.0%    100.0%      0.0%     
 flops     4 x    15 x     1                16200       0.0%    100.0%      0.0%     
 flops     1 x    15 x     4                16200       0.0%    100.0%      0.0%     
 flops     4 x     1 x    15                36960       0.0%    100.0%      0.0%     
 flops     1 x     4 x    15                46200       0.0%    100.0%      0.0%     
 flops     4 x    15 x     4                64800       0.0%    100.0%      0.0%     
 flops     4 x     4 x    15               221760       0.0%    100.0%      0.0%     
 flops inhomo. stacks                           0       0.0%      0.0%      0.0%
 flops total                       420.030000E+03       0.0%    100.0%      0.0%
 flops max/rank                    420.030000E+03       0.0%    100.0%      0.0%
 matmuls inhomo. stacks                         0       0.0%      0.0%      0.0%
 matmuls total                               2157       0.0%    100.0%      0.0%
 number of processed stacks                   368       0.0%    100.0%      0.0%
 average stack size                                     0.0       5.9       0.0
 marketing flops                   413.100000E+03
 -------------------------------------------------------------------------------
 # multiplications                             92
 max memory usage/rank              13.669212E+09
 # max total images/rank                        1
 # max 3D layers                                1
 # MPI messages exchanged                       0
 -------------------------------------------------------------------------------
 -                                                                             -
 -                      DBCSR MESSAGE PASSING PERFORMANCE                      -
 -                                                                             -
 -------------------------------------------------------------------------------
 ROUTINE             CALLS      AVE VOLUME [Bytes]
 MP_Bcast                9                     12.
 MP_Allreduce          465                      9.
 MP_Alltoall          3155                   1356.
 MP_ISend              368                    169.
 MP_IRecv              368                    169.
 -------------------------------------------------------------------------------

 -------------------------------------------------------------------------------
 -                                                                             -
 -                          OFFLOAD MEMPOOL STATISTICS                         -
 -                                                                             -
 -------------------------------------------------------------------------------
 Memory consumption                Number of allocations  Used [MiB]  Size [MiB]
 Device                                                1           0           0
 Host                                                  1           0           0
 -------------------------------------------------------------------------------

 MEMORY| Estimated peak process memory [MiB]                                 163

 -------------------------------------------------------------------------------
 -                                                                             -
 -                         MESSAGE PASSING PERFORMANCE                         -
 -                                                                             -
 -------------------------------------------------------------------------------

 ROUTINE             CALLS      AVE VOLUME [Bytes]
 MP_Group                1
 MP_Bcast              148                     65.
 MP_Allreduce         2438                     45.
 MP_Sync                78
 MP_comm_split          77
 -------------------------------------------------------------------------------


 -------------------------------------------------------------------------------
 -                                                                             -
 -                           R E F E R E N C E S                               -
 -                                                                             -
 -------------------------------------------------------------------------------
 
 CP2K version 2026.1 (Development Version), the CP2K developers group (2026).
 CP2K is freely available from https://www.cp2k.org/ .
 
 M. Iannuzzi, J. Wilhelm, F. Stein, A. Bussy, H. Elgabarty, D. Golze, A. Hehn, 
 M. Graml, S. Marek, B. Sertcan Gökmen, C. Schran, H. Forbert, R. Z. 
 Khaliullin, A. Kozhevnikov, M. Taillefumier, R. Meli, V. V. Rybkin, M. Brehm, 
 R. Schade, O. Schütt, J. V. Pototschnig, H. Mirhosseini, A. Knüpfer, D. Marx, 
 M. Krack, J. Hutter, T. D. Kühne.
 J. Phys. Chem. B 130, 1237-1310 (2026).
 The CP2K Program Package Made Simple.
 https://doi.org/10.1021/acs.jpcb.5c05851

 A. Katbashev, M. Stahn, T. Rose, V. Alizadeh, M. Friede, C. Plett, P. 
 Steinbach, S. Ehlert.
 J. Phys. Chem. A 129, 2667-2682 (2025).
 Overview on Building Blocks and Applications of Efficient and Robust Extended 
 Tight Binding.
 https://doi.org/10.1021/acs.jpca.4c08263

 T. D. Kühne, M. Iannuzzi, M. Del Ben, V. V. Rybkin, P. Seewald, F. Stein, T. 
 Laino, R. Z. Khaliullin, O. Schütt, F. Schiffmann, D. Golze, J. Wilhelm, S. 
 Chulkov, M. H. Bani-Hashemian, V. Weber, U. Borstnik, M. Taillefumier, A. S. 
 Jakobovits, A. Lazzaro, H. Pabst, T. Müller, R. Schade, M. Guidon, S. 
 Andermatt, N. Holmberg, G. K. Schenter, A. Hehn, A. Bussy, F. Belleflamme, G. 
 Tabacchi, A. Glöß, M. Lass, I. Bethune, C. J. Mundy, C. Plessl, M. Watkins, 
 J. VandeVondele, M. Krack, J. Hutter.
 J. Chem. Phys. 152, 194103 (2020).
 CP2K: An electronic structure and molecular dynamics software package - 
 Quickstep: Efficient and accurate electronic structure calculations.
 https://doi.org/10.1063/5.0007045

 P. Pracht, E. Caldeweyher, S. Ehlert, S. Grimme.
 ChemRxiv, (2019).
 A Robust Non-Self-Consistent Tight-Binding Quantum Chemistry Method for large 
 Molecules.
 https://doi.org/10.26434/chemrxiv.8326202.v1

 S. Grimme, C. Bannwarth, P. Shushkov.
 J. Chem. Theory Comput. 13, 1989 (2017).
 A Robust and Accurate Tight-Binding Quantum Chemical Method for Structures, 
 Vibrational Frequencies, and Noncovalent Interactions of Large Molecular 
 Systems Parametrized for All spd-Block Elements (Z = 1-86).
 https://doi.org/10.1021/acs.jctc.7b00118

 O. Schuett, P. Messmer, J. Hutter, J. VandeVondele.
 Electronic Structure Calculations on Graphics Processing Units, 173-190 (2016).
 GPU-Accelerated Sparse Matrix-Matrix Multiplication for Linear Scaling Density 
 Functional Theory.
 https://doi.org/10.1002/9781118670712.ch8

 A. Heinecke, G. Henry, M. Hutchinson, H. Pabst.
 Proceedings of Intl. Supercomputing Conference, 981-991 (2016).
 LIBXSMM: Accelerating Small Matrix Multiplications by Runtime Code Generation.
 https://doi.org/10.1109/SC.2016.83

 U. Borstnik, J. VandeVondele, V. Weber, J. Hutter.
 Parallel Comput. 40, 47-58 (2014).
 Sparse matrix multiplication: The distributed block-compressed sparse row 
 library.
 https://doi.org/10.1016/j.parco.2014.03.012

 T. D. Kühne, M. Krack, F. R. Mohamed, M. Parrinello.
 Phys. Rev. Lett. 98, 066401 (2007).
 Efficient and accurate Car-Parrinello-like approach to Born-Oppenheimer 
 molecular dynamics.
 https://doi.org/10.1103/PhysRevLett.98.066401

 M. Frigo, S. G. Johnson.
 Proc. IEEE 93, 216-231 (2005).
 The design and implementation of FFTW3.
 https://doi.org/10.1109/JPROC.2004.840301

 J. Kolafa.
 J. Comput. Chem. 25, 335-342 (2004).
 Time-reversible always stable predictor-corrector method for molecular dynamics 
 of polarizable molecules.
 https://doi.org/10.1002/jcc.10385

 N. D. Mermin.
 Phys. Rev. 137, A1441-A1443 (1965).
 Thermal Properties of the Inhomogeneous Electron Gas.
 https://doi.org/10.1103/PhysRev.137.A1441


 -------------------------------------------------------------------------------
 -                                                                             -
 -                                T I M I N G                                  -
 -                                                                             -
 -------------------------------------------------------------------------------
 SUBROUTINE                       CALLS  ASD         SELF TIME        TOTAL TIME
                                MAXIMUM       AVERAGE  MAXIMUM  AVERAGE  MAXIMUM
 CP2K                                 1  1.0    0.002    0.002    0.059    0.059
 cp_geo_opt                           1  2.0    0.000    0.000    0.054    0.054
 geoopt_bfgs                          1  3.0    0.000    0.000    0.054    0.054
 cp_eval_at                           6  4.0    0.000    0.000    0.051    0.051
 qs_forces                            5  5.0    0.000    0.000    0.049    0.049
 qs_energies                          6  5.8    0.000    0.000    0.048    0.048
 scf_env_do_scf                       6  6.8    0.000    0.000    0.039    0.039
 scf_env_do_scf_inner_loop           67  8.0    0.003    0.003    0.039    0.039
 qs_scf_new_mos                      67  9.0    0.000    0.000    0.029    0.029
 cp_dbcsr_plus_fm_fm_t               77 10.8    0.000    0.000    0.017    0.017
 calculate_dm_sparse                 72 10.0    0.000    0.000    0.017    0.017
 dbcsr_multiply_generic              92 11.9    0.001    0.001    0.015    0.015
 make_m2s                           184 12.9    0.000    0.000    0.008    0.008
 copy_dbcsr_to_fm                   149 10.4    0.000    0.000    0.008    0.008
 dbcsr_complete_redistribute        318 12.2    0.003    0.003    0.007    0.007
 init_scf_run                         6  6.8    0.000    0.000    0.005    0.005
 rebuild_ks_matrix                   72  9.8    0.000    0.000    0.005    0.005
 build_tblite_ks_matrix              72 10.8    0.004    0.004    0.005    0.005
 qs_diis_b_step                      61 10.0    0.000    0.000    0.005    0.005
 scf_env_initial_rho_setup            6  7.8    0.000    0.000    0.005    0.005
 wfi_extrapolate                      6  8.8    0.000    0.000    0.005    0.005
 eigensolver                         67 10.0    0.001    0.001    0.005    0.005
 cp_fm_syevd                         77 10.6    0.000    0.000    0.005    0.005
 qs_ks_update_qs_env                 67  9.0    0.000    0.000    0.004    0.004
 copy_fm_to_dbcsr                   169 11.8    0.000    0.000    0.004    0.004
 make_images                        184 13.9    0.001    0.001    0.004    0.004
 build_tblite_matrices               11  7.0    0.001    0.001    0.003    0.003
 dbcsr_finalize                    1762 12.1    0.001    0.001    0.003    0.003
 multiply_cannon                     92 12.9    0.001    0.001    0.003    0.003
 cp_dbcsr_sm_fm_multiply             15 10.3    0.000    0.000    0.003    0.003
 qs_init_subsys                       1  2.0    0.000    0.000    0.003    0.003
 dbcsr_create_new                  2449 13.0    0.002    0.002    0.003    0.003
 qs_energies_init_hamiltonians        6  6.8    0.000    0.000    0.002    0.002
 cp_fm_syevd_base                    77 11.6    0.002    0.002    0.002    0.002
 dbcsr_crop_matrix                  154 13.8    0.000    0.000    0.002    0.002
 dbcsr_desymmetrize_deep            149 11.4    0.001    0.001    0.002    0.002
 dbcsr_copy_submatrix               154 14.8    0.000    0.000    0.002    0.002
 dbcsr_iterator_start              4148 12.6    0.001    0.001    0.002    0.002
 tb_get_multipole                    11  8.0    0.001    0.001    0.002    0.002
 cp_dbcsr_sm_fm_multiply_core        15 11.3    0.000    0.000    0.002    0.002
 dbcsr_merge_all                    549 14.9    0.001    0.001    0.002    0.002
 reorthogonalize_vectors              5  9.8    0.000    0.000    0.002    0.002
 cp_fm_redistribute_start            77 11.6    0.001    0.001    0.002    0.002
 make_basis_lowdin                    5 10.8    0.000    0.000    0.002    0.002
 dbcsr_iterator_stop               4148 12.6    0.001    0.001    0.001    0.001
 dbcsr_destroy                     2310 12.4    0.001    0.001    0.001    0.001
 make_images_data                   184 14.9    0.001    0.001    0.001    0.001
 parallel_gemm_fm_gemm              157 10.6    0.000    0.000    0.001    0.001
 qs_env_setup                         1  3.0    0.000    0.000    0.001    0.001
 cp_fm_gemm                         157 11.6    0.001    0.001    0.001    0.001
 dbcsr_make_images_dense            154 13.8    0.000    0.000    0.001    0.001
 qs_env_rebuild_pw_env               12  6.2    0.000    0.000    0.001    0.001
 pw_env_rebuild                       1  5.0    0.000    0.000    0.001    0.001
 -------------------------------------------------------------------------------

 The number of warnings for this run is : 0
 
 -------------------------------------------------------------------------------
  **** **** ******  **  PROGRAM ENDED AT                 2026-05-23 22:46:20.774
 ***** ** ***  *** **   PROGRAM RAN ON                                spark-c86c
 **    ****   ******    PROGRAM RAN BY                                  kuehne88
 ***** **    ** ** **   PROGRAM PROCESS ID                               2227344
  **** **  *******  **  PROGRAM STOPPED IN /home/kuehne88/periodic-gfn2-benchmar
                                           ks/X23b/runs/molecule_geoopt/GFN2/for
                                           mamide_GFN2_mol_geoopt
