 DBCSR| CPU Multiplication driver                                           XSMM (U)
 DBCSR| Multrec recursion limit                                              512 (U)
 DBCSR| Multiplication stack size                                           1000 (D)
 DBCSR| Maximum elements for images                                    UNLIMITED (U)
 DBCSR| Multiplicative factor virtual images                                   1 (U)
 DBCSR| Use multiplication densification                                       T (D)
 DBCSR| Multiplication size stacks                                             3 (U)
 DBCSR| Use memory pool for CPU allocation                                     F (U)
 DBCSR| Number of 3D layers                                               SINGLE (U)
 DBCSR| Use MPI memory allocation                                              F (U)
 DBCSR| Use RMA algorithm                                                      F (U)
 DBCSR| Use Communication thread                                               T (U)
 DBCSR| Communication thread load                                             87 (D)
 DBCSR| MPI: My process id                                                     0
 DBCSR| MPI: Number of processes                                               1
 DBCSR| OMP: Current number of threads                                         1
 DBCSR| OMP: Max number of threads                                             1
 DBCSR| Split modifier for TAS multiplication algorithm                  1.0E+00 (U)


  **** **** ******  **  PROGRAM STARTED AT               2026-05-23 22:46:18.305
 ***** ** ***  *** **   PROGRAM STARTED ON                            spark-c86c
 **    ****   ******    PROGRAM STARTED BY                              kuehne88
 ***** **    ** ** **   PROGRAM PROCESS ID                               2222429
  **** **  *******  **  PROGRAM STARTED IN /home/kuehne88/periodic-gfn2-benchmar
                                           ks/X23b/runs/molecule_geoopt/GFN1/ada
                                           mantane_GFN1_mol_geoopt

 CP2K| version string:                 CP2K version 2026.1 (Development Version)
 CP2K| source code revision number:                                   0622d442e4
 CP2K| cp2kflags: omp fftw3 libxc parallel scalapack mpi_f08 xsmm spglib libdftd
 CP2K|            4 dftd4_v3 mctc-lib tblite
 CP2K| is freely available from                            https://www.cp2k.org/
 CP2K| Program compiled at                                   2026-05-23 22:05:08
 CP2K| Program compiled on                                            spark-c86c
 CP2K| Program compiled for                                              aarch64
 CP2K| Data directory path    /home/kuehne88/cp2k-master-tblite-20260523/install
 CP2K| Input file name                            adamantane_GFN1_mol_geoopt.inp

 GLOBAL| Force Environment number                                              1
 GLOBAL| Basis set file name                                           BASIS_SET
 GLOBAL| Potential file name                                           POTENTIAL
 GLOBAL| MM Potential file name                                     MM_POTENTIAL
 GLOBAL| Coordinate file name                                      __STD_INPUT__
 GLOBAL| Method name                                                        CP2K
 GLOBAL| Project name                                 adamantane_GFN1_mol_geoopt
 GLOBAL| Run type                                                        GEO_OPT
 GLOBAL| FFT library                                                       FFTW3
 GLOBAL| Diagonalization library                                       ScaLAPACK
 GLOBAL| Cholesky decomposition library                                ScaLAPACK
 GLOBAL| DGEMM library                                                      BLAS
 GLOBAL| Direct generalized diagonalization requested                          F
 GLOBAL| Orthonormality check for eigenvectors                          DISABLED
 GLOBAL| Matrix multiplication library                                 ScaLAPACK
 GLOBAL| All-to-all communication in single precision                          F
 GLOBAL| FFTs using library dependent lengths                                  F
 GLOBAL| Grid backend                                                       AUTO
 GLOBAL| Global print level                                                  LOW
 GLOBAL| MPI I/O enabled                                                       T
 GLOBAL| Total number of message passing processes                             1
 GLOBAL| Number of distributed systems (nodes)                                 1
 GLOBAL| Number of threads for this process                                    1
 GLOBAL| This output is from process                                           0
 GLOBAL| OpenMP stack size per thread (OMP_STACKSIZE)                    default
 GLOBAL| CPU model name                                                  UNKNOWN
 GLOBAL| CPUID                                                              2200
 GLOBAL| Compiled for CPUID                                                 2000

 *** HINT in environment.F:970 :: The compiler target flags (arm_arch64)   ***
 *** used to build this binary cannot exploit all extensions of this CPU   ***
 *** model (arm_sve256). Consider compiler target flags as part of FCFLAGS ***
 *** and CFLAGS (ARCH file).                                               ***


 MEMORY| system memory details [Kb]
 MEMORY|                        rank 0           min           max       average
 MEMORY| MemTotal            125508532     125508532     125508532     125508532
 MEMORY| MemFree             105782636     105782636     105782636     105782636
 MEMORY| Buffers                865972        865972        865972        865972
 MEMORY| Cached               13214800      13214800      13214800      13214800
 MEMORY| Slab                  1565144       1565144       1565144       1565144
 MEMORY| SReclaimable           888300        888300        888300        888300
 MEMORY| MemLikelyFree       120751708     120751708     120751708     120751708


 GENERATE|  Preliminary Number of Bonds generated:                             0
 GENERATE|  Achieved consistency in connectivity generation.


                  #####   #####        #     #   #     #       #          
                 #     # #     #      #    ##### #     #   # #####  ####  
                 #     # #           #       #   ###   #       #   #    # 
                 #     #  #####     #        #   #  #  #   #   #   ###### 
                 #   # #       #   #         #   #   # #   #   #   #      
                 #    #  #     #  #          #   #  #  # # #   #    #   # 
                  #### #  #####  #           #   ###   ##  #   #     ###  

                                   GFN1-xTB  
                                 Version 0.0                       
                            Johann V. Pototschnig                  



 TOTAL NUMBERS AND MAXIMUM NUMBERS

  Total number of            - Atomic kinds:                                   2
                             - Atoms:                                         26
                             - Shell sets:                                    52
                             - Shells:                                        52
                             - Primitive Cartesian functions:                296
                             - Cartesian basis functions:                     72
                             - Spherical basis functions:                     72

  Maximum angular momentum of the orbital basis functions:                     1


 SCF PARAMETERS         Density guess:                                     MOPAC
                        --------------------------------------------------------
                        max_scf:                                             300
                        max_scf_history:                                       0
                        max_diis:                                              4
                        --------------------------------------------------------
                        eps_scf:                                        1.00E-09
                        eps_scf_history:                                0.00E+00
                        eps_diis:                                       1.00E-01
                        eps_eigval:                                     1.00E-05
                        --------------------------------------------------------
                        level_shift [a.u.]:                             0.000000
                        added MOs                                        44    0
                        --------------------------------------------------------
                        Mixing method:                           DIRECT_P_MIXING
                        --------------------------------------------------------
                        Smear method:                                FERMI_DIRAC
                        Electronic temperature [K]:                        300.0
                        Electronic temperature [a.u.]:                  9.50E-04
                        Accuracy threshold:                             1.00E-06
                        --------------------------------------------------------
                        No outer SCF

 BFGS| Use rational function optimization for step estimation:                NO
 BFGS| Use model Hessian for initial guess:                                  YES
 BFGS| Restart Hessian:                                                       NO
 BFGS| Trust radius:                                                       0.472

 *******************************************************************************
 ***                     STARTING GEOMETRY OPTIMIZATION                      ***
 ***                                   BFGS                                  ***
 *******************************************************************************

 Extrapolation method: initial_guess

 Number of electrons:                                                         56
 Number of occupied orbitals:                                                 28
 Number of molecular orbitals:                                                72

 Number of orbital functions:                                                 72
 Number of independent orbital functions:                                     72


 SCF WAVEFUNCTION OPTIMIZATION

  Step     Update method      Time    Convergence         Total energy    Change
  ------------------------------------------------------------------------------
     1 TBLite/Diag 0.40E+00    0.0     1.33239362       -29.8456055450 -2.98E+01
     2 TBLite/Diag 0.40E+00    0.0     0.00418158       -29.8457919793 -1.86E-04
     3 TBLite/Diag 0.40E+00    0.0     0.00111613       -29.8457920504 -7.11E-08
     4 TBLite/Diag 0.40E+00    0.0     0.00054097       -29.8457952013 -3.15E-06
     5 TBLite/Diag 0.40E+00    0.0     0.00007095       -29.8457952493 -4.80E-08
     6 TBLite/Diag 0.40E+00    0.0     0.00001294       -29.8457952496 -3.54E-10
     7 TBLite/Diag 0.40E+00    0.0     0.00000026       -29.8457952496 -4.33E-13
     8 TBLite/Diag 0.40E+00    0.0     0.00000006       -29.8457952496 -4.26E-14
     9 TBLite/Diag 0.40E+00    0.0     2.1053E-09       -29.8457952496 -1.07E-14
    10 TBLite/Diag 0.40E+00    0.0     5.4510E-10       -29.8457952496  1.42E-14

  *** SCF run converged in    10 steps ***


  Core Hamiltonian energy:                                    -30.21523892978404
  Repulsive potential energy:                                   0.38356517654389
  Electrostatic energy:                                         0.00055980117193
  Self-consistent dispersion energy:                            0.00000000000000
  Non-self consistent dispersion energy:                       -0.01468129756727
  Correction for halogen bonding:                               0.00000000000000
  Electronic entropic energy:                                  -0.00000000000000
  Fermi energy:                                                -0.14416876820474

  Total energy:                                               -29.84579524963548
  Total energy (extrapolated to T->0):                        -29.84579524963548

 ENERGY| Total FORCE_EVAL ( QS ) energy [hartree]            -29.845795249635479

 OPT| **************************************************************************
 OPT| Step number                                                              0
 OPT| Optimization method                                                   BFGS
 OPT| Total energy [hartree]                                      -29.8457952496
 OPT| Used time [s]                                                        0.028
 OPT| **************************************************************************
 OPT| Estimated peak process memory [MiB]                                    167

 --------------------------
 OPTIMIZATION STEP:      1
 --------------------------

 Extrapolation method: ASPC

 Number of electrons:                                                         56
 Number of occupied orbitals:                                                 28
 Number of molecular orbitals:                                                72

 Number of orbital functions:                                                 72
 Number of independent orbital functions:                                     72


 SCF WAVEFUNCTION OPTIMIZATION

  Step     Update method      Time    Convergence         Total energy    Change
  ------------------------------------------------------------------------------
     1 TBLite/Diag 0.40E+00    0.0     0.01160887       -29.8465370277 -2.98E+01
     2 TBLite/Diag 0.40E+00    0.0     0.00031346       -29.8465382135 -1.19E-06
     3 TBLite/Diag 0.40E+00    0.0     0.00032297       -29.8465383723 -1.59E-07
     4 TBLite/Diag 0.40E+00    0.0     0.00002698       -29.8465383792 -6.93E-09
     5 TBLite/Diag 0.40E+00    0.0     0.00003444       -29.8465383815 -2.29E-09
     6 TBLite/Diag 0.40E+00    0.0     0.00000206       -29.8465383816 -2.25E-11
     7 TBLite/Diag 0.40E+00    0.0     9.8869E-09       -29.8465383816  3.55E-15
     8 TBLite/Diag 0.40E+00    0.0     5.8351E-09       -29.8465383816  1.42E-14
     9 TBLite/Diag 0.40E+00    0.0     1.1961E-09       -29.8465383816 -1.42E-14
    10 TBLite/Diag 0.40E+00    0.0     9.4331E-11       -29.8465383816  1.78E-14

  *** SCF run converged in    10 steps ***


  Core Hamiltonian energy:                                    -30.22589017682986
  Repulsive potential energy:                                   0.39354387721068
  Electrostatic energy:                                         0.00053806107942
  Self-consistent dispersion energy:                            0.00000000000000
  Non-self consistent dispersion energy:                       -0.01473014301225
  Correction for halogen bonding:                               0.00000000000000
  Electronic entropic energy:                                  -0.00000000000000
  Fermi energy:                                                -0.14440267608043

  Total energy:                                               -29.84653838155201
  Total energy (extrapolated to T->0):                        -29.84653838155201

 ENERGY| Total FORCE_EVAL ( QS ) energy [hartree]            -29.846538381552012

 OPT| **************************************************************************
 OPT| Step number                                                              1
 OPT| Optimization method                                                   BFGS
 OPT| Total energy [hartree]                                      -29.8465383816
 OPT| Effective energy change [hartree]                            -0.0007431319
 OPT| Predicted energy change [hartree]                            -0.0007991470
 OPT| Scaling factor                                                0.0000000000
 OPT| Step size                                                     0.0296951665
 OPT| Trust radius                                                  0.4724315332
 OPT| Decrease in energy                                                     YES
 OPT| Used time [s]                                                        0.028
 OPT|
 OPT| Maximum step size                                             0.0296951665
 OPT| Convergence limit for maximum step size                       0.0030000000
 OPT| Maximum step size is converged                                          NO
 OPT|
 OPT| RMS step size                                                 0.0119183629
 OPT| Convergence limit for RMS step size                           0.0015000000
 OPT| RMS step size is converged                                              NO
 OPT|
 OPT| Maximum gradient                                              0.0037286192
 OPT| Convergence limit for maximum gradient                        0.0004500000
 OPT| Maximum gradient is converged                                           NO
 OPT|
 OPT| RMS gradient                                                  0.0015251448
 OPT| Convergence limit for RMS gradient                            0.0003000000
 OPT| RMS gradient is converged                                               NO
 OPT| **************************************************************************
 OPT| Estimated peak process memory after this step [MiB]                    168

 --------------------------
 OPTIMIZATION STEP:      2
 --------------------------

 Extrapolation method: ASPC

 Number of electrons:                                                         56
 Number of occupied orbitals:                                                 28
 Number of molecular orbitals:                                                72

 Number of orbital functions:                                                 72
 Number of independent orbital functions:                                     72


 SCF WAVEFUNCTION OPTIMIZATION

  Step     Update method      Time    Convergence         Total energy    Change
  ------------------------------------------------------------------------------
     1 TBLite/Diag 0.40E+00    0.0     0.00746270       -29.8468443575 -2.98E+01
     2 TBLite/Diag 0.40E+00    0.0     0.00040945       -29.8468459077 -1.55E-06
     3 TBLite/Diag 0.40E+00    0.0     0.00013429       -29.8468459706 -6.29E-08
     4 TBLite/Diag 0.40E+00    0.0     0.00003692       -29.8468459736 -3.00E-09
     5 TBLite/Diag 0.40E+00    0.0     0.00002066       -29.8468459746 -1.02E-09
     6 TBLite/Diag 0.40E+00    0.0     0.00000294       -29.8468459746 -4.00E-11
     7 TBLite/Diag 0.40E+00    0.0     5.9728E-09       -29.8468459746 -7.11E-15
     8 TBLite/Diag 0.40E+00    0.0     3.9399E-09       -29.8468459746 -3.55E-15
     9 TBLite/Diag 0.40E+00    0.0     5.1219E-10       -29.8468459746  2.13E-14

  *** SCF run converged in     9 steps ***


  Core Hamiltonian energy:                                    -30.23621457210936
  Repulsive potential energy:                                   0.40360118894803
  Electrostatic energy:                                         0.00054424958774
  Self-consistent dispersion energy:                            0.00000000000000
  Non-self consistent dispersion energy:                       -0.01477684106038
  Correction for halogen bonding:                               0.00000000000000
  Electronic entropic energy:                                  -0.00000000000000
  Fermi energy:                                                -0.14421959707136

  Total energy:                                               -29.84684597463398
  Total energy (extrapolated to T->0):                        -29.84684597463398

 ENERGY| Total FORCE_EVAL ( QS ) energy [hartree]            -29.846845974633975

 OPT| **************************************************************************
 OPT| Step number                                                              2
 OPT| Optimization method                                                   BFGS
 OPT| Total energy [hartree]                                      -29.8468459746
 OPT| Effective energy change [hartree]                            -0.0003075931
 OPT| Predicted energy change [hartree]                            -0.0004981089
 OPT| Scaling factor                                                0.0000000000
 OPT| Step size                                                     0.0218752458
 OPT| Trust radius                                                  0.4724315332
 OPT| Decrease in energy                                                     YES
 OPT| Used time [s]                                                        0.027
 OPT|
 OPT| Maximum step size                                             0.0218752458
 OPT| Convergence limit for maximum step size                       0.0030000000
 OPT| Maximum step size is converged                                          NO
 OPT|
 OPT| RMS step size                                                 0.0114628039
 OPT| Convergence limit for RMS step size                           0.0015000000
 OPT| RMS step size is converged                                              NO
 OPT|
 OPT| Maximum gradient                                              0.0014358268
 OPT| Convergence limit for maximum gradient                        0.0004500000
 OPT| Maximum gradient is converged                                           NO
 OPT|
 OPT| RMS gradient                                                  0.0006582230
 OPT| Convergence limit for RMS gradient                            0.0003000000
 OPT| RMS gradient is converged                                               NO
 OPT| **************************************************************************
 OPT| Estimated peak process memory after this step [MiB]                    168

 --------------------------
 OPTIMIZATION STEP:      3
 --------------------------

 Extrapolation method: ASPC

 Number of electrons:                                                         56
 Number of occupied orbitals:                                                 28
 Number of molecular orbitals:                                                72

 Number of orbital functions:                                                 72
 Number of independent orbital functions:                                     72


 SCF WAVEFUNCTION OPTIMIZATION

  Step     Update method      Time    Convergence         Total energy    Change
  ------------------------------------------------------------------------------
     1 TBLite/Diag 0.40E+00    0.0     0.00263641       -29.8469150552 -2.98E+01
     2 TBLite/Diag 0.40E+00    0.0     0.00013632       -29.8469152157 -1.60E-07
     3 TBLite/Diag 0.40E+00    0.0     0.00004126       -29.8469152205 -4.87E-09
     4 TBLite/Diag 0.40E+00    0.0     0.00000964       -29.8469152211 -5.59E-10
     5 TBLite/Diag 0.40E+00    0.0     0.00000606       -29.8469152212 -8.74E-11
     6 TBLite/Diag 0.40E+00    0.0     0.00000115       -29.8469152212 -4.20E-12
     7 TBLite/Diag 0.40E+00    0.0     5.7064E-09       -29.8469152212  0.00E+00
     8 TBLite/Diag 0.40E+00    0.0     3.0034E-09       -29.8469152212 -2.13E-14
     9 TBLite/Diag 0.40E+00    0.0     2.8521E-10       -29.8469152212  7.11E-15

  *** SCF run converged in     9 steps ***


  Core Hamiltonian energy:                                    -30.23218241074760
  Repulsive potential energy:                                   0.39948967496074
  Electrostatic energy:                                         0.00054131431192
  Self-consistent dispersion energy:                            0.00000000000000
  Non-self consistent dispersion energy:                       -0.01476379971840
  Correction for halogen bonding:                               0.00000000000000
  Electronic entropic energy:                                  -0.00000000000000
  Fermi energy:                                                -0.14426848559238

  Total energy:                                               -29.84691522119333
  Total energy (extrapolated to T->0):                        -29.84691522119333

 ENERGY| Total FORCE_EVAL ( QS ) energy [hartree]            -29.846915221193331

 OPT| **************************************************************************
 OPT| Step number                                                              3
 OPT| Optimization method                                                   BFGS
 OPT| Total energy [hartree]                                      -29.8469152212
 OPT| Effective energy change [hartree]                            -0.0000692466
 OPT| Predicted energy change [hartree]                            -0.0000689522
 OPT| Scaling factor                                                0.0000000000
 OPT| Step size                                                     0.0060510282
 OPT| Trust radius                                                  0.4724315332
 OPT| Decrease in energy                                                     YES
 OPT| Used time [s]                                                        0.027
 OPT|
 OPT| Maximum step size                                             0.0060510282
 OPT| Convergence limit for maximum step size                       0.0030000000
 OPT| Maximum step size is converged                                          NO
 OPT|
 OPT| RMS step size                                                 0.0030484528
 OPT| Convergence limit for RMS step size                           0.0015000000
 OPT| RMS step size is converged                                              NO
 OPT|
 OPT| Maximum gradient                                              0.0001693767
 OPT| Convergence limit for maximum gradient                        0.0004500000
 OPT| Maximum gradient is converged                                          YES
 OPT|
 OPT| RMS gradient                                                  0.0000598429
 OPT| Convergence limit for RMS gradient                            0.0003000000
 OPT| RMS gradient is converged                                              YES
 OPT| **************************************************************************
 OPT| Estimated peak process memory after this step [MiB]                    169

 --------------------------
 OPTIMIZATION STEP:      4
 --------------------------

 Extrapolation method: ASPC

 Number of electrons:                                                         56
 Number of occupied orbitals:                                                 28
 Number of molecular orbitals:                                                72

 Number of orbital functions:                                                 72
 Number of independent orbital functions:                                     72


 SCF WAVEFUNCTION OPTIMIZATION

  Step     Update method      Time    Convergence         Total energy    Change
  ------------------------------------------------------------------------------
     1 TBLite/Diag 0.40E+00    0.0     0.00014679       -29.8469154533 -2.98E+01
     2 TBLite/Diag 0.40E+00    0.0     0.00001369       -29.8469154543 -1.04E-09
     3 TBLite/Diag 0.40E+00    0.0     0.00000303       -29.8469154544 -2.98E-11
     4 TBLite/Diag 0.40E+00    0.0     0.00000090       -29.8469154544 -1.16E-12
     5 TBLite/Diag 0.40E+00    0.0     0.00000010       -29.8469154544 -6.04E-14
     6 TBLite/Diag 0.40E+00    0.0     0.00000009       -29.8469154544 -6.04E-14
     7 TBLite/Diag 0.40E+00    0.0     3.1241E-09       -29.8469154544  2.49E-14
     8 TBLite/Diag 0.40E+00    0.0     1.6183E-09       -29.8469154544 -3.55E-15
     9 TBLite/Diag 0.40E+00    0.0     1.2159E-10       -29.8469154544  2.84E-14

  *** SCF run converged in     9 steps ***


  Core Hamiltonian energy:                                    -30.23208835475421
  Repulsive potential energy:                                   0.39939609248229
  Electrostatic energy:                                         0.00054095269195
  Self-consistent dispersion energy:                            0.00000000000000
  Non-self consistent dispersion energy:                       -0.01476414478104
  Correction for halogen bonding:                               0.00000000000000
  Electronic entropic energy:                                  -0.00000000000000
  Fermi energy:                                                -0.14427479633356

  Total energy:                                               -29.84691545436101
  Total energy (extrapolated to T->0):                        -29.84691545436101

 ENERGY| Total FORCE_EVAL ( QS ) energy [hartree]            -29.846915454361014

 OPT| **************************************************************************
 OPT| Step number                                                              4
 OPT| Optimization method                                                   BFGS
 OPT| Total energy [hartree]                                      -29.8469154544
 OPT| Effective energy change [hartree]                            -0.0000002332
 OPT| Predicted energy change [hartree]                            -0.0000002021
 OPT| Scaling factor                                                0.0000000000
 OPT| Step size                                                     0.0004866822
 OPT| Trust radius                                                  0.4724315332
 OPT| Decrease in energy                                                     YES
 OPT| Used time [s]                                                        0.028
 OPT|
 OPT| Maximum step size                                             0.0004866822
 OPT| Convergence limit for maximum step size                       0.0030000000
 OPT| Maximum step size is converged                                         YES
 OPT|
 OPT| RMS step size                                                 0.0001704575
 OPT| Convergence limit for RMS step size                           0.0015000000
 OPT| RMS step size is converged                                             YES
 OPT|
 OPT| Maximum gradient                                              0.0000651990
 OPT| Convergence limit for maximum gradient                        0.0004500000
 OPT| Maximum gradient is converged                                          YES
 OPT|
 OPT| RMS gradient                                                  0.0000220145
 OPT| Convergence limit for RMS gradient                            0.0003000000
 OPT| RMS gradient is converged                                              YES
 OPT| **************************************************************************
 OPT| Estimated peak process memory after this step [MiB]                    169

 *******************************************************************************
 ***                    GEOMETRY OPTIMIZATION COMPLETED                      ***
 *******************************************************************************

 write_final_structure: Optimization converged, writing XYZ file gladly:
  adamantane_GFN1_mol_geoopt-FINAL-1_4.xyz

 write_final_structure: Optimization converged, writing CIF file gladly:
  adamantane_GFN1_mol_geoopt-FINAL-1_4.cif

 write_final_structure: Done!

                    Reevaluating energy at the minimum

 Extrapolation method: ASPC

 Number of electrons:                                                         56
 Number of occupied orbitals:                                                 28
 Number of molecular orbitals:                                                72

 Number of orbital functions:                                                 72
 Number of independent orbital functions:                                     72


 SCF WAVEFUNCTION OPTIMIZATION

  Step     Update method      Time    Convergence         Total energy    Change
  ------------------------------------------------------------------------------
     1 TBLite/Diag 0.40E+00    0.0     3.3905E-11       -29.8469154544 -2.98E+01

  *** SCF run converged in     1 steps ***


  Core Hamiltonian energy:                                    -30.23208835475432
  Repulsive potential energy:                                   0.39939609248229
  Electrostatic energy:                                         0.00054095269205
  Self-consistent dispersion energy:                            0.00000000000000
  Non-self consistent dispersion energy:                       -0.01476414478104
  Correction for halogen bonding:                               0.00000000000000
  Electronic entropic energy:                                  -0.00000000000000
  Fermi energy:                                                -0.14427479633555

  Total energy:                                               -29.84691545436103
  Total energy (extrapolated to T->0):                        -29.84691545436103

 ENERGY| Total FORCE_EVAL ( QS ) energy [hartree]            -29.846915454361032

 -------------------------------------------------------------------------------
 -                                                                             -
 -                                DBCSR STATISTICS                             -
 -                                                                             -
 -------------------------------------------------------------------------------
 COUNTER                                    TOTAL       BLAS       SMM       ACC
 flops     2 x     8 x     2               245760       0.0%    100.0%      0.0%     
 flops     4 x     8 x     2               307200       0.0%    100.0%      0.0%     
 flops     2 x     8 x     4               307200       0.0%    100.0%      0.0%     
 flops     4 x     8 x     4               384000       0.0%    100.0%      0.0%     
 flops     2 x    32 x     2              1966080       0.0%    100.0%      0.0%     
 flops     4 x    32 x     2              2457600       0.0%    100.0%      0.0%     
 flops     2 x    32 x     4              2457600       0.0%    100.0%      0.0%     
 flops     4 x    32 x     4              3072000       0.0%    100.0%      0.0%     
 flops     2 x     2 x    72              4543488       0.0%    100.0%      0.0%     
 flops     2 x     4 x    72              5278464       0.0%    100.0%      0.0%     
 flops     4 x     2 x    72              5412096       0.0%    100.0%      0.0%     
 flops     4 x     4 x    72              7349760       0.0%    100.0%      0.0%     
 flops inhomo. stacks                           0       0.0%      0.0%      0.0%
 flops total                        33.781248E+06       0.0%    100.0%      0.0%
 flops max/rank                     33.781248E+06       0.0%    100.0%      0.0%
 matmuls inhomo. stacks                         0       0.0%      0.0%      0.0%
 matmuls total                              50778       0.0%    100.0%      0.0%
 number of processed stacks                   352       0.0%    100.0%      0.0%
 average stack size                                     0.0     144.3       0.0
 marketing flops                    28.035072E+06
 -------------------------------------------------------------------------------
 # multiplications                             73
 max memory usage/rank              13.672890E+09
 # max total images/rank                        1
 # max 3D layers                                1
 # MPI messages exchanged                       0
 -------------------------------------------------------------------------------
 -                                                                             -
 -                      DBCSR MESSAGE PASSING PERFORMANCE                      -
 -                                                                             -
 -------------------------------------------------------------------------------
 ROUTINE             CALLS      AVE VOLUME [Bytes]
 MP_Bcast               13                     12.
 MP_Allreduce          378                     10.
 MP_Alltoall          2395                  28683.
 MP_ISend              292                   2789.
 MP_IRecv              292                   2789.
 -------------------------------------------------------------------------------

 -------------------------------------------------------------------------------
 -                                                                             -
 -                          OFFLOAD MEMPOOL STATISTICS                         -
 -                                                                             -
 -------------------------------------------------------------------------------
 Memory consumption                Number of allocations  Used [MiB]  Size [MiB]
 Device                                                1           0           0
 Host                                                  1           0           0
 -------------------------------------------------------------------------------

 MEMORY| Estimated peak process memory [MiB]                                 169

 -------------------------------------------------------------------------------
 -                                                                             -
 -                         MESSAGE PASSING PERFORMANCE                         -
 -                                                                             -
 -------------------------------------------------------------------------------

 ROUTINE             CALLS      AVE VOLUME [Bytes]
 MP_Group                1
 MP_Bcast              110                    308.
 MP_Allreduce          806                    208.
 MP_Sync                59
 MP_comm_split          58
 -------------------------------------------------------------------------------


 -------------------------------------------------------------------------------
 -                                                                             -
 -                           R E F E R E N C E S                               -
 -                                                                             -
 -------------------------------------------------------------------------------
 
 CP2K version 2026.1 (Development Version), the CP2K developers group (2026).
 CP2K is freely available from https://www.cp2k.org/ .
 
 M. Iannuzzi, J. Wilhelm, F. Stein, A. Bussy, H. Elgabarty, D. Golze, A. Hehn, 
 M. Graml, S. Marek, B. Sertcan Gökmen, C. Schran, H. Forbert, R. Z. 
 Khaliullin, A. Kozhevnikov, M. Taillefumier, R. Meli, V. V. Rybkin, M. Brehm, 
 R. Schade, O. Schütt, J. V. Pototschnig, H. Mirhosseini, A. Knüpfer, D. Marx, 
 M. Krack, J. Hutter, T. D. Kühne.
 J. Phys. Chem. B 130, 1237-1310 (2026).
 The CP2K Program Package Made Simple.
 https://doi.org/10.1021/acs.jpcb.5c05851

 A. Katbashev, M. Stahn, T. Rose, V. Alizadeh, M. Friede, C. Plett, P. 
 Steinbach, S. Ehlert.
 J. Phys. Chem. A 129, 2667-2682 (2025).
 Overview on Building Blocks and Applications of Efficient and Robust Extended 
 Tight Binding.
 https://doi.org/10.1021/acs.jpca.4c08263

 T. D. Kühne, M. Iannuzzi, M. Del Ben, V. V. Rybkin, P. Seewald, F. Stein, T. 
 Laino, R. Z. Khaliullin, O. Schütt, F. Schiffmann, D. Golze, J. Wilhelm, S. 
 Chulkov, M. H. Bani-Hashemian, V. Weber, U. Borstnik, M. Taillefumier, A. S. 
 Jakobovits, A. Lazzaro, H. Pabst, T. Müller, R. Schade, M. Guidon, S. 
 Andermatt, N. Holmberg, G. K. Schenter, A. Hehn, A. Bussy, F. Belleflamme, G. 
 Tabacchi, A. Glöß, M. Lass, I. Bethune, C. J. Mundy, C. Plessl, M. Watkins, 
 J. VandeVondele, M. Krack, J. Hutter.
 J. Chem. Phys. 152, 194103 (2020).
 CP2K: An electronic structure and molecular dynamics software package - 
 Quickstep: Efficient and accurate electronic structure calculations.
 https://doi.org/10.1063/5.0007045

 P. Pracht, E. Caldeweyher, S. Ehlert, S. Grimme.
 ChemRxiv, (2019).
 A Robust Non-Self-Consistent Tight-Binding Quantum Chemistry Method for large 
 Molecules.
 https://doi.org/10.26434/chemrxiv.8326202.v1

 S. Grimme, C. Bannwarth, P. Shushkov.
 J. Chem. Theory Comput. 13, 1989 (2017).
 A Robust and Accurate Tight-Binding Quantum Chemical Method for Structures, 
 Vibrational Frequencies, and Noncovalent Interactions of Large Molecular 
 Systems Parametrized for All spd-Block Elements (Z = 1-86).
 https://doi.org/10.1021/acs.jctc.7b00118

 O. Schuett, P. Messmer, J. Hutter, J. VandeVondele.
 Electronic Structure Calculations on Graphics Processing Units, 173-190 (2016).
 GPU-Accelerated Sparse Matrix-Matrix Multiplication for Linear Scaling Density 
 Functional Theory.
 https://doi.org/10.1002/9781118670712.ch8

 A. Heinecke, G. Henry, M. Hutchinson, H. Pabst.
 Proceedings of Intl. Supercomputing Conference, 981-991 (2016).
 LIBXSMM: Accelerating Small Matrix Multiplications by Runtime Code Generation.
 https://doi.org/10.1109/SC.2016.83

 U. Borstnik, J. VandeVondele, V. Weber, J. Hutter.
 Parallel Comput. 40, 47-58 (2014).
 Sparse matrix multiplication: The distributed block-compressed sparse row 
 library.
 https://doi.org/10.1016/j.parco.2014.03.012

 T. D. Kühne, M. Krack, F. R. Mohamed, M. Parrinello.
 Phys. Rev. Lett. 98, 066401 (2007).
 Efficient and accurate Car-Parrinello-like approach to Born-Oppenheimer 
 molecular dynamics.
 https://doi.org/10.1103/PhysRevLett.98.066401

 M. Frigo, S. G. Johnson.
 Proc. IEEE 93, 216-231 (2005).
 The design and implementation of FFTW3.
 https://doi.org/10.1109/JPROC.2004.840301

 J. Kolafa.
 J. Comput. Chem. 25, 335-342 (2004).
 Time-reversible always stable predictor-corrector method for molecular dynamics 
 of polarizable molecules.
 https://doi.org/10.1002/jcc.10385

 N. D. Mermin.
 Phys. Rev. 137, A1441-A1443 (1965).
 Thermal Properties of the Inhomogeneous Electron Gas.
 https://doi.org/10.1103/PhysRev.137.A1441


 -------------------------------------------------------------------------------
 -                                                                             -
 -                                T I M I N G                                  -
 -                                                                             -
 -------------------------------------------------------------------------------
 SUBROUTINE                       CALLS  ASD         SELF TIME        TOTAL TIME
                                MAXIMUM       AVERAGE  MAXIMUM  AVERAGE  MAXIMUM
 CP2K                                 1  1.0    0.002    0.002    0.152    0.152
 cp_geo_opt                           1  2.0    0.000    0.000    0.146    0.146
 geoopt_bfgs                          1  3.0    0.001    0.001    0.146    0.146
 cp_eval_at                           6  4.0    0.000    0.000    0.140    0.140
 qs_forces                            5  5.0    0.000    0.000    0.133    0.133
 qs_energies                          6  5.8    0.000    0.000    0.102    0.102
 scf_env_do_scf                       6  6.8    0.000    0.000    0.073    0.073
 scf_env_do_scf_inner_loop           48  8.0    0.002    0.002    0.072    0.072
 qs_scf_new_mos                      48  9.0    0.000    0.000    0.060    0.060
 rebuild_ks_matrix                   53  9.7    0.000    0.000    0.029    0.029
 build_tblite_ks_matrix              53 10.7    0.029    0.029    0.029    0.029
 cp_dbcsr_plus_fm_fm_t               58 10.8    0.000    0.000    0.026    0.026
 build_tblite_matrices               11  7.0    0.024    0.024    0.025    0.025
 qs_ks_update_qs_env_forces           5  6.0    0.000    0.000    0.024    0.024
 calculate_dm_sparse                 53 10.0    0.000    0.000    0.024    0.024
 dbcsr_multiply_generic              73 11.9    0.001    0.001    0.022    0.022
 eigensolver                         48 10.0    0.000    0.000    0.019    0.019
 cp_fm_syevd                         58 10.5    0.000    0.000    0.019    0.019
 dbcsr_complete_redistribute        242 12.1    0.013    0.013    0.018    0.018
 copy_dbcsr_to_fm                   111 10.4    0.000    0.000    0.018    0.018
 cp_fm_syevd_base                    58 11.5    0.016    0.016    0.016    0.016
 init_scf_run                         6  6.8    0.000    0.000    0.014    0.014
 qs_energies_init_hamiltonians        6  6.8    0.000    0.000    0.013    0.013
 scf_env_initial_rho_setup            6  7.8    0.000    0.000    0.012    0.012
 wfi_extrapolate                      6  8.8    0.000    0.000    0.012    0.012
 make_m2s                           146 12.9    0.000    0.000    0.010    0.010
 qs_diis_b_step                      42 10.0    0.000    0.000    0.010    0.010
 copy_fm_to_dbcsr                   131 11.7    0.000    0.000    0.009    0.009
 cp_dbcsr_sm_fm_multiply             15 10.3    0.000    0.000    0.007    0.007
 multiply_cannon                     73 12.9    0.001    0.001    0.006    0.006
 qs_ks_update_qs_env                 48  9.0    0.000    0.000    0.006    0.006
 make_images                        146 13.9    0.001    0.001    0.005    0.005
 reorthogonalize_vectors              5  9.8    0.000    0.000    0.005    0.005
 make_basis_lowdin                    5 10.8    0.000    0.000    0.005    0.005
 dbcsr_desymmetrize_deep            111 11.4    0.003    0.003    0.005    0.005
 cp_dbcsr_sm_fm_multiply_core        15 11.3    0.000    0.000    0.004    0.004
 dbcsr_finalize                     921 13.2    0.001    0.001    0.004    0.004
 qs_init_subsys                       1  2.0    0.001    0.001    0.004    0.004
 multiply_cannon_loop                73 13.9    0.000    0.000    0.004    0.004
 multiply_cannon_multrec             73 14.9    0.003    0.003    0.003    0.003
 -------------------------------------------------------------------------------

 The number of warnings for this run is : 0
 
 -------------------------------------------------------------------------------
  **** **** ******  **  PROGRAM ENDED AT                 2026-05-23 22:46:19.722
 ***** ** ***  *** **   PROGRAM RAN ON                                spark-c86c
 **    ****   ******    PROGRAM RAN BY                                  kuehne88
 ***** **    ** ** **   PROGRAM PROCESS ID                               2222429
  **** **  *******  **  PROGRAM STOPPED IN /home/kuehne88/periodic-gfn2-benchmar
                                           ks/X23b/runs/molecule_geoopt/GFN1/ada
                                           mantane_GFN1_mol_geoopt
