 DBCSR| CPU Multiplication driver                                           XSMM (U)
 DBCSR| Multrec recursion limit                                              512 (U)
 DBCSR| Multiplication stack size                                           1000 (D)
 DBCSR| Maximum elements for images                                    UNLIMITED (U)
 DBCSR| Multiplicative factor virtual images                                   1 (U)
 DBCSR| Use multiplication densification                                       T (D)
 DBCSR| Multiplication size stacks                                             3 (U)
 DBCSR| Use memory pool for CPU allocation                                     F (U)
 DBCSR| Number of 3D layers                                               SINGLE (U)
 DBCSR| Use MPI memory allocation                                              F (U)
 DBCSR| Use RMA algorithm                                                      F (U)
 DBCSR| Use Communication thread                                               T (U)
 DBCSR| Communication thread load                                             87 (D)
 DBCSR| MPI: My process id                                                     0
 DBCSR| MPI: Number of processes                                               1
 DBCSR| OMP: Current number of threads                                         1
 DBCSR| OMP: Max number of threads                                             1
 DBCSR| Split modifier for TAS multiplication algorithm                  1.0E+00 (U)


  **** **** ******  **  PROGRAM STARTED AT               2026-05-23 22:46:20.431
 ***** ** ***  *** **   PROGRAM STARTED ON                            spark-c86c
 **    ****   ******    PROGRAM STARTED BY                              kuehne88
 ***** **    ** ** **   PROGRAM PROCESS ID                               2229227
  **** **  *******  **  PROGRAM STARTED IN /home/kuehne88/periodic-gfn2-benchmar
                                           ks/X23b/runs/molecule_geoopt/GFN2/pyr
                                           azole_GFN2_mol_geoopt

 CP2K| version string:                 CP2K version 2026.1 (Development Version)
 CP2K| source code revision number:                                   0622d442e4
 CP2K| cp2kflags: omp fftw3 libxc parallel scalapack mpi_f08 xsmm spglib libdftd
 CP2K|            4 dftd4_v3 mctc-lib tblite
 CP2K| is freely available from                            https://www.cp2k.org/
 CP2K| Program compiled at                                   2026-05-23 22:05:08
 CP2K| Program compiled on                                            spark-c86c
 CP2K| Program compiled for                                              aarch64
 CP2K| Data directory path    /home/kuehne88/cp2k-master-tblite-20260523/install
 CP2K| Input file name                              pyrazole_GFN2_mol_geoopt.inp

 GLOBAL| Force Environment number                                              1
 GLOBAL| Basis set file name                                           BASIS_SET
 GLOBAL| Potential file name                                           POTENTIAL
 GLOBAL| MM Potential file name                                     MM_POTENTIAL
 GLOBAL| Coordinate file name                                      __STD_INPUT__
 GLOBAL| Method name                                                        CP2K
 GLOBAL| Project name                                   pyrazole_GFN2_mol_geoopt
 GLOBAL| Run type                                                        GEO_OPT
 GLOBAL| FFT library                                                       FFTW3
 GLOBAL| Diagonalization library                                       ScaLAPACK
 GLOBAL| Cholesky decomposition library                                ScaLAPACK
 GLOBAL| DGEMM library                                                      BLAS
 GLOBAL| Direct generalized diagonalization requested                          F
 GLOBAL| Orthonormality check for eigenvectors                          DISABLED
 GLOBAL| Matrix multiplication library                                 ScaLAPACK
 GLOBAL| All-to-all communication in single precision                          F
 GLOBAL| FFTs using library dependent lengths                                  F
 GLOBAL| Grid backend                                                       AUTO
 GLOBAL| Global print level                                                  LOW
 GLOBAL| MPI I/O enabled                                                       T
 GLOBAL| Total number of message passing processes                             1
 GLOBAL| Number of distributed systems (nodes)                                 1
 GLOBAL| Number of threads for this process                                    1
 GLOBAL| This output is from process                                           0
 GLOBAL| OpenMP stack size per thread (OMP_STACKSIZE)                    default
 GLOBAL| CPU model name                                                  UNKNOWN
 GLOBAL| CPUID                                                              2200
 GLOBAL| Compiled for CPUID                                                 2000

 *** HINT in environment.F:970 :: The compiler target flags (arm_arch64)   ***
 *** used to build this binary cannot exploit all extensions of this CPU   ***
 *** model (arm_sve256). Consider compiler target flags as part of FCFLAGS ***
 *** and CFLAGS (ARCH file).                                               ***


 MEMORY| system memory details [Kb]
 MEMORY|                        rank 0           min           max       average
 MEMORY| MemTotal            125508532     125508532     125508532     125508532
 MEMORY| MemFree             105996600     105996600     105996600     105996600
 MEMORY| Buffers                866180        866180        866180        866180
 MEMORY| Cached               13216572      13216572      13216572      13216572
 MEMORY| Slab                  1565152       1565152       1565152       1565152
 MEMORY| SReclaimable           888664        888664        888664        888664
 MEMORY| MemLikelyFree       120968016     120968016     120968016     120968016


 GENERATE|  Preliminary Number of Bonds generated:                             0
 GENERATE|  Achieved consistency in connectivity generation.


                  #####   #####        #     #   #     #       #          
                 #     # #     #      #    ##### #     #   # #####  ####  
                 #     # #           #       #   ###   #       #   #    # 
                 #     #  #####     #        #   #  #  #   #   #   ###### 
                 #   # #       #   #         #   #   # #   #   #   #      
                 #    #  #     #  #          #   #  #  # # #   #    #   # 
                  #### #  #####  #           #   ###   ##  #   #     ###  

                                   GFN2-xTB  
                                 Version 0.0                       
                            Johann V. Pototschnig                  



 TOTAL NUMBERS AND MAXIMUM NUMBERS

  Total number of            - Atomic kinds:                                   3
                             - Atoms:                                          9
                             - Shell sets:                                    14
                             - Shells:                                        14
                             - Primitive Cartesian functions:                 52
                             - Cartesian basis functions:                     24
                             - Spherical basis functions:                     24

  Maximum angular momentum of the orbital basis functions:                     1


 SCF PARAMETERS         Density guess:                                     MOPAC
                        --------------------------------------------------------
                        max_scf:                                             300
                        max_scf_history:                                       0
                        max_diis:                                              4
                        --------------------------------------------------------
                        eps_scf:                                        1.00E-09
                        eps_scf_history:                                0.00E+00
                        eps_diis:                                       1.00E-01
                        eps_eigval:                                     1.00E-05
                        --------------------------------------------------------
                        level_shift [a.u.]:                             0.000000
                        added MOs                                        11    0
                        --------------------------------------------------------
                        Mixing method:                           DIRECT_P_MIXING
                        --------------------------------------------------------
                        Smear method:                                FERMI_DIRAC
                        Electronic temperature [K]:                        300.0
                        Electronic temperature [a.u.]:                  9.50E-04
                        Accuracy threshold:                             1.00E-06
                        --------------------------------------------------------
                        No outer SCF

 BFGS| Use rational function optimization for step estimation:                NO
 BFGS| Use model Hessian for initial guess:                                  YES
 BFGS| Restart Hessian:                                                       NO
 BFGS| Trust radius:                                                       0.472

 *******************************************************************************
 ***                     STARTING GEOMETRY OPTIMIZATION                      ***
 ***                                   BFGS                                  ***
 *******************************************************************************

 Extrapolation method: initial_guess

 Number of electrons:                                                         26
 Number of occupied orbitals:                                                 13
 Number of molecular orbitals:                                                24

 Number of orbital functions:                                                 24
 Number of independent orbital functions:                                     24


 SCF WAVEFUNCTION OPTIMIZATION

  Step     Update method      Time    Convergence         Total energy    Change
  ------------------------------------------------------------------------------
     1 TBLite/Diag 0.40E+00    0.0     1.10780568       -14.2298624345 -1.42E+01
     2 TBLite/Diag 0.40E+00    0.0     0.30647887       -14.2689843349 -3.91E-02
     3 TBLite/Diag 0.40E+00    0.0     0.19180905       -14.2668100787  2.17E-03
     4 TBLite/Diag 0.40E+00    0.0     0.13811539       -14.2767709355 -9.96E-03
     5 TBLite/Diag 0.40E+00    0.0     0.03094751       -14.2775734146 -8.02E-04
     6 TBLite/Diag 0.40E+00    0.0     0.00609477       -14.2775938736 -2.05E-05
     7 TBLite/Diag 0.40E+00    0.0     0.00365976       -14.2776036870 -9.81E-06
     8 TBLite/Diag 0.40E+00    0.0     0.00068562       -14.2776043867 -7.00E-07
     9 TBLite/Diag 0.40E+00    0.0     0.00040037       -14.2776045480 -1.61E-07
    10 TBLite/Diag 0.40E+00    0.0     0.00027982       -14.2776045522 -4.21E-09
    11 TBLite/Diag 0.40E+00    0.0     0.00013603       -14.2776045719 -1.97E-08
    12 TBLite/Diag 0.40E+00    0.0     0.00001250       -14.2776045721 -2.90E-10
    13 TBLite/Diag 0.40E+00    0.0     0.00000461       -14.2776045721 -1.99E-12
    14 TBLite/Diag 0.40E+00    0.0     0.00000194       -14.2776045721 -2.83E-12
    15 TBLite/Diag 0.40E+00    0.0     0.00000014       -14.2776045721 -1.95E-14
    16 TBLite/Diag 0.40E+00    0.0     0.00000008       -14.2776045721 -8.88E-15
    17 TBLite/Diag 0.40E+00    0.0     5.2175E-09       -14.2776045721  3.55E-15
    18 TBLite/Diag 0.40E+00    0.0     1.1061E-09       -14.2776045721  8.88E-15
    19 TBLite/Diag 0.40E+00    0.0     3.2854E-10       -14.2776045721 -1.78E-15

  *** SCF run converged in    19 steps ***


  Core Hamiltonian energy:                                    -14.49547949715768
  Repulsive potential energy:                                   0.19678308259264
  Electrostatic energy:                                         0.02598106225319
  Self-consistent dispersion energy:                           -0.00489033847059
  Non-self consistent dispersion energy:                        0.00000111863358
  Correction for halogen bonding:                               0.00000000000000
  Electronic entropic energy:                                  -0.00000000000000
  Fermi energy:                                                -0.25132720388610

  Total energy:                                               -14.27760457214887
  Total energy (extrapolated to T->0):                        -14.27760457214887

 ENERGY| Total FORCE_EVAL ( QS ) energy [hartree]            -14.277604572148869

 OPT| **************************************************************************
 OPT| Step number                                                              0
 OPT| Optimization method                                                   BFGS
 OPT| Total energy [hartree]                                      -14.2776045721
 OPT| Used time [s]                                                        0.017
 OPT| **************************************************************************
 OPT| Estimated peak process memory [MiB]                                    162

 --------------------------
 OPTIMIZATION STEP:      1
 --------------------------

 Extrapolation method: ASPC

 Number of electrons:                                                         26
 Number of occupied orbitals:                                                 13
 Number of molecular orbitals:                                                24

 Number of orbital functions:                                                 24
 Number of independent orbital functions:                                     24


 SCF WAVEFUNCTION OPTIMIZATION

  Step     Update method      Time    Convergence         Total energy    Change
  ------------------------------------------------------------------------------
     1 TBLite/Diag 0.40E+00    0.0     0.04657925       -14.2786790764 -1.43E+01
     2 TBLite/Diag 0.40E+00    0.0     0.00704971       -14.2787087771 -2.97E-05
     3 TBLite/Diag 0.40E+00    0.0     0.00345744       -14.2787055846  3.19E-06
     4 TBLite/Diag 0.40E+00    0.0     0.00263439       -14.2787132364 -7.65E-06
     5 TBLite/Diag 0.40E+00    0.0     0.00062590       -14.2787136367 -4.00E-07
     6 TBLite/Diag 0.40E+00    0.0     0.00028568       -14.2787136415 -4.72E-09
     7 TBLite/Diag 0.40E+00    0.0     0.00015766       -14.2787136620 -2.05E-08
     8 TBLite/Diag 0.40E+00    0.0     0.00002269       -14.2787136620 -2.98E-11
     9 TBLite/Diag 0.40E+00    0.0     0.00001165       -14.2787136622 -1.35E-10
    10 TBLite/Diag 0.40E+00    0.0     0.00000120       -14.2787136622 -3.38E-12
    11 TBLite/Diag 0.40E+00    0.0     0.00000036       -14.2787136622 -9.24E-14
    12 TBLite/Diag 0.40E+00    0.0     0.00000005       -14.2787136622  0.00E+00
    13 TBLite/Diag 0.40E+00    0.0     0.00000001       -14.2787136622 -3.55E-15
    14 TBLite/Diag 0.40E+00    0.0     1.2147E-09       -14.2787136622  3.55E-15
    15 TBLite/Diag 0.40E+00    0.0     5.2401E-11       -14.2787136622  5.33E-15

  *** SCF run converged in    15 steps ***


  Core Hamiltonian energy:                                    -14.50828424696468
  Repulsive potential energy:                                   0.20840588900323
  Electrostatic energy:                                         0.02606367834489
  Self-consistent dispersion energy:                           -0.00490005482909
  Non-self consistent dispersion energy:                        0.00000107229118
  Correction for halogen bonding:                               0.00000000000000
  Electronic entropic energy:                                  -0.00000000000000
  Fermi energy:                                                -0.24600175428259

  Total energy:                                               -14.27871366215448
  Total energy (extrapolated to T->0):                        -14.27871366215448

 ENERGY| Total FORCE_EVAL ( QS ) energy [hartree]            -14.278713662154475

 OPT| **************************************************************************
 OPT| Step number                                                              1
 OPT| Optimization method                                                   BFGS
 OPT| Total energy [hartree]                                      -14.2787136622
 OPT| Effective energy change [hartree]                            -0.0011090900
 OPT| Predicted energy change [hartree]                            -0.0012583439
 OPT| Scaling factor                                                0.0000000000
 OPT| Step size                                                     0.0630871697
 OPT| Trust radius                                                  0.4724315332
 OPT| Decrease in energy                                                     YES
 OPT| Used time [s]                                                        0.014
 OPT|
 OPT| Maximum step size                                             0.0630871697
 OPT| Convergence limit for maximum step size                       0.0030000000
 OPT| Maximum step size is converged                                          NO
 OPT|
 OPT| RMS step size                                                 0.0167335876
 OPT| Convergence limit for RMS step size                           0.0015000000
 OPT| RMS step size is converged                                              NO
 OPT|
 OPT| Maximum gradient                                              0.0141740385
 OPT| Convergence limit for maximum gradient                        0.0004500000
 OPT| Maximum gradient is converged                                           NO
 OPT|
 OPT| RMS gradient                                                  0.0033744310
 OPT| Convergence limit for RMS gradient                            0.0003000000
 OPT| RMS gradient is converged                                               NO
 OPT| **************************************************************************
 OPT| Estimated peak process memory after this step [MiB]                    163

 --------------------------
 OPTIMIZATION STEP:      2
 --------------------------

 Extrapolation method: ASPC

 Number of electrons:                                                         26
 Number of occupied orbitals:                                                 13
 Number of molecular orbitals:                                                24

 Number of orbital functions:                                                 24
 Number of independent orbital functions:                                     24


 SCF WAVEFUNCTION OPTIMIZATION

  Step     Update method      Time    Convergence         Total energy    Change
  ------------------------------------------------------------------------------
     1 TBLite/Diag 0.40E+00    0.0     0.01038864       -14.2790058852 -1.43E+01
     2 TBLite/Diag 0.40E+00    0.0     0.00594771       -14.2790267088 -2.08E-05
     3 TBLite/Diag 0.40E+00    0.0     0.00483910       -14.2790255115  1.20E-06
     4 TBLite/Diag 0.40E+00    0.0     0.00273123       -14.2790321428 -6.63E-06
     5 TBLite/Diag 0.40E+00    0.0     0.00036982       -14.2790321782 -3.54E-08
     6 TBLite/Diag 0.40E+00    0.0     0.00019595       -14.2790322030 -2.48E-08
     7 TBLite/Diag 0.40E+00    0.0     0.00006598       -14.2790322052 -2.24E-09
     8 TBLite/Diag 0.40E+00    0.0     0.00003111       -14.2790322055 -2.43E-10
     9 TBLite/Diag 0.40E+00    0.0     0.00000881       -14.2790322056 -1.14E-10
    10 TBLite/Diag 0.40E+00    0.0     0.00000078       -14.2790322056 -1.10E-12
    11 TBLite/Diag 0.40E+00    0.0     0.00000014       -14.2790322056 -2.66E-14
    12 TBLite/Diag 0.40E+00    0.0     0.00000002       -14.2790322056 -8.88E-15
    13 TBLite/Diag 0.40E+00    0.0     9.8578E-09       -14.2790322056  1.60E-14
    14 TBLite/Diag 0.40E+00    0.0     7.4058E-10       -14.2790322056 -2.13E-14

  *** SCF run converged in    14 steps ***


  Core Hamiltonian energy:                                    -14.51500287745340
  Repulsive potential energy:                                   0.21517068215462
  Electrostatic energy:                                         0.02570276164591
  Self-consistent dispersion energy:                           -0.00490381847801
  Non-self consistent dispersion energy:                        0.00000104652946
  Correction for halogen bonding:                               0.00000000000000
  Electronic entropic energy:                                  -0.00000000000000
  Fermi energy:                                                -0.24402924529070

  Total energy:                                               -14.27903220560142
  Total energy (extrapolated to T->0):                        -14.27903220560142

 ENERGY| Total FORCE_EVAL ( QS ) energy [hartree]            -14.279032205601418

 OPT| **************************************************************************
 OPT| Step number                                                              2
 OPT| Optimization method                                                   BFGS
 OPT| Total energy [hartree]                                      -14.2790322056
 OPT| Effective energy change [hartree]                            -0.0003185434
 OPT| Predicted energy change [hartree]                            -0.0004042632
 OPT| Scaling factor                                                0.0000000000
 OPT| Step size                                                     0.0288079684
 OPT| Trust radius                                                  0.4724315332
 OPT| Decrease in energy                                                     YES
 OPT| Used time [s]                                                        0.013
 OPT|
 OPT| Maximum step size                                             0.0288079684
 OPT| Convergence limit for maximum step size                       0.0030000000
 OPT| Maximum step size is converged                                          NO
 OPT|
 OPT| RMS step size                                                 0.0118354919
 OPT| Convergence limit for RMS step size                           0.0015000000
 OPT| RMS step size is converged                                              NO
 OPT|
 OPT| Maximum gradient                                              0.0026570153
 OPT| Convergence limit for maximum gradient                        0.0004500000
 OPT| Maximum gradient is converged                                           NO
 OPT|
 OPT| RMS gradient                                                  0.0009519899
 OPT| Convergence limit for RMS gradient                            0.0003000000
 OPT| RMS gradient is converged                                               NO
 OPT| **************************************************************************
 OPT| Estimated peak process memory after this step [MiB]                    163

 --------------------------
 OPTIMIZATION STEP:      3
 --------------------------

 Extrapolation method: ASPC

 Number of electrons:                                                         26
 Number of occupied orbitals:                                                 13
 Number of molecular orbitals:                                                24

 Number of orbital functions:                                                 24
 Number of independent orbital functions:                                     24


 SCF WAVEFUNCTION OPTIMIZATION

  Step     Update method      Time    Convergence         Total energy    Change
  ------------------------------------------------------------------------------
     1 TBLite/Diag 0.40E+00    0.0     0.00226479       -14.2790573065 -1.43E+01
     2 TBLite/Diag 0.40E+00    0.0     0.00067358       -14.2790575238 -2.17E-07
     3 TBLite/Diag 0.40E+00    0.0     0.00076537       -14.2790573284  1.95E-07
     4 TBLite/Diag 0.40E+00    0.0     0.00054250       -14.2790576201 -2.92E-07
     5 TBLite/Diag 0.40E+00    0.0     0.00007352       -14.2790576213 -1.16E-09
     6 TBLite/Diag 0.40E+00    0.0     0.00003214       -14.2790576223 -1.01E-09
     7 TBLite/Diag 0.40E+00    0.0     0.00001061       -14.2790576223 -9.03E-11
     8 TBLite/Diag 0.40E+00    0.0     0.00000299       -14.2790576224 -3.95E-12
     9 TBLite/Diag 0.40E+00    0.0     0.00000093       -14.2790576224 -1.02E-12
    10 TBLite/Diag 0.40E+00    0.0     0.00000016       -14.2790576224 -6.04E-14
    11 TBLite/Diag 0.40E+00    0.0     0.00000002       -14.2790576224 -1.42E-14
    12 TBLite/Diag 0.40E+00    0.0     1.9740E-09       -14.2790576224 -1.24E-14
    13 TBLite/Diag 0.40E+00    0.0     1.3132E-09       -14.2790576224  1.60E-14
    14 TBLite/Diag 0.40E+00    0.0     1.2674E-10       -14.2790576224 -1.78E-15

  *** SCF run converged in    14 steps ***


  Core Hamiltonian energy:                                    -14.51313133180456
  Repulsive potential energy:                                   0.21318690919919
  Electrostatic energy:                                         0.02578908983794
  Self-consistent dispersion energy:                           -0.00490334252850
  Non-self consistent dispersion energy:                        0.00000105294121
  Correction for halogen bonding:                               0.00000000000000
  Electronic entropic energy:                                  -0.00000000000000
  Fermi energy:                                                -0.24435836745693

  Total energy:                                               -14.27905762235472
  Total energy (extrapolated to T->0):                        -14.27905762235472

 ENERGY| Total FORCE_EVAL ( QS ) energy [hartree]            -14.279057622354721

 OPT| **************************************************************************
 OPT| Step number                                                              3
 OPT| Optimization method                                                   BFGS
 OPT| Total energy [hartree]                                      -14.2790576224
 OPT| Effective energy change [hartree]                            -0.0000254168
 OPT| Predicted energy change [hartree]                            -0.0000237141
 OPT| Scaling factor                                                0.0000000000
 OPT| Step size                                                     0.0078943870
 OPT| Trust radius                                                  0.4724315332
 OPT| Decrease in energy                                                     YES
 OPT| Used time [s]                                                        0.014
 OPT|
 OPT| Maximum step size                                             0.0078943870
 OPT| Convergence limit for maximum step size                       0.0030000000
 OPT| Maximum step size is converged                                          NO
 OPT|
 OPT| RMS step size                                                 0.0025621513
 OPT| Convergence limit for RMS step size                           0.0015000000
 OPT| RMS step size is converged                                              NO
 OPT|
 OPT| Maximum gradient                                              0.0011203724
 OPT| Convergence limit for maximum gradient                        0.0004500000
 OPT| Maximum gradient is converged                                           NO
 OPT|
 OPT| RMS gradient                                                  0.0003560609
 OPT| Convergence limit for RMS gradient                            0.0003000000
 OPT| RMS gradient is converged                                               NO
 OPT| **************************************************************************
 OPT| Estimated peak process memory after this step [MiB]                    163

 --------------------------
 OPTIMIZATION STEP:      4
 --------------------------

 Extrapolation method: ASPC

 Number of electrons:                                                         26
 Number of occupied orbitals:                                                 13
 Number of molecular orbitals:                                                24

 Number of orbital functions:                                                 24
 Number of independent orbital functions:                                     24


 SCF WAVEFUNCTION OPTIMIZATION

  Step     Update method      Time    Convergence         Total energy    Change
  ------------------------------------------------------------------------------
     1 TBLite/Diag 0.40E+00    0.0     0.00088113       -14.2790591335 -1.43E+01
     2 TBLite/Diag 0.40E+00    0.0     0.00059603       -14.2790593014 -1.68E-07
     3 TBLite/Diag 0.40E+00    0.0     0.00030463       -14.2790593441 -4.26E-08
     4 TBLite/Diag 0.40E+00    0.0     0.00012202       -14.2790593543 -1.03E-08
     5 TBLite/Diag 0.40E+00    0.0     0.00004479       -14.2790593553 -9.62E-10
     6 TBLite/Diag 0.40E+00    0.0     0.00001248       -14.2790593554 -1.18E-10
     7 TBLite/Diag 0.40E+00    0.0     0.00000467       -14.2790593554 -5.52E-12
     8 TBLite/Diag 0.40E+00    0.0     0.00000159       -14.2790593554 -2.18E-12
     9 TBLite/Diag 0.40E+00    0.0     0.00000039       -14.2790593554 -1.74E-13
    10 TBLite/Diag 0.40E+00    0.0     0.00000006       -14.2790593554 -1.78E-15
    11 TBLite/Diag 0.40E+00    0.0     6.0047E-09       -14.2790593554  5.33E-15
    12 TBLite/Diag 0.40E+00    0.0     4.4237E-10       -14.2790593554 -1.07E-14

  *** SCF run converged in    12 steps ***


  Core Hamiltonian energy:                                    -14.51292567099409
  Repulsive potential energy:                                   0.21296211434976
  Electrostatic energy:                                         0.02580643293882
  Self-consistent dispersion energy:                           -0.00490328509191
  Non-self consistent dispersion energy:                        0.00000105337816
  Correction for halogen bonding:                               0.00000000000000
  Electronic entropic energy:                                  -0.00000000000000
  Fermi energy:                                                -0.24428668929660

  Total energy:                                               -14.27905935541926
  Total energy (extrapolated to T->0):                        -14.27905935541926

 ENERGY| Total FORCE_EVAL ( QS ) energy [hartree]            -14.279059355419262

 OPT| **************************************************************************
 OPT| Step number                                                              4
 OPT| Optimization method                                                   BFGS
 OPT| Total energy [hartree]                                      -14.2790593554
 OPT| Effective energy change [hartree]                            -0.0000017331
 OPT| Predicted energy change [hartree]                            -0.0000016235
 OPT| Scaling factor                                                0.0000000000
 OPT| Step size                                                     0.0017706422
 OPT| Trust radius                                                  0.4724315332
 OPT| Decrease in energy                                                     YES
 OPT| Used time [s]                                                        0.012
 OPT|
 OPT| Maximum step size                                             0.0017706422
 OPT| Convergence limit for maximum step size                       0.0030000000
 OPT| Maximum step size is converged                                         YES
 OPT|
 OPT| RMS step size                                                 0.0006080480
 OPT| Convergence limit for RMS step size                           0.0015000000
 OPT| RMS step size is converged                                             YES
 OPT|
 OPT| Maximum gradient                                              0.0005226206
 OPT| Convergence limit for maximum gradient                        0.0004500000
 OPT| Maximum gradient is converged                                           NO
 OPT|
 OPT| RMS gradient                                                  0.0001481561
 OPT| Convergence limit for RMS gradient                            0.0003000000
 OPT| RMS gradient is converged                                              YES
 OPT| **************************************************************************
 OPT| Estimated peak process memory after this step [MiB]                    163

 --------------------------
 OPTIMIZATION STEP:      5
 --------------------------

 Extrapolation method: ASPC

 Number of electrons:                                                         26
 Number of occupied orbitals:                                                 13
 Number of molecular orbitals:                                                24

 Number of orbital functions:                                                 24
 Number of independent orbital functions:                                     24


 SCF WAVEFUNCTION OPTIMIZATION

  Step     Update method      Time    Convergence         Total energy    Change
  ------------------------------------------------------------------------------
     1 TBLite/Diag 0.40E+00    0.0     0.00075544       -14.2790596190 -1.43E+01
     2 TBLite/Diag 0.40E+00    0.0     0.00048981       -14.2790597338 -1.15E-07
     3 TBLite/Diag 0.40E+00    0.0     0.00024372       -14.2790597725 -3.87E-08
     4 TBLite/Diag 0.40E+00    0.0     0.00007800       -14.2790597756 -3.08E-09
     5 TBLite/Diag 0.40E+00    0.0     0.00003702       -14.2790597763 -7.05E-10
     6 TBLite/Diag 0.40E+00    0.0     0.00000873       -14.2790597764 -7.12E-11
     7 TBLite/Diag 0.40E+00    0.0     0.00000293       -14.2790597764 -3.07E-12
     8 TBLite/Diag 0.40E+00    0.0     0.00000103       -14.2790597764 -8.76E-13
     9 TBLite/Diag 0.40E+00    0.0     0.00000030       -14.2790597764 -1.42E-13
    10 TBLite/Diag 0.40E+00    0.0     0.00000004       -14.2790597764  1.78E-15
    11 TBLite/Diag 0.40E+00    0.0     4.9524E-09       -14.2790597764 -5.33E-15
    12 TBLite/Diag 0.40E+00    0.0     3.5812E-10       -14.2790597764  1.07E-14

  *** SCF run converged in    12 steps ***


  Core Hamiltonian energy:                                    -14.51293516395608
  Repulsive potential energy:                                   0.21297128128142
  Electrostatic energy:                                         0.02580644413206
  Self-consistent dispersion energy:                           -0.00490339078962
  Non-self consistent dispersion energy:                        0.00000105297248
  Correction for halogen bonding:                               0.00000000000000
  Electronic entropic energy:                                  -0.00000000000000
  Fermi energy:                                                -0.24422737820831

  Total energy:                                               -14.27905977635974
  Total energy (extrapolated to T->0):                        -14.27905977635974

 ENERGY| Total FORCE_EVAL ( QS ) energy [hartree]            -14.279059776359745

 OPT| **************************************************************************
 OPT| Step number                                                              5
 OPT| Optimization method                                                   BFGS
 OPT| Total energy [hartree]                                      -14.2790597764
 OPT| Effective energy change [hartree]                            -0.0000004209
 OPT| Predicted energy change [hartree]                            -0.0000004945
 OPT| Scaling factor                                                0.0000000000
 OPT| Step size                                                     0.0009422923
 OPT| Trust radius                                                  0.4724315332
 OPT| Decrease in energy                                                     YES
 OPT| Used time [s]                                                        0.012
 OPT|
 OPT| Maximum step size                                             0.0009422923
 OPT| Convergence limit for maximum step size                       0.0030000000
 OPT| Maximum step size is converged                                         YES
 OPT|
 OPT| RMS step size                                                 0.0003956574
 OPT| Convergence limit for RMS step size                           0.0015000000
 OPT| RMS step size is converged                                             YES
 OPT|
 OPT| Maximum gradient                                              0.0001194469
 OPT| Convergence limit for maximum gradient                        0.0004500000
 OPT| Maximum gradient is converged                                          YES
 OPT|
 OPT| RMS gradient                                                  0.0000399056
 OPT| Convergence limit for RMS gradient                            0.0003000000
 OPT| RMS gradient is converged                                              YES
 OPT| **************************************************************************
 OPT| Estimated peak process memory after this step [MiB]                    163

 *******************************************************************************
 ***                    GEOMETRY OPTIMIZATION COMPLETED                      ***
 *******************************************************************************

 write_final_structure: Optimization converged, writing XYZ file gladly:
  pyrazole_GFN2_mol_geoopt-FINAL-1_5.xyz

 write_final_structure: Optimization converged, writing CIF file gladly:
  pyrazole_GFN2_mol_geoopt-FINAL-1_5.cif

 write_final_structure: Done!

                    Reevaluating energy at the minimum

 Extrapolation method: ASPC

 Number of electrons:                                                         26
 Number of occupied orbitals:                                                 13
 Number of molecular orbitals:                                                24

 Number of orbital functions:                                                 24
 Number of independent orbital functions:                                     24


 SCF WAVEFUNCTION OPTIMIZATION

  Step     Update method      Time    Convergence         Total energy    Change
  ------------------------------------------------------------------------------
     1 TBLite/Diag 0.40E+00    0.0     3.8651E-10       -14.2790597764 -1.43E+01

  *** SCF run converged in     1 steps ***


  Core Hamiltonian energy:                                    -14.51293516393304
  Repulsive potential energy:                                   0.21297128128142
  Electrostatic energy:                                         0.02580644410875
  Self-consistent dispersion energy:                           -0.00490339078936
  Non-self consistent dispersion energy:                        0.00000105297248
  Correction for halogen bonding:                               0.00000000000000
  Electronic entropic energy:                                  -0.00000000000000
  Fermi energy:                                                -0.24422737823382

  Total energy:                                               -14.27905977635974
  Total energy (extrapolated to T->0):                        -14.27905977635974

 ENERGY| Total FORCE_EVAL ( QS ) energy [hartree]            -14.279059776359745

 -------------------------------------------------------------------------------
 -                                                                             -
 -                                DBCSR STATISTICS                             -
 -                                                                             -
 -------------------------------------------------------------------------------
 COUNTER                                    TOTAL       BLAS       SMM       ACC
 flops     1 x    24 x     1                15360       0.0%    100.0%      0.0%     
 flops     1 x     1 x    24                47520       0.0%    100.0%      0.0%     
 flops     1 x    24 x     4                76800       0.0%    100.0%      0.0%     
 flops     4 x    24 x     1                76800       0.0%    100.0%      0.0%     
 flops     1 x     4 x    24               190080       0.0%    100.0%      0.0%     
 flops     4 x     1 x    24               190080       0.0%    100.0%      0.0%     
 flops     4 x    24 x     4               384000       0.0%    100.0%      0.0%     
 flops     4 x     4 x    24              1140480       0.0%    100.0%      0.0%     
 flops inhomo. stacks                           0       0.0%      0.0%      0.0%
 flops total                         2.121120E+06       0.0%    100.0%      0.0%
 flops max/rank                      2.121120E+06       0.0%    100.0%      0.0%
 matmuls inhomo. stacks                         0       0.0%      0.0%      0.0%
 matmuls total                               6075       0.0%    100.0%      0.0%
 number of processed stacks                   476       0.0%    100.0%      0.0%
 average stack size                                     0.0      12.8       0.0
 marketing flops                     2.035584E+06
 -------------------------------------------------------------------------------
 # multiplications                            119
 max memory usage/rank              13.670158E+09
 # max total images/rank                        1
 # max 3D layers                                1
 # MPI messages exchanged                       0
 -------------------------------------------------------------------------------
 -                                                                             -
 -                      DBCSR MESSAGE PASSING PERFORMANCE                      -
 -                                                                             -
 -------------------------------------------------------------------------------
 ROUTINE             CALLS      AVE VOLUME [Bytes]
 MP_Bcast                9                     12.
 MP_Allreduce          590                      9.
 MP_Alltoall          4092                   3261.
 MP_ISend              476                    301.
 MP_IRecv              476                    301.
 -------------------------------------------------------------------------------

 -------------------------------------------------------------------------------
 -                                                                             -
 -                          OFFLOAD MEMPOOL STATISTICS                         -
 -                                                                             -
 -------------------------------------------------------------------------------
 Memory consumption                Number of allocations  Used [MiB]  Size [MiB]
 Device                                                1           0           0
 Host                                                  1           0           0
 -------------------------------------------------------------------------------

 MEMORY| Estimated peak process memory [MiB]                                 163

 -------------------------------------------------------------------------------
 -                                                                             -
 -                         MESSAGE PASSING PERFORMANCE                         -
 -                                                                             -
 -------------------------------------------------------------------------------

 ROUTINE             CALLS      AVE VOLUME [Bytes]
 MP_Group                1
 MP_Bcast              191                    102.
 MP_Allreduce         2970                     70.
 MP_Sync               100
 MP_comm_split          99
 -------------------------------------------------------------------------------


 -------------------------------------------------------------------------------
 -                                                                             -
 -                           R E F E R E N C E S                               -
 -                                                                             -
 -------------------------------------------------------------------------------
 
 CP2K version 2026.1 (Development Version), the CP2K developers group (2026).
 CP2K is freely available from https://www.cp2k.org/ .
 
 M. Iannuzzi, J. Wilhelm, F. Stein, A. Bussy, H. Elgabarty, D. Golze, A. Hehn, 
 M. Graml, S. Marek, B. Sertcan Gökmen, C. Schran, H. Forbert, R. Z. 
 Khaliullin, A. Kozhevnikov, M. Taillefumier, R. Meli, V. V. Rybkin, M. Brehm, 
 R. Schade, O. Schütt, J. V. Pototschnig, H. Mirhosseini, A. Knüpfer, D. Marx, 
 M. Krack, J. Hutter, T. D. Kühne.
 J. Phys. Chem. B 130, 1237-1310 (2026).
 The CP2K Program Package Made Simple.
 https://doi.org/10.1021/acs.jpcb.5c05851

 A. Katbashev, M. Stahn, T. Rose, V. Alizadeh, M. Friede, C. Plett, P. 
 Steinbach, S. Ehlert.
 J. Phys. Chem. A 129, 2667-2682 (2025).
 Overview on Building Blocks and Applications of Efficient and Robust Extended 
 Tight Binding.
 https://doi.org/10.1021/acs.jpca.4c08263

 T. D. Kühne, M. Iannuzzi, M. Del Ben, V. V. Rybkin, P. Seewald, F. Stein, T. 
 Laino, R. Z. Khaliullin, O. Schütt, F. Schiffmann, D. Golze, J. Wilhelm, S. 
 Chulkov, M. H. Bani-Hashemian, V. Weber, U. Borstnik, M. Taillefumier, A. S. 
 Jakobovits, A. Lazzaro, H. Pabst, T. Müller, R. Schade, M. Guidon, S. 
 Andermatt, N. Holmberg, G. K. Schenter, A. Hehn, A. Bussy, F. Belleflamme, G. 
 Tabacchi, A. Glöß, M. Lass, I. Bethune, C. J. Mundy, C. Plessl, M. Watkins, 
 J. VandeVondele, M. Krack, J. Hutter.
 J. Chem. Phys. 152, 194103 (2020).
 CP2K: An electronic structure and molecular dynamics software package - 
 Quickstep: Efficient and accurate electronic structure calculations.
 https://doi.org/10.1063/5.0007045

 P. Pracht, E. Caldeweyher, S. Ehlert, S. Grimme.
 ChemRxiv, (2019).
 A Robust Non-Self-Consistent Tight-Binding Quantum Chemistry Method for large 
 Molecules.
 https://doi.org/10.26434/chemrxiv.8326202.v1

 S. Grimme, C. Bannwarth, P. Shushkov.
 J. Chem. Theory Comput. 13, 1989 (2017).
 A Robust and Accurate Tight-Binding Quantum Chemical Method for Structures, 
 Vibrational Frequencies, and Noncovalent Interactions of Large Molecular 
 Systems Parametrized for All spd-Block Elements (Z = 1-86).
 https://doi.org/10.1021/acs.jctc.7b00118

 O. Schuett, P. Messmer, J. Hutter, J. VandeVondele.
 Electronic Structure Calculations on Graphics Processing Units, 173-190 (2016).
 GPU-Accelerated Sparse Matrix-Matrix Multiplication for Linear Scaling Density 
 Functional Theory.
 https://doi.org/10.1002/9781118670712.ch8

 A. Heinecke, G. Henry, M. Hutchinson, H. Pabst.
 Proceedings of Intl. Supercomputing Conference, 981-991 (2016).
 LIBXSMM: Accelerating Small Matrix Multiplications by Runtime Code Generation.
 https://doi.org/10.1109/SC.2016.83

 U. Borstnik, J. VandeVondele, V. Weber, J. Hutter.
 Parallel Comput. 40, 47-58 (2014).
 Sparse matrix multiplication: The distributed block-compressed sparse row 
 library.
 https://doi.org/10.1016/j.parco.2014.03.012

 T. D. Kühne, M. Krack, F. R. Mohamed, M. Parrinello.
 Phys. Rev. Lett. 98, 066401 (2007).
 Efficient and accurate Car-Parrinello-like approach to Born-Oppenheimer 
 molecular dynamics.
 https://doi.org/10.1103/PhysRevLett.98.066401

 M. Frigo, S. G. Johnson.
 Proc. IEEE 93, 216-231 (2005).
 The design and implementation of FFTW3.
 https://doi.org/10.1109/JPROC.2004.840301

 J. Kolafa.
 J. Comput. Chem. 25, 335-342 (2004).
 Time-reversible always stable predictor-corrector method for molecular dynamics 
 of polarizable molecules.
 https://doi.org/10.1002/jcc.10385

 N. D. Mermin.
 Phys. Rev. 137, A1441-A1443 (1965).
 Thermal Properties of the Inhomogeneous Electron Gas.
 https://doi.org/10.1103/PhysRev.137.A1441


 -------------------------------------------------------------------------------
 -                                                                             -
 -                                T I M I N G                                  -
 -                                                                             -
 -------------------------------------------------------------------------------
 SUBROUTINE                       CALLS  ASD         SELF TIME        TOTAL TIME
                                MAXIMUM       AVERAGE  MAXIMUM  AVERAGE  MAXIMUM
 CP2K                                 1  1.0    0.002    0.002    0.092    0.092
 cp_geo_opt                           1  2.0    0.000    0.000    0.086    0.086
 geoopt_bfgs                          1  3.0    0.001    0.001    0.086    0.086
 cp_eval_at                           7  4.0    0.000    0.000    0.082    0.082
 qs_forces                            6  5.0    0.000    0.000    0.079    0.079
 qs_energies                          7  5.9    0.000    0.000    0.076    0.076
 scf_env_do_scf                       7  6.9    0.000    0.000    0.062    0.062
 scf_env_do_scf_inner_loop           87  8.0    0.005    0.005    0.061    0.061
 qs_scf_new_mos                      87  9.0    0.000    0.000    0.043    0.043
 cp_dbcsr_plus_fm_fm_t               99 10.9    0.000    0.000    0.024    0.024
 calculate_dm_sparse                 93 10.0    0.000    0.000    0.023    0.023
 dbcsr_multiply_generic             119 11.9    0.001    0.001    0.020    0.020
 copy_dbcsr_to_fm                   194 10.5    0.001    0.001    0.012    0.012
 make_m2s                           238 12.9    0.001    0.001    0.012    0.012
 rebuild_ks_matrix                   93  9.8    0.000    0.000    0.011    0.011
 build_tblite_ks_matrix              93 10.8    0.010    0.010    0.011    0.011
 dbcsr_complete_redistribute        412 12.2    0.005    0.005    0.011    0.011
 qs_ks_update_qs_env                 87  9.0    0.000    0.000    0.009    0.009
 eigensolver                         87 10.0    0.001    0.001    0.008    0.008
 cp_fm_syevd                         99 10.7    0.000    0.000    0.008    0.008
 init_scf_run                         7  6.9    0.000    0.000    0.008    0.008
 qs_diis_b_step                      80 10.0    0.000    0.000    0.007    0.007
 scf_env_initial_rho_setup            7  7.9    0.000    0.000    0.007    0.007
 wfi_extrapolate                      7  8.9    0.000    0.000    0.007    0.007
 build_tblite_matrices               13  7.0    0.003    0.003    0.007    0.007
 copy_fm_to_dbcsr                   218 11.8    0.000    0.000    0.006    0.006
 make_images                        238 13.9    0.001    0.001    0.005    0.005
 cp_fm_syevd_base                    99 11.7    0.005    0.005    0.005    0.005
 dbcsr_finalize                    2195 12.2    0.001    0.001    0.004    0.004
 cp_dbcsr_sm_fm_multiply             20 10.3    0.000    0.000    0.004    0.004
 qs_energies_init_hamiltonians        7  6.9    0.000    0.000    0.004    0.004
 multiply_cannon                    119 12.9    0.002    0.002    0.004    0.004
 tb_get_multipole                    13  8.0    0.002    0.002    0.003    0.003
 dbcsr_create_new                  3136 13.1    0.003    0.003    0.003    0.003
 dbcsr_crop_matrix                  198 13.9    0.000    0.000    0.003    0.003
 dbcsr_desymmetrize_deep            194 11.5    0.001    0.001    0.003    0.003
 qs_init_subsys                       1  2.0    0.000    0.000    0.003    0.003
 qs_ks_update_qs_env_forces           6  6.0    0.000    0.000    0.003    0.003
 dbcsr_copy_submatrix               198 14.9    0.001    0.001    0.002    0.002
 cp_dbcsr_sm_fm_multiply_core        20 11.3    0.000    0.000    0.002    0.002
 dbcsr_iterator_start              5366 12.6    0.002    0.002    0.002    0.002
 dbcsr_merge_all                    709 14.9    0.001    0.001    0.002    0.002
 reorthogonalize_vectors              6  9.8    0.000    0.000    0.002    0.002
 make_basis_lowdin                    6 10.8    0.000    0.000    0.002    0.002
 cp_fm_redistribute_start            99 11.7    0.002    0.002    0.002    0.002
 parallel_gemm_fm_gemm              206 10.7    0.000    0.000    0.002    0.002
 cp_fm_gemm                         206 11.7    0.002    0.002    0.002    0.002
 -------------------------------------------------------------------------------

 The number of warnings for this run is : 0
 
 -------------------------------------------------------------------------------
  **** **** ******  **  PROGRAM ENDED AT                 2026-05-23 22:46:21.035
 ***** ** ***  *** **   PROGRAM RAN ON                                spark-c86c
 **    ****   ******    PROGRAM RAN BY                                  kuehne88
 ***** **    ** ** **   PROGRAM PROCESS ID                               2229227
  **** **  *******  **  PROGRAM STOPPED IN /home/kuehne88/periodic-gfn2-benchmar
                                           ks/X23b/runs/molecule_geoopt/GFN2/pyr
                                           azole_GFN2_mol_geoopt
