 DBCSR| CPU Multiplication driver                                           XSMM (U)
 DBCSR| Multrec recursion limit                                              512 (U)
 DBCSR| Multiplication stack size                                           1000 (D)
 DBCSR| Maximum elements for images                                    UNLIMITED (U)
 DBCSR| Multiplicative factor virtual images                                   1 (U)
 DBCSR| Use multiplication densification                                       T (D)
 DBCSR| Multiplication size stacks                                             3 (U)
 DBCSR| Use memory pool for CPU allocation                                     F (U)
 DBCSR| Number of 3D layers                                               SINGLE (U)
 DBCSR| Use MPI memory allocation                                              F (U)
 DBCSR| Use RMA algorithm                                                      F (U)
 DBCSR| Use Communication thread                                               T (U)
 DBCSR| Communication thread load                                             87 (D)
 DBCSR| MPI: My process id                                                     0
 DBCSR| MPI: Number of processes                                               1
 DBCSR| OMP: Current number of threads                                         1
 DBCSR| OMP: Max number of threads                                             1
 DBCSR| Split modifier for TAS multiplication algorithm                  1.0E+00 (U)


  **** **** ******  **  PROGRAM STARTED AT               2026-05-23 22:46:18.307
 ***** ** ***  *** **   PROGRAM STARTED ON                            spark-c86c
 **    ****   ******    PROGRAM STARTED BY                              kuehne88
 ***** **    ** ** **   PROGRAM PROCESS ID                               2222445
  **** **  *******  **  PROGRAM STARTED IN /home/kuehne88/periodic-gfn2-benchmar
                                           ks/X23b/runs/molecule_geoopt/GFN1/nap
                                           hthalene_GFN1_mol_geoopt

 CP2K| version string:                 CP2K version 2026.1 (Development Version)
 CP2K| source code revision number:                                   0622d442e4
 CP2K| cp2kflags: omp fftw3 libxc parallel scalapack mpi_f08 xsmm spglib libdftd
 CP2K|            4 dftd4_v3 mctc-lib tblite
 CP2K| is freely available from                            https://www.cp2k.org/
 CP2K| Program compiled at                                   2026-05-23 22:05:08
 CP2K| Program compiled on                                            spark-c86c
 CP2K| Program compiled for                                              aarch64
 CP2K| Data directory path    /home/kuehne88/cp2k-master-tblite-20260523/install
 CP2K| Input file name                           naphthalene_GFN1_mol_geoopt.inp

 GLOBAL| Force Environment number                                              1
 GLOBAL| Basis set file name                                           BASIS_SET
 GLOBAL| Potential file name                                           POTENTIAL
 GLOBAL| MM Potential file name                                     MM_POTENTIAL
 GLOBAL| Coordinate file name                                      __STD_INPUT__
 GLOBAL| Method name                                                        CP2K
 GLOBAL| Project name                                naphthalene_GFN1_mol_geoopt
 GLOBAL| Run type                                                        GEO_OPT
 GLOBAL| FFT library                                                       FFTW3
 GLOBAL| Diagonalization library                                       ScaLAPACK
 GLOBAL| Cholesky decomposition library                                ScaLAPACK
 GLOBAL| DGEMM library                                                      BLAS
 GLOBAL| Direct generalized diagonalization requested                          F
 GLOBAL| Orthonormality check for eigenvectors                          DISABLED
 GLOBAL| Matrix multiplication library                                 ScaLAPACK
 GLOBAL| All-to-all communication in single precision                          F
 GLOBAL| FFTs using library dependent lengths                                  F
 GLOBAL| Grid backend                                                       AUTO
 GLOBAL| Global print level                                                  LOW
 GLOBAL| MPI I/O enabled                                                       T
 GLOBAL| Total number of message passing processes                             1
 GLOBAL| Number of distributed systems (nodes)                                 1
 GLOBAL| Number of threads for this process                                    1
 GLOBAL| This output is from process                                           0
 GLOBAL| OpenMP stack size per thread (OMP_STACKSIZE)                    default
 GLOBAL| CPU model name                                                  UNKNOWN
 GLOBAL| CPUID                                                              2200
 GLOBAL| Compiled for CPUID                                                 2000

 *** HINT in environment.F:970 :: The compiler target flags (arm_arch64)   ***
 *** used to build this binary cannot exploit all extensions of this CPU   ***
 *** model (arm_sve256). Consider compiler target flags as part of FCFLAGS ***
 *** and CFLAGS (ARCH file).                                               ***


 MEMORY| system memory details [Kb]
 MEMORY|                        rank 0           min           max       average
 MEMORY| MemTotal            125508532     125508532     125508532     125508532
 MEMORY| MemFree             105590436     105590436     105590436     105590436
 MEMORY| Buffers                865972        865972        865972        865972
 MEMORY| Cached               13214812      13214812      13214812      13214812
 MEMORY| Slab                  1565168       1565168       1565168       1565168
 MEMORY| SReclaimable           888300        888300        888300        888300
 MEMORY| MemLikelyFree       120559520     120559520     120559520     120559520


 GENERATE|  Preliminary Number of Bonds generated:                             0
 GENERATE|  Achieved consistency in connectivity generation.


                  #####   #####        #     #   #     #       #          
                 #     # #     #      #    ##### #     #   # #####  ####  
                 #     # #           #       #   ###   #       #   #    # 
                 #     #  #####     #        #   #  #  #   #   #   ###### 
                 #   # #       #   #         #   #   # #   #   #   #      
                 #    #  #     #  #          #   #  #  # # #   #    #   # 
                  #### #  #####  #           #   ###   ##  #   #     ###  

                                   GFN1-xTB  
                                 Version 0.0                       
                            Johann V. Pototschnig                  



 TOTAL NUMBERS AND MAXIMUM NUMBERS

  Total number of            - Atomic kinds:                                   2
                             - Atoms:                                         18
                             - Shell sets:                                    36
                             - Shells:                                        36
                             - Primitive Cartesian functions:                208
                             - Cartesian basis functions:                     56
                             - Spherical basis functions:                     56

  Maximum angular momentum of the orbital basis functions:                     1


 SCF PARAMETERS         Density guess:                                     MOPAC
                        --------------------------------------------------------
                        max_scf:                                             300
                        max_scf_history:                                       0
                        max_diis:                                              4
                        --------------------------------------------------------
                        eps_scf:                                        1.00E-09
                        eps_scf_history:                                0.00E+00
                        eps_diis:                                       1.00E-01
                        eps_eigval:                                     1.00E-05
                        --------------------------------------------------------
                        level_shift [a.u.]:                             0.000000
                        added MOs                                        32    0
                        --------------------------------------------------------
                        Mixing method:                           DIRECT_P_MIXING
                        --------------------------------------------------------
                        Smear method:                                FERMI_DIRAC
                        Electronic temperature [K]:                        300.0
                        Electronic temperature [a.u.]:                  9.50E-04
                        Accuracy threshold:                             1.00E-06
                        --------------------------------------------------------
                        No outer SCF

 BFGS| Use rational function optimization for step estimation:                NO
 BFGS| Use model Hessian for initial guess:                                  YES
 BFGS| Restart Hessian:                                                       NO
 BFGS| Trust radius:                                                       0.472

 *******************************************************************************
 ***                     STARTING GEOMETRY OPTIMIZATION                      ***
 ***                                   BFGS                                  ***
 *******************************************************************************

 Extrapolation method: initial_guess

 Number of electrons:                                                         48
 Number of occupied orbitals:                                                 24
 Number of molecular orbitals:                                                56

 Number of orbital functions:                                                 56
 Number of independent orbital functions:                                     56


 SCF WAVEFUNCTION OPTIMIZATION

  Step     Update method      Time    Convergence         Total energy    Change
  ------------------------------------------------------------------------------
     1 TBLite/Diag 0.40E+00    0.0     1.32260799       -25.4334473192 -2.54E+01
     2 TBLite/Diag 0.40E+00    0.0     0.00822651       -25.4335478430 -1.01E-04
     3 TBLite/Diag 0.40E+00    0.0     0.00430590       -25.4335195689  2.83E-05
     4 TBLite/Diag 0.40E+00    0.0     0.00353938       -25.4335537330 -3.42E-05
     5 TBLite/Diag 0.40E+00    0.0     0.00057927       -25.4335551191 -1.39E-06
     6 TBLite/Diag 0.40E+00    0.0     0.00004717       -25.4335551281 -9.01E-09
     7 TBLite/Diag 0.40E+00    0.0     0.00000276       -25.4335551281 -2.58E-11
     8 TBLite/Diag 0.40E+00    0.0     0.00000074       -25.4335551281 -3.03E-12
     9 TBLite/Diag 0.40E+00    0.0     0.00000013       -25.4335551281 -4.62E-14
    10 TBLite/Diag 0.40E+00    0.0     4.3945E-09       -25.4335551281 -1.42E-14
    11 TBLite/Diag 0.40E+00    0.0     6.8010E-10       -25.4335551281  7.11E-15

  *** SCF run converged in    11 steps ***


  Core Hamiltonian energy:                                    -25.87799272470705
  Repulsive potential energy:                                   0.45298366726228
  Electrostatic energy:                                         0.00106612696176
  Self-consistent dispersion energy:                            0.00000000000000
  Non-self consistent dispersion energy:                       -0.00961219765358
  Correction for halogen bonding:                               0.00000000000000
  Electronic entropic energy:                                  -0.00000000000000
  Fermi energy:                                                -0.32816918391576

  Total energy:                                               -25.43355512813659
  Total energy (extrapolated to T->0):                        -25.43355512813659

 ENERGY| Total FORCE_EVAL ( QS ) energy [hartree]            -25.433555128136589

 OPT| **************************************************************************
 OPT| Step number                                                              0
 OPT| Optimization method                                                   BFGS
 OPT| Total energy [hartree]                                      -25.4335551281
 OPT| Used time [s]                                                        0.018
 OPT| **************************************************************************
 OPT| Estimated peak process memory [MiB]                                    167

 --------------------------
 OPTIMIZATION STEP:      1
 --------------------------

 Extrapolation method: ASPC

 Number of electrons:                                                         48
 Number of occupied orbitals:                                                 24
 Number of molecular orbitals:                                                56

 Number of orbital functions:                                                 56
 Number of independent orbital functions:                                     56


 SCF WAVEFUNCTION OPTIMIZATION

  Step     Update method      Time    Convergence         Total energy    Change
  ------------------------------------------------------------------------------
     1 TBLite/Diag 0.40E+00    0.0     0.00814165       -25.4343767623 -2.54E+01
     2 TBLite/Diag 0.40E+00    0.0     0.00083927       -25.4343781186 -1.36E-06
     3 TBLite/Diag 0.40E+00    0.0     0.00036419       -25.4343780373  8.12E-08
     4 TBLite/Diag 0.40E+00    0.0     0.00022968       -25.4343782002 -1.63E-07
     5 TBLite/Diag 0.40E+00    0.0     0.00003738       -25.4343782054 -5.25E-09
     6 TBLite/Diag 0.40E+00    0.0     0.00000725       -25.4343782057 -2.37E-10
     7 TBLite/Diag 0.40E+00    0.0     0.00000028       -25.4343782057 -7.46E-14
     8 TBLite/Diag 0.40E+00    0.0     0.00000009       -25.4343782057 -5.33E-14
     9 TBLite/Diag 0.40E+00    0.0     2.0945E-09       -25.4343782057  1.78E-14
    10 TBLite/Diag 0.40E+00    0.0     2.6456E-10       -25.4343782057 -7.11E-15

  *** SCF run converged in    10 steps ***


  Core Hamiltonian energy:                                    -25.89492835352545
  Repulsive potential energy:                                   0.46911323461862
  Electrostatic energy:                                         0.00106839856487
  Self-consistent dispersion energy:                            0.00000000000000
  Non-self consistent dispersion energy:                       -0.00963148532688
  Correction for halogen bonding:                               0.00000000000000
  Electronic entropic energy:                                  -0.00000000000000
  Fermi energy:                                                -0.32710120684354

  Total energy:                                               -25.43437820566885
  Total energy (extrapolated to T->0):                        -25.43437820566885

 ENERGY| Total FORCE_EVAL ( QS ) energy [hartree]            -25.434378205668850

 OPT| **************************************************************************
 OPT| Step number                                                              1
 OPT| Optimization method                                                   BFGS
 OPT| Total energy [hartree]                                      -25.4343782057
 OPT| Effective energy change [hartree]                            -0.0008230775
 OPT| Predicted energy change [hartree]                            -0.0006700315
 OPT| Scaling factor                                                0.0000000000
 OPT| Step size                                                     0.0231639268
 OPT| Trust radius                                                  0.4724315332
 OPT| Decrease in energy                                                     YES
 OPT| Used time [s]                                                        0.017
 OPT|
 OPT| Maximum step size                                             0.0231639268
 OPT| Convergence limit for maximum step size                       0.0030000000
 OPT| Maximum step size is converged                                          NO
 OPT|
 OPT| RMS step size                                                 0.0110786904
 OPT| Convergence limit for RMS step size                           0.0015000000
 OPT| RMS step size is converged                                              NO
 OPT|
 OPT| Maximum gradient                                              0.0023846025
 OPT| Convergence limit for maximum gradient                        0.0004500000
 OPT| Maximum gradient is converged                                           NO
 OPT|
 OPT| RMS gradient                                                  0.0007867368
 OPT| Convergence limit for RMS gradient                            0.0003000000
 OPT| RMS gradient is converged                                               NO
 OPT| **************************************************************************
 OPT| Estimated peak process memory after this step [MiB]                    167

 --------------------------
 OPTIMIZATION STEP:      2
 --------------------------

 Extrapolation method: ASPC

 Number of electrons:                                                         48
 Number of occupied orbitals:                                                 24
 Number of molecular orbitals:                                                56

 Number of orbital functions:                                                 56
 Number of independent orbital functions:                                     56


 SCF WAVEFUNCTION OPTIMIZATION

  Step     Update method      Time    Convergence         Total energy    Change
  ------------------------------------------------------------------------------
     1 TBLite/Diag 0.40E+00    0.0     0.00211708       -25.4344456041 -2.54E+01
     2 TBLite/Diag 0.40E+00    0.0     0.00015020       -25.4344456681 -6.40E-08
     3 TBLite/Diag 0.40E+00    0.0     0.00006955       -25.4344456659  2.19E-09
     4 TBLite/Diag 0.40E+00    0.0     0.00005120       -25.4344456718 -5.93E-09
     5 TBLite/Diag 0.40E+00    0.0     0.00001207       -25.4344456723 -4.47E-10
     6 TBLite/Diag 0.40E+00    0.0     0.00000256       -25.4344456723 -2.75E-11
     7 TBLite/Diag 0.40E+00    0.0     0.00000064       -25.4344456723 -3.94E-13
     8 TBLite/Diag 0.40E+00    0.0     0.00000032       -25.4344456723 -2.24E-13
     9 TBLite/Diag 0.40E+00    0.0     1.0688E-09       -25.4344456723 -1.78E-14
    10 TBLite/Diag 0.40E+00    0.0     4.4585E-10       -25.4344456723 -7.11E-15

  *** SCF run converged in    10 steps ***


  Core Hamiltonian energy:                                    -25.89986207343172
  Repulsive potential energy:                                   0.47398629164651
  Electrostatic energy:                                         0.00106867940543
  Self-consistent dispersion energy:                            0.00000000000000
  Non-self consistent dispersion energy:                       -0.00963856991764
  Correction for halogen bonding:                               0.00000000000000
  Electronic entropic energy:                                  -0.00000000000000
  Fermi energy:                                                -0.32677970197120

  Total energy:                                               -25.43444567229741
  Total energy (extrapolated to T->0):                        -25.43444567229741

 ENERGY| Total FORCE_EVAL ( QS ) energy [hartree]            -25.434445672297414

 OPT| **************************************************************************
 OPT| Step number                                                              2
 OPT| Optimization method                                                   BFGS
 OPT| Total energy [hartree]                                      -25.4344456723
 OPT| Effective energy change [hartree]                            -0.0000674666
 OPT| Predicted energy change [hartree]                            -0.0000612280
 OPT| Scaling factor                                                0.0000000000
 OPT| Step size                                                     0.0100394092
 OPT| Trust radius                                                  0.4724315332
 OPT| Decrease in energy                                                     YES
 OPT| Used time [s]                                                        0.017
 OPT|
 OPT| Maximum step size                                             0.0100394092
 OPT| Convergence limit for maximum step size                       0.0030000000
 OPT| Maximum step size is converged                                          NO
 OPT|
 OPT| RMS step size                                                 0.0043766570
 OPT| Convergence limit for RMS step size                           0.0015000000
 OPT| RMS step size is converged                                              NO
 OPT|
 OPT| Maximum gradient                                              0.0004405645
 OPT| Convergence limit for maximum gradient                        0.0004500000
 OPT| Maximum gradient is converged                                          YES
 OPT|
 OPT| RMS gradient                                                  0.0001274927
 OPT| Convergence limit for RMS gradient                            0.0003000000
 OPT| RMS gradient is converged                                              YES
 OPT| **************************************************************************
 OPT| Estimated peak process memory after this step [MiB]                    167

 --------------------------
 OPTIMIZATION STEP:      3
 --------------------------

 Extrapolation method: ASPC

 Number of electrons:                                                         48
 Number of occupied orbitals:                                                 24
 Number of molecular orbitals:                                                56

 Number of orbital functions:                                                 56
 Number of independent orbital functions:                                     56


 SCF WAVEFUNCTION OPTIMIZATION

  Step     Update method      Time    Convergence         Total energy    Change
  ------------------------------------------------------------------------------
     1 TBLite/Diag 0.40E+00    0.0     0.00101129       -25.4344520748 -2.54E+01
     2 TBLite/Diag 0.40E+00    0.0     0.00003240       -25.4344520764 -1.59E-09
     3 TBLite/Diag 0.40E+00    0.0     0.00001087       -25.4344520765 -4.23E-11
     4 TBLite/Diag 0.40E+00    0.0     0.00000621       -25.4344520766 -9.44E-11
     5 TBLite/Diag 0.40E+00    0.0     0.00000104       -25.4344520766 -4.63E-12
     6 TBLite/Diag 0.40E+00    0.0     0.00000053       -25.4344520766 -5.76E-13
     7 TBLite/Diag 0.40E+00    0.0     0.00000019       -25.4344520766 -7.46E-14
     8 TBLite/Diag 0.40E+00    0.0     0.00000001       -25.4344520766  1.42E-14
     9 TBLite/Diag 0.40E+00    0.0     9.1953E-10       -25.4344520766 -1.78E-14

  *** SCF run converged in     9 steps ***


  Core Hamiltonian energy:                                    -25.90012733410935
  Repulsive potential energy:                                   0.47424662106654
  Electrostatic energy:                                         0.00106854889460
  Self-consistent dispersion energy:                            0.00000000000000
  Non-self consistent dispersion energy:                       -0.00963991242736
  Correction for halogen bonding:                               0.00000000000000
  Electronic entropic energy:                                  -0.00000000000000
  Fermi energy:                                                -0.32675209162668

  Total energy:                                               -25.43445207657556
  Total energy (extrapolated to T->0):                        -25.43445207657556

 ENERGY| Total FORCE_EVAL ( QS ) energy [hartree]            -25.434452076575560

 OPT| **************************************************************************
 OPT| Step number                                                              3
 OPT| Optimization method                                                   BFGS
 OPT| Total energy [hartree]                                      -25.4344520766
 OPT| Effective energy change [hartree]                            -0.0000064043
 OPT| Predicted energy change [hartree]                            -0.0000045165
 OPT| Scaling factor                                                0.0000000000
 OPT| Step size                                                     0.0045330147
 OPT| Trust radius                                                  0.4724315332
 OPT| Decrease in energy                                                     YES
 OPT| Used time [s]                                                        0.017
 OPT|
 OPT| Maximum step size                                             0.0045330147
 OPT| Convergence limit for maximum step size                       0.0030000000
 OPT| Maximum step size is converged                                          NO
 OPT|
 OPT| RMS step size                                                 0.0014705802
 OPT| Convergence limit for RMS step size                           0.0015000000
 OPT| RMS step size is converged                                             YES
 OPT|
 OPT| Maximum gradient                                              0.0002738523
 OPT| Convergence limit for maximum gradient                        0.0004500000
 OPT| Maximum gradient is converged                                          YES
 OPT|
 OPT| RMS gradient                                                  0.0001003287
 OPT| Convergence limit for RMS gradient                            0.0003000000
 OPT| RMS gradient is converged                                              YES
 OPT| **************************************************************************
 OPT| Estimated peak process memory after this step [MiB]                    168

 --------------------------
 OPTIMIZATION STEP:      4
 --------------------------

 Extrapolation method: ASPC

 Number of electrons:                                                         48
 Number of occupied orbitals:                                                 24
 Number of molecular orbitals:                                                56

 Number of orbital functions:                                                 56
 Number of independent orbital functions:                                     56


 SCF WAVEFUNCTION OPTIMIZATION

  Step     Update method      Time    Convergence         Total energy    Change
  ------------------------------------------------------------------------------
     1 TBLite/Diag 0.40E+00    0.0     0.00100912       -25.4344542132 -2.54E+01
     2 TBLite/Diag 0.40E+00    0.0     0.00002234       -25.4344542145 -1.32E-09
     3 TBLite/Diag 0.40E+00    0.0     0.00000308       -25.4344542145 -1.37E-11
     4 TBLite/Diag 0.40E+00    0.0     0.00000242       -25.4344542145 -2.95E-13
     5 TBLite/Diag 0.40E+00    0.0     0.00000167       -25.4344542145 -2.66E-12
     6 TBLite/Diag 0.40E+00    0.0     0.00000041       -25.4344542145 -4.26E-13
     7 TBLite/Diag 0.40E+00    0.0     0.00000004       -25.4344542145 -7.11E-15
     8 TBLite/Diag 0.40E+00    0.0     0.00000002       -25.4344542145 -2.13E-14
     9 TBLite/Diag 0.40E+00    0.0     1.6501E-09       -25.4344542145  1.07E-14
    10 TBLite/Diag 0.40E+00    0.0     3.1302E-10       -25.4344542145  7.11E-15

  *** SCF run converged in    10 steps ***


  Core Hamiltonian energy:                                    -25.90000089666141
  Repulsive potential energy:                                   0.47411885591110
  Electrostatic energy:                                         0.00106851760402
  Self-consistent dispersion energy:                            0.00000000000000
  Non-self consistent dispersion energy:                       -0.00964069139811
  Correction for halogen bonding:                               0.00000000000000
  Electronic entropic energy:                                  -0.00000000000000
  Fermi energy:                                                -0.32674331087915

  Total energy:                                               -25.43445421454441
  Total energy (extrapolated to T->0):                        -25.43445421454441

 ENERGY| Total FORCE_EVAL ( QS ) energy [hartree]            -25.434454214544406

 OPT| **************************************************************************
 OPT| Step number                                                              4
 OPT| Optimization method                                                   BFGS
 OPT| Total energy [hartree]                                      -25.4344542145
 OPT| Effective energy change [hartree]                            -0.0000021380
 OPT| Predicted energy change [hartree]                            -0.0000020119
 OPT| Scaling factor                                                0.0000000000
 OPT| Step size                                                     0.0040507505
 OPT| Trust radius                                                  0.4724315332
 OPT| Decrease in energy                                                     YES
 OPT| Used time [s]                                                        0.018
 OPT|
 OPT| Maximum step size                                             0.0040507505
 OPT| Convergence limit for maximum step size                       0.0030000000
 OPT| Maximum step size is converged                                          NO
 OPT|
 OPT| RMS step size                                                 0.0012287356
 OPT| Convergence limit for RMS step size                           0.0015000000
 OPT| RMS step size is converged                                             YES
 OPT|
 OPT| Maximum gradient                                              0.0001130320
 OPT| Convergence limit for maximum gradient                        0.0004500000
 OPT| Maximum gradient is converged                                          YES
 OPT|
 OPT| RMS gradient                                                  0.0000412301
 OPT| Convergence limit for RMS gradient                            0.0003000000
 OPT| RMS gradient is converged                                              YES
 OPT| **************************************************************************
 OPT| Estimated peak process memory after this step [MiB]                    168

 --------------------------
 OPTIMIZATION STEP:      5
 --------------------------

 Extrapolation method: ASPC

 Number of electrons:                                                         48
 Number of occupied orbitals:                                                 24
 Number of molecular orbitals:                                                56

 Number of orbital functions:                                                 56
 Number of independent orbital functions:                                     56


 SCF WAVEFUNCTION OPTIMIZATION

  Step     Update method      Time    Convergence         Total energy    Change
  ------------------------------------------------------------------------------
     1 TBLite/Diag 0.40E+00    0.0     0.00015344       -25.4344542796 -2.54E+01
     2 TBLite/Diag 0.40E+00    0.0     0.00001353       -25.4344542798 -2.45E-10
     3 TBLite/Diag 0.40E+00    0.0     0.00000362       -25.4344542798 -2.96E-11
     4 TBLite/Diag 0.40E+00    0.0     0.00000162       -25.4344542798 -2.21E-12
     5 TBLite/Diag 0.40E+00    0.0     0.00000076       -25.4344542798 -1.07E-12
     6 TBLite/Diag 0.40E+00    0.0     0.00000028       -25.4344542798 -8.88E-14
     7 TBLite/Diag 0.40E+00    0.0     0.00000010       -25.4344542798  3.55E-15
     8 TBLite/Diag 0.40E+00    0.0     0.00000001       -25.4344542798  1.78E-14
     9 TBLite/Diag 0.40E+00    0.0     1.6943E-09       -25.4344542798 -7.11E-15
    10 TBLite/Diag 0.40E+00    0.0     6.0723E-10       -25.4344542798 -2.84E-14

  *** SCF run converged in    10 steps ***


  Core Hamiltonian energy:                                    -25.89995725879506
  Repulsive potential energy:                                   0.47407513207535
  Electrostatic energy:                                         0.00106856098895
  Self-consistent dispersion energy:                            0.00000000000000
  Non-self consistent dispersion energy:                       -0.00964071410130
  Correction for halogen bonding:                               0.00000000000000
  Electronic entropic energy:                                  -0.00000000000000
  Fermi energy:                                                -0.32674077481424

  Total energy:                                               -25.43445427983207
  Total energy (extrapolated to T->0):                        -25.43445427983207

 ENERGY| Total FORCE_EVAL ( QS ) energy [hartree]            -25.434454279832071

 OPT| **************************************************************************
 OPT| Step number                                                              5
 OPT| Optimization method                                                   BFGS
 OPT| Total energy [hartree]                                      -25.4344542798
 OPT| Effective energy change [hartree]                            -0.0000000653
 OPT| Predicted energy change [hartree]                            -0.0000000799
 OPT| Scaling factor                                                0.0000000000
 OPT| Step size                                                     0.0004192441
 OPT| Trust radius                                                  0.4724315332
 OPT| Decrease in energy                                                     YES
 OPT| Used time [s]                                                        0.018
 OPT|
 OPT| Maximum step size                                             0.0004192441
 OPT| Convergence limit for maximum step size                       0.0030000000
 OPT| Maximum step size is converged                                         YES
 OPT|
 OPT| RMS step size                                                 0.0001459338
 OPT| Convergence limit for RMS step size                           0.0015000000
 OPT| RMS step size is converged                                             YES
 OPT|
 OPT| Maximum gradient                                              0.0000476851
 OPT| Convergence limit for maximum gradient                        0.0004500000
 OPT| Maximum gradient is converged                                          YES
 OPT|
 OPT| RMS gradient                                                  0.0000155991
 OPT| Convergence limit for RMS gradient                            0.0003000000
 OPT| RMS gradient is converged                                              YES
 OPT| **************************************************************************
 OPT| Estimated peak process memory after this step [MiB]                    168

 *******************************************************************************
 ***                    GEOMETRY OPTIMIZATION COMPLETED                      ***
 *******************************************************************************

 write_final_structure: Optimization converged, writing XYZ file gladly:
  naphthalene_GFN1_mol_geoopt-FINAL-1_5.xyz

 write_final_structure: Optimization converged, writing CIF file gladly:
  naphthalene_GFN1_mol_geoopt-FINAL-1_5.cif

 write_final_structure: Done!

                    Reevaluating energy at the minimum

 Extrapolation method: ASPC

 Number of electrons:                                                         48
 Number of occupied orbitals:                                                 24
 Number of molecular orbitals:                                                56

 Number of orbital functions:                                                 56
 Number of independent orbital functions:                                     56


 SCF WAVEFUNCTION OPTIMIZATION

  Step     Update method      Time    Convergence         Total energy    Change
  ------------------------------------------------------------------------------
     1 TBLite/Diag 0.40E+00    0.0     1.1639E-10       -25.4344542798 -2.54E+01

  *** SCF run converged in     1 steps ***


  Core Hamiltonian energy:                                    -25.89995725879545
  Repulsive potential energy:                                   0.47407513207535
  Electrostatic energy:                                         0.00106856098934
  Self-consistent dispersion energy:                            0.00000000000000
  Non-self consistent dispersion energy:                       -0.00964071410130
  Correction for halogen bonding:                               0.00000000000000
  Electronic entropic energy:                                  -0.00000000000000
  Fermi energy:                                                -0.32674077482529

  Total energy:                                               -25.43445427983207
  Total energy (extrapolated to T->0):                        -25.43445427983207

 ENERGY| Total FORCE_EVAL ( QS ) energy [hartree]            -25.434454279832067

 -------------------------------------------------------------------------------
 -                                                                             -
 -                                DBCSR STATISTICS                             -
 -                                                                             -
 -------------------------------------------------------------------------------
 COUNTER                                    TOTAL       BLAS       SMM       ACC
 flops     2 x    24 x     2               245760       0.0%    100.0%      0.0%     
 flops     2 x    32 x     2               327680       0.0%    100.0%      0.0%     
 flops     2 x    24 x     4               614400       0.0%    100.0%      0.0%     
 flops     4 x    24 x     2               614400       0.0%    100.0%      0.0%     
 flops     2 x    32 x     4               819200       0.0%    100.0%      0.0%     
 flops     4 x    32 x     2               819200       0.0%    100.0%      0.0%     
 flops     2 x     2 x    56              1177344       0.0%    100.0%      0.0%     
 flops     4 x    24 x     4              1536000       0.0%    100.0%      0.0%     
 flops     4 x    32 x     4              2048000       0.0%    100.0%      0.0%     
 flops     2 x     4 x    56              2616320       0.0%    100.0%      0.0%     
 flops     4 x     2 x    56              2616320       0.0%    100.0%      0.0%     
 flops     4 x     4 x    56              7194880       0.0%    100.0%      0.0%     
 flops inhomo. stacks                           0       0.0%      0.0%      0.0%
 flops total                        20.629504E+06       0.0%    100.0%      0.0%
 flops max/rank                     20.629504E+06       0.0%    100.0%      0.0%
 matmuls inhomo. stacks                         0       0.0%      0.0%      0.0%
 matmuls total                              25443       0.0%    100.0%      0.0%
 number of processed stacks                   452       0.0%    100.0%      0.0%
 average stack size                                     0.0      56.3       0.0
 marketing flops                    18.013184E+06
 -------------------------------------------------------------------------------
 # multiplications                             93
 max memory usage/rank              13.672030E+09
 # max total images/rank                        1
 # max 3D layers                                1
 # MPI messages exchanged                       0
 -------------------------------------------------------------------------------
 -                                                                             -
 -                      DBCSR MESSAGE PASSING PERFORMANCE                      -
 -                                                                             -
 -------------------------------------------------------------------------------
 ROUTINE             CALLS      AVE VOLUME [Bytes]
 MP_Bcast               13                     12.
 MP_Allreduce          468                     10.
 MP_Alltoall          3052                  16812.
 MP_ISend              372                   1339.
 MP_IRecv              372                   1339.
 -------------------------------------------------------------------------------

 -------------------------------------------------------------------------------
 -                                                                             -
 -                          OFFLOAD MEMPOOL STATISTICS                         -
 -                                                                             -
 -------------------------------------------------------------------------------
 Memory consumption                Number of allocations  Used [MiB]  Size [MiB]
 Device                                                1           0           0
 Host                                                  1           0           0
 -------------------------------------------------------------------------------

 MEMORY| Estimated peak process memory [MiB]                                 168

 -------------------------------------------------------------------------------
 -                                                                             -
 -                         MESSAGE PASSING PERFORMANCE                         -
 -                                                                             -
 -------------------------------------------------------------------------------

 ROUTINE             CALLS      AVE VOLUME [Bytes]
 MP_Group                1
 MP_Bcast              139                    236.
 MP_Allreduce          990                    146.
 MP_Sync                74
 MP_comm_split          73
 -------------------------------------------------------------------------------


 -------------------------------------------------------------------------------
 -                                                                             -
 -                           R E F E R E N C E S                               -
 -                                                                             -
 -------------------------------------------------------------------------------
 
 CP2K version 2026.1 (Development Version), the CP2K developers group (2026).
 CP2K is freely available from https://www.cp2k.org/ .
 
 M. Iannuzzi, J. Wilhelm, F. Stein, A. Bussy, H. Elgabarty, D. Golze, A. Hehn, 
 M. Graml, S. Marek, B. Sertcan Gökmen, C. Schran, H. Forbert, R. Z. 
 Khaliullin, A. Kozhevnikov, M. Taillefumier, R. Meli, V. V. Rybkin, M. Brehm, 
 R. Schade, O. Schütt, J. V. Pototschnig, H. Mirhosseini, A. Knüpfer, D. Marx, 
 M. Krack, J. Hutter, T. D. Kühne.
 J. Phys. Chem. B 130, 1237-1310 (2026).
 The CP2K Program Package Made Simple.
 https://doi.org/10.1021/acs.jpcb.5c05851

 A. Katbashev, M. Stahn, T. Rose, V. Alizadeh, M. Friede, C. Plett, P. 
 Steinbach, S. Ehlert.
 J. Phys. Chem. A 129, 2667-2682 (2025).
 Overview on Building Blocks and Applications of Efficient and Robust Extended 
 Tight Binding.
 https://doi.org/10.1021/acs.jpca.4c08263

 T. D. Kühne, M. Iannuzzi, M. Del Ben, V. V. Rybkin, P. Seewald, F. Stein, T. 
 Laino, R. Z. Khaliullin, O. Schütt, F. Schiffmann, D. Golze, J. Wilhelm, S. 
 Chulkov, M. H. Bani-Hashemian, V. Weber, U. Borstnik, M. Taillefumier, A. S. 
 Jakobovits, A. Lazzaro, H. Pabst, T. Müller, R. Schade, M. Guidon, S. 
 Andermatt, N. Holmberg, G. K. Schenter, A. Hehn, A. Bussy, F. Belleflamme, G. 
 Tabacchi, A. Glöß, M. Lass, I. Bethune, C. J. Mundy, C. Plessl, M. Watkins, 
 J. VandeVondele, M. Krack, J. Hutter.
 J. Chem. Phys. 152, 194103 (2020).
 CP2K: An electronic structure and molecular dynamics software package - 
 Quickstep: Efficient and accurate electronic structure calculations.
 https://doi.org/10.1063/5.0007045

 P. Pracht, E. Caldeweyher, S. Ehlert, S. Grimme.
 ChemRxiv, (2019).
 A Robust Non-Self-Consistent Tight-Binding Quantum Chemistry Method for large 
 Molecules.
 https://doi.org/10.26434/chemrxiv.8326202.v1

 S. Grimme, C. Bannwarth, P. Shushkov.
 J. Chem. Theory Comput. 13, 1989 (2017).
 A Robust and Accurate Tight-Binding Quantum Chemical Method for Structures, 
 Vibrational Frequencies, and Noncovalent Interactions of Large Molecular 
 Systems Parametrized for All spd-Block Elements (Z = 1-86).
 https://doi.org/10.1021/acs.jctc.7b00118

 O. Schuett, P. Messmer, J. Hutter, J. VandeVondele.
 Electronic Structure Calculations on Graphics Processing Units, 173-190 (2016).
 GPU-Accelerated Sparse Matrix-Matrix Multiplication for Linear Scaling Density 
 Functional Theory.
 https://doi.org/10.1002/9781118670712.ch8

 A. Heinecke, G. Henry, M. Hutchinson, H. Pabst.
 Proceedings of Intl. Supercomputing Conference, 981-991 (2016).
 LIBXSMM: Accelerating Small Matrix Multiplications by Runtime Code Generation.
 https://doi.org/10.1109/SC.2016.83

 U. Borstnik, J. VandeVondele, V. Weber, J. Hutter.
 Parallel Comput. 40, 47-58 (2014).
 Sparse matrix multiplication: The distributed block-compressed sparse row 
 library.
 https://doi.org/10.1016/j.parco.2014.03.012

 T. D. Kühne, M. Krack, F. R. Mohamed, M. Parrinello.
 Phys. Rev. Lett. 98, 066401 (2007).
 Efficient and accurate Car-Parrinello-like approach to Born-Oppenheimer 
 molecular dynamics.
 https://doi.org/10.1103/PhysRevLett.98.066401

 M. Frigo, S. G. Johnson.
 Proc. IEEE 93, 216-231 (2005).
 The design and implementation of FFTW3.
 https://doi.org/10.1109/JPROC.2004.840301

 J. Kolafa.
 J. Comput. Chem. 25, 335-342 (2004).
 Time-reversible always stable predictor-corrector method for molecular dynamics 
 of polarizable molecules.
 https://doi.org/10.1002/jcc.10385

 N. D. Mermin.
 Phys. Rev. 137, A1441-A1443 (1965).
 Thermal Properties of the Inhomogeneous Electron Gas.
 https://doi.org/10.1103/PhysRev.137.A1441


 -------------------------------------------------------------------------------
 -                                                                             -
 -                                T I M I N G                                  -
 -                                                                             -
 -------------------------------------------------------------------------------
 SUBROUTINE                       CALLS  ASD         SELF TIME        TOTAL TIME
                                MAXIMUM       AVERAGE  MAXIMUM  AVERAGE  MAXIMUM
 CP2K                                 1  1.0    0.001    0.001    0.118    0.118
 cp_geo_opt                           1  2.0    0.000    0.000    0.112    0.112
 geoopt_bfgs                          1  3.0    0.001    0.001    0.112    0.112
 cp_eval_at                           7  4.0    0.000    0.000    0.107    0.107
 qs_forces                            6  5.0    0.000    0.000    0.102    0.102
 qs_energies                          7  5.9    0.000    0.000    0.083    0.083
 scf_env_do_scf                       7  6.9    0.000    0.000    0.060    0.060
 scf_env_do_scf_inner_loop           61  8.0    0.002    0.002    0.060    0.060
 qs_scf_new_mos                      61  9.0    0.000    0.000    0.051    0.051
 cp_dbcsr_plus_fm_fm_t               73 10.8    0.000    0.000    0.023    0.023
 calculate_dm_sparse                 67 10.0    0.000    0.000    0.022    0.022
 dbcsr_multiply_generic              93 11.9    0.001    0.001    0.020    0.020
 rebuild_ks_matrix                   67  9.7    0.000    0.000    0.019    0.019
 build_tblite_ks_matrix              67 10.7    0.019    0.019    0.019    0.019
 qs_ks_update_qs_env_forces           6  6.0    0.000    0.000    0.016    0.016
 build_tblite_matrices               13  7.0    0.015    0.015    0.015    0.015
 copy_dbcsr_to_fm                   142 10.5    0.000    0.000    0.015    0.015
 eigensolver                         61 10.0    0.001    0.001    0.015    0.015
 cp_fm_syevd                         73 10.6    0.000    0.000    0.014    0.014
 dbcsr_complete_redistribute        308 12.2    0.009    0.009    0.014    0.014
 cp_fm_syevd_base                    73 11.6    0.012    0.012    0.012    0.012
 init_scf_run                         7  6.9    0.000    0.000    0.012    0.012
 scf_env_initial_rho_setup            7  7.9    0.000    0.000    0.010    0.010
 make_m2s                           186 12.9    0.001    0.001    0.010    0.010
 wfi_extrapolate                      7  8.9    0.000    0.000    0.010    0.010
 qs_diis_b_step                      54 10.0    0.000    0.000    0.008    0.008
 qs_energies_init_hamiltonians        7  6.9    0.000    0.000    0.008    0.008
 copy_fm_to_dbcsr                   166 11.8    0.000    0.000    0.007    0.007
 cp_dbcsr_sm_fm_multiply             20 10.3    0.000    0.000    0.006    0.006
 multiply_cannon                     93 12.9    0.001    0.001    0.005    0.005
 make_images                        186 13.9    0.001    0.001    0.005    0.005
 qs_ks_update_qs_env                 61  9.0    0.000    0.000    0.004    0.004
 dbcsr_finalize                    1155 13.2    0.001    0.001    0.004    0.004
 dbcsr_desymmetrize_deep            142 11.5    0.002    0.002    0.004    0.004
 reorthogonalize_vectors              6  9.8    0.000    0.000    0.004    0.004
 make_basis_lowdin                    6 10.8    0.000    0.000    0.004    0.004
 cp_dbcsr_sm_fm_multiply_core        20 11.3    0.000    0.000    0.004    0.004
 qs_init_subsys                       1  2.0    0.001    0.001    0.003    0.003
 dbcsr_crop_matrix                  146 13.8    0.000    0.000    0.003    0.003
 dbcsr_create_new                  2200 13.4    0.002    0.002    0.002    0.002
 -------------------------------------------------------------------------------

 The number of warnings for this run is : 0
 
 -------------------------------------------------------------------------------
  **** **** ******  **  PROGRAM ENDED AT                 2026-05-23 22:46:19.720
 ***** ** ***  *** **   PROGRAM RAN ON                                spark-c86c
 **    ****   ******    PROGRAM RAN BY                                  kuehne88
 ***** **    ** ** **   PROGRAM PROCESS ID                               2222445
  **** **  *******  **  PROGRAM STOPPED IN /home/kuehne88/periodic-gfn2-benchmar
                                           ks/X23b/runs/molecule_geoopt/GFN1/nap
                                           hthalene_GFN1_mol_geoopt
