 DBCSR| CPU Multiplication driver                                           XSMM (U)
 DBCSR| Multrec recursion limit                                              512 (U)
 DBCSR| Multiplication stack size                                           1000 (D)
 DBCSR| Maximum elements for images                                    UNLIMITED (U)
 DBCSR| Multiplicative factor virtual images                                   1 (U)
 DBCSR| Use multiplication densification                                       T (D)
 DBCSR| Multiplication size stacks                                             3 (U)
 DBCSR| Use memory pool for CPU allocation                                     F (U)
 DBCSR| Number of 3D layers                                               SINGLE (U)
 DBCSR| Use MPI memory allocation                                              F (U)
 DBCSR| Use RMA algorithm                                                      F (U)
 DBCSR| Use Communication thread                                               T (U)
 DBCSR| Communication thread load                                             87 (D)
 DBCSR| MPI: My process id                                                     0
 DBCSR| MPI: Number of processes                                               1
 DBCSR| OMP: Current number of threads                                         1
 DBCSR| OMP: Max number of threads                                             1
 DBCSR| Split modifier for TAS multiplication algorithm                  1.0E+00 (U)


  **** **** ******  **  PROGRAM STARTED AT               2026-05-23 22:46:20.429
 ***** ** ***  *** **   PROGRAM STARTED ON                            spark-c86c
 **    ****   ******    PROGRAM STARTED BY                              kuehne88
 ***** **    ** ** **   PROGRAM PROCESS ID                               2229221
  **** **  *******  **  PROGRAM STARTED IN /home/kuehne88/periodic-gfn2-benchmar
                                           ks/X23b/runs/molecule_geoopt/GFN2/pyr
                                           azine_GFN2_mol_geoopt

 CP2K| version string:                 CP2K version 2026.1 (Development Version)
 CP2K| source code revision number:                                   0622d442e4
 CP2K| cp2kflags: omp fftw3 libxc parallel scalapack mpi_f08 xsmm spglib libdftd
 CP2K|            4 dftd4_v3 mctc-lib tblite
 CP2K| is freely available from                            https://www.cp2k.org/
 CP2K| Program compiled at                                   2026-05-23 22:05:08
 CP2K| Program compiled on                                            spark-c86c
 CP2K| Program compiled for                                              aarch64
 CP2K| Data directory path    /home/kuehne88/cp2k-master-tblite-20260523/install
 CP2K| Input file name                              pyrazine_GFN2_mol_geoopt.inp

 GLOBAL| Force Environment number                                              1
 GLOBAL| Basis set file name                                           BASIS_SET
 GLOBAL| Potential file name                                           POTENTIAL
 GLOBAL| MM Potential file name                                     MM_POTENTIAL
 GLOBAL| Coordinate file name                                      __STD_INPUT__
 GLOBAL| Method name                                                        CP2K
 GLOBAL| Project name                                   pyrazine_GFN2_mol_geoopt
 GLOBAL| Run type                                                        GEO_OPT
 GLOBAL| FFT library                                                       FFTW3
 GLOBAL| Diagonalization library                                       ScaLAPACK
 GLOBAL| Cholesky decomposition library                                ScaLAPACK
 GLOBAL| DGEMM library                                                      BLAS
 GLOBAL| Direct generalized diagonalization requested                          F
 GLOBAL| Orthonormality check for eigenvectors                          DISABLED
 GLOBAL| Matrix multiplication library                                 ScaLAPACK
 GLOBAL| All-to-all communication in single precision                          F
 GLOBAL| FFTs using library dependent lengths                                  F
 GLOBAL| Grid backend                                                       AUTO
 GLOBAL| Global print level                                                  LOW
 GLOBAL| MPI I/O enabled                                                       T
 GLOBAL| Total number of message passing processes                             1
 GLOBAL| Number of distributed systems (nodes)                                 1
 GLOBAL| Number of threads for this process                                    1
 GLOBAL| This output is from process                                           0
 GLOBAL| OpenMP stack size per thread (OMP_STACKSIZE)                    default
 GLOBAL| CPU model name                                                  UNKNOWN
 GLOBAL| CPUID                                                              2200
 GLOBAL| Compiled for CPUID                                                 2000

 *** HINT in environment.F:970 :: The compiler target flags (arm_arch64)   ***
 *** used to build this binary cannot exploit all extensions of this CPU   ***
 *** model (arm_sve256). Consider compiler target flags as part of FCFLAGS ***
 *** and CFLAGS (ARCH file).                                               ***


 MEMORY| system memory details [Kb]
 MEMORY|                        rank 0           min           max       average
 MEMORY| MemTotal            125508532     125508532     125508532     125508532
 MEMORY| MemFree             105864752     105864752     105864752     105864752
 MEMORY| Buffers                866156        866156        866156        866156
 MEMORY| Cached               13217040      13217040      13217040      13217040
 MEMORY| Slab                  1565152       1565152       1565152       1565152
 MEMORY| SReclaimable           888664        888664        888664        888664
 MEMORY| MemLikelyFree       120836612     120836612     120836612     120836612


 GENERATE|  Preliminary Number of Bonds generated:                             0
 GENERATE|  Achieved consistency in connectivity generation.


                  #####   #####        #     #   #     #       #          
                 #     # #     #      #    ##### #     #   # #####  ####  
                 #     # #           #       #   ###   #       #   #    # 
                 #     #  #####     #        #   #  #  #   #   #   ###### 
                 #   # #       #   #         #   #   # #   #   #   #      
                 #    #  #     #  #          #   #  #  # # #   #    #   # 
                  #### #  #####  #           #   ###   ##  #   #     ###  

                                   GFN2-xTB  
                                 Version 0.0                       
                            Johann V. Pototschnig                  



 TOTAL NUMBERS AND MAXIMUM NUMBERS

  Total number of            - Atomic kinds:                                   3
                             - Atoms:                                         10
                             - Shell sets:                                    16
                             - Shells:                                        16
                             - Primitive Cartesian functions:                 60
                             - Cartesian basis functions:                     28
                             - Spherical basis functions:                     28

  Maximum angular momentum of the orbital basis functions:                     1


 SCF PARAMETERS         Density guess:                                     MOPAC
                        --------------------------------------------------------
                        max_scf:                                             300
                        max_scf_history:                                       0
                        max_diis:                                              4
                        --------------------------------------------------------
                        eps_scf:                                        1.00E-09
                        eps_scf_history:                                0.00E+00
                        eps_diis:                                       1.00E-01
                        eps_eigval:                                     1.00E-05
                        --------------------------------------------------------
                        level_shift [a.u.]:                             0.000000
                        added MOs                                        13    0
                        --------------------------------------------------------
                        Mixing method:                           DIRECT_P_MIXING
                        --------------------------------------------------------
                        Smear method:                                FERMI_DIRAC
                        Electronic temperature [K]:                        300.0
                        Electronic temperature [a.u.]:                  9.50E-04
                        Accuracy threshold:                             1.00E-06
                        --------------------------------------------------------
                        No outer SCF

 BFGS| Use rational function optimization for step estimation:                NO
 BFGS| Use model Hessian for initial guess:                                  YES
 BFGS| Restart Hessian:                                                       NO
 BFGS| Trust radius:                                                       0.472

 *******************************************************************************
 ***                     STARTING GEOMETRY OPTIMIZATION                      ***
 ***                                   BFGS                                  ***
 *******************************************************************************

 Extrapolation method: initial_guess

 Number of electrons:                                                         30
 Number of occupied orbitals:                                                 15
 Number of molecular orbitals:                                                28

 Number of orbital functions:                                                 28
 Number of independent orbital functions:                                     28


 SCF WAVEFUNCTION OPTIMIZATION

  Step     Update method      Time    Convergence         Total energy    Change
  ------------------------------------------------------------------------------
     1 TBLite/Diag 0.40E+00    0.0     0.67892066       -16.3384043858 -1.63E+01
     2 TBLite/Diag 0.40E+00    0.0     0.23325806       -16.4097891010 -7.14E-02
     3 TBLite/Diag 0.40E+00    0.0     0.06543660       -16.4113357253 -1.55E-03
     4 TBLite/Diag 0.40E+00    0.0     0.03834632       -16.4131900099 -1.85E-03
     5 TBLite/Diag 0.40E+00    0.0     0.01991989       -16.4133041284 -1.14E-04
     6 TBLite/Diag 0.40E+00    0.0     0.01522134       -16.4133266276 -2.25E-05
     7 TBLite/Diag 0.40E+00    0.0     0.00699724       -16.4134095954 -8.30E-05
     8 TBLite/Diag 0.40E+00    0.0     0.00003606       -16.4134095933  2.12E-09
     9 TBLite/Diag 0.40E+00    0.0     0.00007532       -16.4134096117 -1.84E-08
    10 TBLite/Diag 0.40E+00    0.0     0.00003292       -16.4134096146 -2.88E-09
    11 TBLite/Diag 0.40E+00    0.0     0.00000323       -16.4134096146 -6.27E-12
    12 TBLite/Diag 0.40E+00    0.0     0.00000094       -16.4134096146 -1.99E-12
    13 TBLite/Diag 0.40E+00    0.0     0.00000015       -16.4134096146 -4.97E-14
    14 TBLite/Diag 0.40E+00    0.0     0.00000003       -16.4134096146 -2.13E-14
    15 TBLite/Diag 0.40E+00    0.0     0.00000002       -16.4134096146  1.42E-14
    16 TBLite/Diag 0.40E+00    0.0     8.4579E-10       -16.4134096146  3.55E-15

  *** SCF run converged in    16 steps ***


  Core Hamiltonian energy:                                    -16.67897926424747
  Repulsive potential energy:                                   0.23513908120660
  Electrostatic energy:                                         0.03691724433952
  Self-consistent dispersion energy:                           -0.00648920919046
  Non-self consistent dispersion energy:                        0.00000253332990
  Correction for halogen bonding:                               0.00000000000000
  Electronic entropic energy:                                  -0.00000000000000
  Fermi energy:                                                -0.32022607357444

  Total energy:                                               -16.41340961456191
  Total energy (extrapolated to T->0):                        -16.41340961456191

 ENERGY| Total FORCE_EVAL ( QS ) energy [hartree]            -16.413409614561914

 OPT| **************************************************************************
 OPT| Step number                                                              0
 OPT| Optimization method                                                   BFGS
 OPT| Total energy [hartree]                                      -16.4134096146
 OPT| Used time [s]                                                        0.016
 OPT| **************************************************************************
 OPT| Estimated peak process memory [MiB]                                    163

 --------------------------
 OPTIMIZATION STEP:      1
 --------------------------

 Extrapolation method: ASPC

 Number of electrons:                                                         30
 Number of occupied orbitals:                                                 15
 Number of molecular orbitals:                                                28

 Number of orbital functions:                                                 28
 Number of independent orbital functions:                                     28


 SCF WAVEFUNCTION OPTIMIZATION

  Step     Update method      Time    Convergence         Total energy    Change
  ------------------------------------------------------------------------------
     1 TBLite/Diag 0.40E+00    0.0     0.02472539       -16.4146429876 -1.64E+01
     2 TBLite/Diag 0.40E+00    0.0     0.00078180       -16.4146445221 -1.53E-06
     3 TBLite/Diag 0.40E+00    0.0     0.00046388       -16.4146447401 -2.18E-07
     4 TBLite/Diag 0.40E+00    0.0     0.00038216       -16.4146449024 -1.62E-07
     5 TBLite/Diag 0.40E+00    0.0     0.00007565       -16.4146449132 -1.08E-08
     6 TBLite/Diag 0.40E+00    0.0     0.00001944       -16.4146449136 -4.27E-10
     7 TBLite/Diag 0.40E+00    0.0     0.00000480       -16.4146449137 -9.53E-12
     8 TBLite/Diag 0.40E+00    0.0     0.00000253       -16.4146449137 -5.51E-12
     9 TBLite/Diag 0.40E+00    0.0     0.00000072       -16.4146449137 -7.03E-13
    10 TBLite/Diag 0.40E+00    0.0     0.00000006       -16.4146449137  3.55E-15
    11 TBLite/Diag 0.40E+00    0.0     0.00000002       -16.4146449137  7.11E-15
    12 TBLite/Diag 0.40E+00    0.0     9.9561E-09       -16.4146449137 -1.07E-14
    13 TBLite/Diag 0.40E+00    0.0     2.5377E-10       -16.4146449137  3.55E-15

  *** SCF run converged in    13 steps ***


  Core Hamiltonian energy:                                    -16.69361082267463
  Repulsive potential energy:                                   0.24900109034924
  Electrostatic energy:                                         0.03647031732697
  Self-consistent dispersion energy:                           -0.00650794847923
  Non-self consistent dispersion energy:                        0.00000244982006
  Correction for halogen bonding:                               0.00000000000000
  Electronic entropic energy:                                  -0.00000000000000
  Fermi energy:                                                -0.31683783901434

  Total energy:                                               -16.41464491365759
  Total energy (extrapolated to T->0):                        -16.41464491365759

 ENERGY| Total FORCE_EVAL ( QS ) energy [hartree]            -16.414644913657586

 OPT| **************************************************************************
 OPT| Step number                                                              1
 OPT| Optimization method                                                   BFGS
 OPT| Total energy [hartree]                                      -16.4146449137
 OPT| Effective energy change [hartree]                            -0.0012352991
 OPT| Predicted energy change [hartree]                            -0.0009565354
 OPT| Scaling factor                                                0.0000000000
 OPT| Step size                                                     0.0304684739
 OPT| Trust radius                                                  0.4724315332
 OPT| Decrease in energy                                                     YES
 OPT| Used time [s]                                                        0.013
 OPT|
 OPT| Maximum step size                                             0.0304684739
 OPT| Convergence limit for maximum step size                       0.0030000000
 OPT| Maximum step size is converged                                          NO
 OPT|
 OPT| RMS step size                                                 0.0136588050
 OPT| Convergence limit for RMS step size                           0.0015000000
 OPT| RMS step size is converged                                              NO
 OPT|
 OPT| Maximum gradient                                              0.0049271290
 OPT| Convergence limit for maximum gradient                        0.0004500000
 OPT| Maximum gradient is converged                                           NO
 OPT|
 OPT| RMS gradient                                                  0.0017821545
 OPT| Convergence limit for RMS gradient                            0.0003000000
 OPT| RMS gradient is converged                                               NO
 OPT| **************************************************************************
 OPT| Estimated peak process memory after this step [MiB]                    163

 --------------------------
 OPTIMIZATION STEP:      2
 --------------------------

 Extrapolation method: ASPC

 Number of electrons:                                                         30
 Number of occupied orbitals:                                                 15
 Number of molecular orbitals:                                                28

 Number of orbital functions:                                                 28
 Number of independent orbital functions:                                     28


 SCF WAVEFUNCTION OPTIMIZATION

  Step     Update method      Time    Convergence         Total energy    Change
  ------------------------------------------------------------------------------
     1 TBLite/Diag 0.40E+00    0.0     0.00931599       -16.4147755601 -1.64E+01
     2 TBLite/Diag 0.40E+00    0.0     0.00021533       -16.4147758754 -3.15E-07
     3 TBLite/Diag 0.40E+00    0.0     0.00020519       -16.4147759621 -8.67E-08
     4 TBLite/Diag 0.40E+00    0.0     0.00007353       -16.4147759697 -7.62E-09
     5 TBLite/Diag 0.40E+00    0.0     0.00003565       -16.4147759711 -1.35E-09
     6 TBLite/Diag 0.40E+00    0.0     0.00001240       -16.4147759712 -1.45E-10
     7 TBLite/Diag 0.40E+00    0.0     0.00000461       -16.4147759712 -1.66E-11
     8 TBLite/Diag 0.40E+00    0.0     0.00000107       -16.4147759712 -1.14E-12
     9 TBLite/Diag 0.40E+00    0.0     0.00000015       -16.4147759712 -2.49E-14
    10 TBLite/Diag 0.40E+00    0.0     0.00000008       -16.4147759712 -1.07E-14
    11 TBLite/Diag 0.40E+00    0.0     0.00000001       -16.4147759712 -7.11E-15
    12 TBLite/Diag 0.40E+00    0.0     6.5370E-09       -16.4147759712  7.11E-15
    13 TBLite/Diag 0.40E+00    0.0     2.5982E-10       -16.4147759712  1.78E-14

  *** SCF run converged in    13 steps ***


  Core Hamiltonian energy:                                    -16.69882871900796
  Repulsive potential energy:                                   0.25434197559538
  Electrostatic energy:                                         0.03622338649950
  Self-consistent dispersion energy:                           -0.00651504216725
  Non-self consistent dispersion energy:                        0.00000242784846
  Correction for halogen bonding:                               0.00000000000000
  Electronic entropic energy:                                  -0.00000000000000
  Fermi energy:                                                -0.31529366480479

  Total energy:                                               -16.41477597123187
  Total energy (extrapolated to T->0):                        -16.41477597123187

 ENERGY| Total FORCE_EVAL ( QS ) energy [hartree]            -16.414775971231872

 OPT| **************************************************************************
 OPT| Step number                                                              2
 OPT| Optimization method                                                   BFGS
 OPT| Total energy [hartree]                                      -16.4147759712
 OPT| Effective energy change [hartree]                            -0.0001310576
 OPT| Predicted energy change [hartree]                            -0.0001285679
 OPT| Scaling factor                                                0.0000000000
 OPT| Step size                                                     0.0156873804
 OPT| Trust radius                                                  0.4724315332
 OPT| Decrease in energy                                                     YES
 OPT| Used time [s]                                                        0.013
 OPT|
 OPT| Maximum step size                                             0.0156873804
 OPT| Convergence limit for maximum step size                       0.0030000000
 OPT| Maximum step size is converged                                          NO
 OPT|
 OPT| RMS step size                                                 0.0074966952
 OPT| Convergence limit for RMS step size                           0.0015000000
 OPT| RMS step size is converged                                              NO
 OPT|
 OPT| Maximum gradient                                              0.0007327872
 OPT| Convergence limit for maximum gradient                        0.0004500000
 OPT| Maximum gradient is converged                                           NO
 OPT|
 OPT| RMS gradient                                                  0.0003290536
 OPT| Convergence limit for RMS gradient                            0.0003000000
 OPT| RMS gradient is converged                                               NO
 OPT| **************************************************************************
 OPT| Estimated peak process memory after this step [MiB]                    163

 --------------------------
 OPTIMIZATION STEP:      3
 --------------------------

 Extrapolation method: ASPC

 Number of electrons:                                                         30
 Number of occupied orbitals:                                                 15
 Number of molecular orbitals:                                                28

 Number of orbital functions:                                                 28
 Number of independent orbital functions:                                     28


 SCF WAVEFUNCTION OPTIMIZATION

  Step     Update method      Time    Convergence         Total energy    Change
  ------------------------------------------------------------------------------
     1 TBLite/Diag 0.40E+00    0.0     0.00191531       -16.4147829565 -1.64E+01
     2 TBLite/Diag 0.40E+00    0.0     0.00021850       -16.4147830134 -5.69E-08
     3 TBLite/Diag 0.40E+00    0.0     0.00011227       -16.4147830131  3.22E-10
     4 TBLite/Diag 0.40E+00    0.0     0.00006349       -16.4147830213 -8.22E-09
     5 TBLite/Diag 0.40E+00    0.0     0.00000815       -16.4147830214 -7.33E-11
     6 TBLite/Diag 0.40E+00    0.0     0.00000371       -16.4147830214 -1.24E-12
     7 TBLite/Diag 0.40E+00    0.0     0.00000199       -16.4147830214 -4.54E-12
     8 TBLite/Diag 0.40E+00    0.0     0.00000006       -16.4147830214  0.00E+00
     9 TBLite/Diag 0.40E+00    0.0     0.00000006       -16.4147830214  0.00E+00
    10 TBLite/Diag 0.40E+00    0.0     0.00000002       -16.4147830214 -3.55E-15
    11 TBLite/Diag 0.40E+00    0.0     1.0979E-09       -16.4147830214  3.55E-15
    12 TBLite/Diag 0.40E+00    0.0     4.6674E-10       -16.4147830214  0.00E+00

  *** SCF run converged in    12 steps ***


  Core Hamiltonian energy:                                    -16.69860896227410
  Repulsive potential energy:                                   0.25409059843549
  Electrostatic energy:                                         0.03624691055755
  Self-consistent dispersion energy:                           -0.00651400019599
  Non-self consistent dispersion energy:                        0.00000243208313
  Correction for halogen bonding:                               0.00000000000000
  Electronic entropic energy:                                  -0.00000000000000
  Fermi energy:                                                -0.31505183521447

  Total energy:                                               -16.41478302139392
  Total energy (extrapolated to T->0):                        -16.41478302139392

 ENERGY| Total FORCE_EVAL ( QS ) energy [hartree]            -16.414783021393923

 OPT| **************************************************************************
 OPT| Step number                                                              3
 OPT| Optimization method                                                   BFGS
 OPT| Total energy [hartree]                                      -16.4147830214
 OPT| Effective energy change [hartree]                            -0.0000070502
 OPT| Predicted energy change [hartree]                            -0.0000056853
 OPT| Scaling factor                                                0.0000000000
 OPT| Step size                                                     0.0043791561
 OPT| Trust radius                                                  0.4724315332
 OPT| Decrease in energy                                                     YES
 OPT| Used time [s]                                                        0.013
 OPT|
 OPT| Maximum step size                                             0.0043791561
 OPT| Convergence limit for maximum step size                       0.0030000000
 OPT| Maximum step size is converged                                          NO
 OPT|
 OPT| RMS step size                                                 0.0019257942
 OPT| Convergence limit for RMS step size                           0.0015000000
 OPT| RMS step size is converged                                              NO
 OPT|
 OPT| Maximum gradient                                              0.0003613347
 OPT| Convergence limit for maximum gradient                        0.0004500000
 OPT| Maximum gradient is converged                                          YES
 OPT|
 OPT| RMS gradient                                                  0.0001427094
 OPT| Convergence limit for RMS gradient                            0.0003000000
 OPT| RMS gradient is converged                                              YES
 OPT| **************************************************************************
 OPT| Estimated peak process memory after this step [MiB]                    163

 --------------------------
 OPTIMIZATION STEP:      4
 --------------------------

 Extrapolation method: ASPC

 Number of electrons:                                                         30
 Number of occupied orbitals:                                                 15
 Number of molecular orbitals:                                                28

 Number of orbital functions:                                                 28
 Number of independent orbital functions:                                     28


 SCF WAVEFUNCTION OPTIMIZATION

  Step     Update method      Time    Convergence         Total energy    Change
  ------------------------------------------------------------------------------
     1 TBLite/Diag 0.40E+00    0.0     0.00068258       -16.4147849416 -1.64E+01
     2 TBLite/Diag 0.40E+00    0.0     0.00005481       -16.4147849498 -8.16E-09
     3 TBLite/Diag 0.40E+00    0.0     0.00004194       -16.4147849507 -9.41E-10
     4 TBLite/Diag 0.40E+00    0.0     0.00003035       -16.4147849522 -1.45E-09
     5 TBLite/Diag 0.40E+00    0.0     0.00000307       -16.4147849522 -9.99E-12
     6 TBLite/Diag 0.40E+00    0.0     0.00000273       -16.4147849522 -9.24E-14
     7 TBLite/Diag 0.40E+00    0.0     0.00000149       -16.4147849522 -2.47E-12
     8 TBLite/Diag 0.40E+00    0.0     0.00000005       -16.4147849522  1.07E-14
     9 TBLite/Diag 0.40E+00    0.0     0.00000006       -16.4147849522 -1.07E-14
    10 TBLite/Diag 0.40E+00    0.0     0.00000002       -16.4147849522  2.13E-14
    11 TBLite/Diag 0.40E+00    0.0     7.3807E-10       -16.4147849522 -1.07E-14

  *** SCF run converged in    11 steps ***


  Core Hamiltonian energy:                                    -16.69821241916460
  Repulsive potential energy:                                   0.25369983653294
  Electrostatic energy:                                         0.03623849332217
  Self-consistent dispersion energy:                           -0.00651330089299
  Non-self consistent dispersion energy:                        0.00000243802657
  Correction for halogen bonding:                               0.00000000000000
  Electronic entropic energy:                                  -0.00000000000000
  Fermi energy:                                                -0.31502818445899

  Total energy:                                               -16.41478495217590
  Total energy (extrapolated to T->0):                        -16.41478495217590

 ENERGY| Total FORCE_EVAL ( QS ) energy [hartree]            -16.414784952175903

 OPT| **************************************************************************
 OPT| Step number                                                              4
 OPT| Optimization method                                                   BFGS
 OPT| Total energy [hartree]                                      -16.4147849522
 OPT| Effective energy change [hartree]                            -0.0000019308
 OPT| Predicted energy change [hartree]                            -0.0000020016
 OPT| Scaling factor                                                0.0000000000
 OPT| Step size                                                     0.0035825975
 OPT| Trust radius                                                  0.4724315332
 OPT| Decrease in energy                                                     YES
 OPT| Used time [s]                                                        0.012
 OPT|
 OPT| Maximum step size                                             0.0035825975
 OPT| Convergence limit for maximum step size                       0.0030000000
 OPT| Maximum step size is converged                                          NO
 OPT|
 OPT| RMS step size                                                 0.0014288567
 OPT| Convergence limit for RMS step size                           0.0015000000
 OPT| RMS step size is converged                                             YES
 OPT|
 OPT| Maximum gradient                                              0.0000676769
 OPT| Convergence limit for maximum gradient                        0.0004500000
 OPT| Maximum gradient is converged                                          YES
 OPT|
 OPT| RMS gradient                                                  0.0000340803
 OPT| Convergence limit for RMS gradient                            0.0003000000
 OPT| RMS gradient is converged                                              YES
 OPT| **************************************************************************
 OPT| Estimated peak process memory after this step [MiB]                    163

 --------------------------
 OPTIMIZATION STEP:      5
 --------------------------

 Extrapolation method: ASPC

 Number of electrons:                                                         30
 Number of occupied orbitals:                                                 15
 Number of molecular orbitals:                                                28

 Number of orbital functions:                                                 28
 Number of independent orbital functions:                                     28


 SCF WAVEFUNCTION OPTIMIZATION

  Step     Update method      Time    Convergence         Total energy    Change
  ------------------------------------------------------------------------------
     1 TBLite/Diag 0.40E+00    0.0     0.00014050       -16.4147849665 -1.64E+01
     2 TBLite/Diag 0.40E+00    0.0     0.00001198       -16.4147849667 -1.96E-10
     3 TBLite/Diag 0.40E+00    0.0     0.00000712       -16.4147849667  3.46E-12
     4 TBLite/Diag 0.40E+00    0.0     0.00000444       -16.4147849667 -3.71E-11
     5 TBLite/Diag 0.40E+00    0.0     0.00000095       -16.4147849667 -1.56E-13
     6 TBLite/Diag 0.40E+00    0.0     0.00000061       -16.4147849667 -3.27E-13
     7 TBLite/Diag 0.40E+00    0.0     0.00000015       -16.4147849667 -2.49E-14
     8 TBLite/Diag 0.40E+00    0.0     0.00000001       -16.4147849667  7.11E-15
     9 TBLite/Diag 0.40E+00    0.0     9.2789E-09       -16.4147849667  0.00E+00
    10 TBLite/Diag 0.40E+00    0.0     1.7812E-09       -16.4147849667 -3.55E-15
    11 TBLite/Diag 0.40E+00    0.0     3.4026E-10       -16.4147849667 -3.55E-15

  *** SCF run converged in    11 steps ***


  Core Hamiltonian energy:                                    -16.69821044352122
  Repulsive potential energy:                                   0.25369547688649
  Electrostatic energy:                                         0.03624083250313
  Self-consistent dispersion energy:                           -0.00651327054676
  Non-self consistent dispersion energy:                        0.00000243795830
  Correction for halogen bonding:                               0.00000000000000
  Electronic entropic energy:                                  -0.00000000000000
  Fermi energy:                                                -0.31504227508206

  Total energy:                                               -16.41478496672006
  Total energy (extrapolated to T->0):                        -16.41478496672006

 ENERGY| Total FORCE_EVAL ( QS ) energy [hartree]            -16.414784966720060

 OPT| **************************************************************************
 OPT| Step number                                                              5
 OPT| Optimization method                                                   BFGS
 OPT| Total energy [hartree]                                      -16.4147849667
 OPT| Effective energy change [hartree]                            -0.0000000145
 OPT| Predicted energy change [hartree]                            -0.0000000191
 OPT| Scaling factor                                                0.0000000000
 OPT| Step size                                                     0.0001336812
 OPT| Trust radius                                                  0.4724315332
 OPT| Decrease in energy                                                     YES
 OPT| Used time [s]                                                        0.013
 OPT|
 OPT| Maximum step size                                             0.0001336812
 OPT| Convergence limit for maximum step size                       0.0030000000
 OPT| Maximum step size is converged                                         YES
 OPT|
 OPT| RMS step size                                                 0.0000767829
 OPT| Convergence limit for RMS step size                           0.0015000000
 OPT| RMS step size is converged                                             YES
 OPT|
 OPT| Maximum gradient                                              0.0000277936
 OPT| Convergence limit for maximum gradient                        0.0004500000
 OPT| Maximum gradient is converged                                          YES
 OPT|
 OPT| RMS gradient                                                  0.0000151358
 OPT| Convergence limit for RMS gradient                            0.0003000000
 OPT| RMS gradient is converged                                              YES
 OPT| **************************************************************************
 OPT| Estimated peak process memory after this step [MiB]                    163

 *******************************************************************************
 ***                    GEOMETRY OPTIMIZATION COMPLETED                      ***
 *******************************************************************************

 write_final_structure: Optimization converged, writing XYZ file gladly:
  pyrazine_GFN2_mol_geoopt-FINAL-1_5.xyz

 write_final_structure: Optimization converged, writing CIF file gladly:
  pyrazine_GFN2_mol_geoopt-FINAL-1_5.cif

 write_final_structure: Done!

                    Reevaluating energy at the minimum

 Extrapolation method: ASPC

 Number of electrons:                                                         30
 Number of occupied orbitals:                                                 15
 Number of molecular orbitals:                                                28

 Number of orbital functions:                                                 28
 Number of independent orbital functions:                                     28


 SCF WAVEFUNCTION OPTIMIZATION

  Step     Update method      Time    Convergence         Total energy    Change
  ------------------------------------------------------------------------------
     1 TBLite/Diag 0.40E+00    0.0     2.6112E-10       -16.4147849667 -1.64E+01

  *** SCF run converged in     1 steps ***


  Core Hamiltonian energy:                                    -16.69821044351856
  Repulsive potential energy:                                   0.25369547688649
  Electrostatic energy:                                         0.03624083250044
  Self-consistent dispersion energy:                           -0.00651327054672
  Non-self consistent dispersion energy:                        0.00000243795830
  Correction for halogen bonding:                               0.00000000000000
  Electronic entropic energy:                                  -0.00000000000000
  Fermi energy:                                                -0.31504227508389

  Total energy:                                               -16.41478496672006
  Total energy (extrapolated to T->0):                        -16.41478496672006

 ENERGY| Total FORCE_EVAL ( QS ) energy [hartree]            -16.414784966720056

 -------------------------------------------------------------------------------
 -                                                                             -
 -                                DBCSR STATISTICS                             -
 -                                                                             -
 -------------------------------------------------------------------------------
 COUNTER                                    TOTAL       BLAS       SMM       ACC
 flops     1 x    28 x     1                17920       0.0%    100.0%      0.0%     
 flops     1 x     1 x    28                49840       0.0%    100.0%      0.0%     
 flops     1 x    28 x     4               107520       0.0%    100.0%      0.0%     
 flops     4 x    28 x     1               107520       0.0%    100.0%      0.0%     
 flops     1 x     4 x    28               239232       0.0%    100.0%      0.0%     
 flops     4 x     1 x    28               239232       0.0%    100.0%      0.0%     
 flops     4 x    28 x     4               645120       0.0%    100.0%      0.0%     
 flops     4 x     4 x    28              1674624       0.0%    100.0%      0.0%     
 flops inhomo. stacks                           0       0.0%      0.0%      0.0%
 flops total                         3.081008E+06       0.0%    100.0%      0.0%
 flops max/rank                      3.081008E+06       0.0%    100.0%      0.0%
 matmuls inhomo. stacks                         0       0.0%      0.0%      0.0%
 matmuls total                               6895       0.0%    100.0%      0.0%
 number of processed stacks                   436       0.0%    100.0%      0.0%
 average stack size                                     0.0      15.8       0.0
 marketing flops                     2.971360E+06
 -------------------------------------------------------------------------------
 # multiplications                            109
 max memory usage/rank              13.670183E+09
 # max total images/rank                        1
 # max 3D layers                                1
 # MPI messages exchanged                       0
 -------------------------------------------------------------------------------
 -                                                                             -
 -                      DBCSR MESSAGE PASSING PERFORMANCE                      -
 -                                                                             -
 -------------------------------------------------------------------------------
 ROUTINE             CALLS      AVE VOLUME [Bytes]
 MP_Bcast                9                     12.
 MP_Allreduce          540                      9.
 MP_Alltoall          3692                   4348.
 MP_ISend              436                    365.
 MP_IRecv              436                    365.
 -------------------------------------------------------------------------------

 -------------------------------------------------------------------------------
 -                                                                             -
 -                          OFFLOAD MEMPOOL STATISTICS                         -
 -                                                                             -
 -------------------------------------------------------------------------------
 Memory consumption                Number of allocations  Used [MiB]  Size [MiB]
 Device                                                1           0           0
 Host                                                  1           0           0
 -------------------------------------------------------------------------------

 MEMORY| Estimated peak process memory [MiB]                                 163

 -------------------------------------------------------------------------------
 -                                                                             -
 -                         MESSAGE PASSING PERFORMANCE                         -
 -                                                                             -
 -------------------------------------------------------------------------------

 ROUTINE             CALLS      AVE VOLUME [Bytes]
 MP_Group                1
 MP_Bcast              171                    119.
 MP_Allreduce         2700                     77.
 MP_Sync                90
 MP_comm_split          89
 -------------------------------------------------------------------------------


 -------------------------------------------------------------------------------
 -                                                                             -
 -                           R E F E R E N C E S                               -
 -                                                                             -
 -------------------------------------------------------------------------------
 
 CP2K version 2026.1 (Development Version), the CP2K developers group (2026).
 CP2K is freely available from https://www.cp2k.org/ .
 
 M. Iannuzzi, J. Wilhelm, F. Stein, A. Bussy, H. Elgabarty, D. Golze, A. Hehn, 
 M. Graml, S. Marek, B. Sertcan Gökmen, C. Schran, H. Forbert, R. Z. 
 Khaliullin, A. Kozhevnikov, M. Taillefumier, R. Meli, V. V. Rybkin, M. Brehm, 
 R. Schade, O. Schütt, J. V. Pototschnig, H. Mirhosseini, A. Knüpfer, D. Marx, 
 M. Krack, J. Hutter, T. D. Kühne.
 J. Phys. Chem. B 130, 1237-1310 (2026).
 The CP2K Program Package Made Simple.
 https://doi.org/10.1021/acs.jpcb.5c05851

 A. Katbashev, M. Stahn, T. Rose, V. Alizadeh, M. Friede, C. Plett, P. 
 Steinbach, S. Ehlert.
 J. Phys. Chem. A 129, 2667-2682 (2025).
 Overview on Building Blocks and Applications of Efficient and Robust Extended 
 Tight Binding.
 https://doi.org/10.1021/acs.jpca.4c08263

 T. D. Kühne, M. Iannuzzi, M. Del Ben, V. V. Rybkin, P. Seewald, F. Stein, T. 
 Laino, R. Z. Khaliullin, O. Schütt, F. Schiffmann, D. Golze, J. Wilhelm, S. 
 Chulkov, M. H. Bani-Hashemian, V. Weber, U. Borstnik, M. Taillefumier, A. S. 
 Jakobovits, A. Lazzaro, H. Pabst, T. Müller, R. Schade, M. Guidon, S. 
 Andermatt, N. Holmberg, G. K. Schenter, A. Hehn, A. Bussy, F. Belleflamme, G. 
 Tabacchi, A. Glöß, M. Lass, I. Bethune, C. J. Mundy, C. Plessl, M. Watkins, 
 J. VandeVondele, M. Krack, J. Hutter.
 J. Chem. Phys. 152, 194103 (2020).
 CP2K: An electronic structure and molecular dynamics software package - 
 Quickstep: Efficient and accurate electronic structure calculations.
 https://doi.org/10.1063/5.0007045

 P. Pracht, E. Caldeweyher, S. Ehlert, S. Grimme.
 ChemRxiv, (2019).
 A Robust Non-Self-Consistent Tight-Binding Quantum Chemistry Method for large 
 Molecules.
 https://doi.org/10.26434/chemrxiv.8326202.v1

 S. Grimme, C. Bannwarth, P. Shushkov.
 J. Chem. Theory Comput. 13, 1989 (2017).
 A Robust and Accurate Tight-Binding Quantum Chemical Method for Structures, 
 Vibrational Frequencies, and Noncovalent Interactions of Large Molecular 
 Systems Parametrized for All spd-Block Elements (Z = 1-86).
 https://doi.org/10.1021/acs.jctc.7b00118

 O. Schuett, P. Messmer, J. Hutter, J. VandeVondele.
 Electronic Structure Calculations on Graphics Processing Units, 173-190 (2016).
 GPU-Accelerated Sparse Matrix-Matrix Multiplication for Linear Scaling Density 
 Functional Theory.
 https://doi.org/10.1002/9781118670712.ch8

 A. Heinecke, G. Henry, M. Hutchinson, H. Pabst.
 Proceedings of Intl. Supercomputing Conference, 981-991 (2016).
 LIBXSMM: Accelerating Small Matrix Multiplications by Runtime Code Generation.
 https://doi.org/10.1109/SC.2016.83

 U. Borstnik, J. VandeVondele, V. Weber, J. Hutter.
 Parallel Comput. 40, 47-58 (2014).
 Sparse matrix multiplication: The distributed block-compressed sparse row 
 library.
 https://doi.org/10.1016/j.parco.2014.03.012

 T. D. Kühne, M. Krack, F. R. Mohamed, M. Parrinello.
 Phys. Rev. Lett. 98, 066401 (2007).
 Efficient and accurate Car-Parrinello-like approach to Born-Oppenheimer 
 molecular dynamics.
 https://doi.org/10.1103/PhysRevLett.98.066401

 M. Frigo, S. G. Johnson.
 Proc. IEEE 93, 216-231 (2005).
 The design and implementation of FFTW3.
 https://doi.org/10.1109/JPROC.2004.840301

 J. Kolafa.
 J. Comput. Chem. 25, 335-342 (2004).
 Time-reversible always stable predictor-corrector method for molecular dynamics 
 of polarizable molecules.
 https://doi.org/10.1002/jcc.10385

 N. D. Mermin.
 Phys. Rev. 137, A1441-A1443 (1965).
 Thermal Properties of the Inhomogeneous Electron Gas.
 https://doi.org/10.1103/PhysRev.137.A1441


 -------------------------------------------------------------------------------
 -                                                                             -
 -                                T I M I N G                                  -
 -                                                                             -
 -------------------------------------------------------------------------------
 SUBROUTINE                       CALLS  ASD         SELF TIME        TOTAL TIME
                                MAXIMUM       AVERAGE  MAXIMUM  AVERAGE  MAXIMUM
 CP2K                                 1  1.0    0.002    0.002    0.090    0.090
 cp_geo_opt                           1  2.0    0.000    0.000    0.085    0.085
 geoopt_bfgs                          1  3.0    0.001    0.001    0.085    0.085
 cp_eval_at                           7  4.0    0.000    0.000    0.081    0.081
 qs_forces                            6  5.0    0.000    0.000    0.078    0.078
 qs_energies                          7  5.9    0.000    0.000    0.073    0.073
 scf_env_do_scf                       7  6.9    0.000    0.000    0.059    0.059
 scf_env_do_scf_inner_loop           77  8.0    0.005    0.005    0.058    0.058
 qs_scf_new_mos                      77  9.0    0.000    0.000    0.040    0.040
 cp_dbcsr_plus_fm_fm_t               89 10.8    0.000    0.000    0.022    0.022
 calculate_dm_sparse                 83 10.0    0.000    0.000    0.021    0.021
 dbcsr_multiply_generic             109 11.9    0.001    0.001    0.019    0.019
 rebuild_ks_matrix                   83  9.8    0.000    0.000    0.012    0.012
 build_tblite_ks_matrix              83 10.8    0.011    0.011    0.012    0.012
 copy_dbcsr_to_fm                   174 10.5    0.000    0.000    0.012    0.012
 make_m2s                           218 12.9    0.001    0.001    0.011    0.011
 dbcsr_complete_redistribute        372 12.2    0.005    0.005    0.010    0.010
 qs_ks_update_qs_env                 77  9.0    0.000    0.000    0.010    0.010
 build_tblite_matrices               13  7.0    0.003    0.003    0.008    0.008
 init_scf_run                         7  6.9    0.000    0.000    0.008    0.008
 eigensolver                         77 10.0    0.001    0.001    0.008    0.008
 cp_fm_syevd                         89 10.6    0.000    0.000    0.007    0.007
 scf_env_initial_rho_setup            7  7.9    0.000    0.000    0.007    0.007
 wfi_extrapolate                      7  8.9    0.000    0.000    0.007    0.007
 qs_diis_b_step                      70 10.0    0.000    0.000    0.007    0.007
 copy_fm_to_dbcsr                   198 11.8    0.000    0.000    0.005    0.005
 cp_fm_syevd_base                    89 11.6    0.005    0.005    0.005    0.005
 qs_energies_init_hamiltonians        7  6.9    0.000    0.000    0.005    0.005
 make_images                        218 13.9    0.001    0.001    0.005    0.005
 cp_dbcsr_sm_fm_multiply             20 10.3    0.000    0.000    0.004    0.004
 tb_get_multipole                    13  8.0    0.003    0.003    0.004    0.004
 dbcsr_finalize                    2065 12.1    0.001    0.001    0.004    0.004
 multiply_cannon                    109 12.9    0.002    0.002    0.004    0.004
 qs_ks_update_qs_env_forces           6  6.0    0.000    0.000    0.003    0.003
 dbcsr_create_new                  2866 13.0    0.002    0.002    0.003    0.003
 dbcsr_desymmetrize_deep            174 11.5    0.001    0.001    0.003    0.003
 dbcsr_crop_matrix                  178 13.8    0.000    0.000    0.003    0.003
 qs_init_subsys                       1  2.0    0.000    0.000    0.003    0.003
 cp_dbcsr_sm_fm_multiply_core        20 11.3    0.000    0.000    0.002    0.002
 dbcsr_copy_submatrix               178 14.8    0.001    0.001    0.002    0.002
 reorthogonalize_vectors              6  9.8    0.000    0.000    0.002    0.002
 make_basis_lowdin                    6 10.8    0.000    0.000    0.002    0.002
 dbcsr_iterator_start              4816 12.6    0.002    0.002    0.002    0.002
 parallel_gemm_fm_gemm              186 10.6    0.000    0.000    0.002    0.002
 dbcsr_merge_all                    639 14.9    0.001    0.001    0.002    0.002
 cp_fm_gemm                         186 11.6    0.002    0.002    0.002    0.002
 cp_fm_redistribute_start            89 11.6    0.001    0.001    0.002    0.002
 -------------------------------------------------------------------------------

 The number of warnings for this run is : 0
 
 -------------------------------------------------------------------------------
  **** **** ******  **  PROGRAM ENDED AT                 2026-05-23 22:46:20.986
 ***** ** ***  *** **   PROGRAM RAN ON                                spark-c86c
 **    ****   ******    PROGRAM RAN BY                                  kuehne88
 ***** **    ** ** **   PROGRAM PROCESS ID                               2229221
  **** **  *******  **  PROGRAM STOPPED IN /home/kuehne88/periodic-gfn2-benchmar
                                           ks/X23b/runs/molecule_geoopt/GFN2/pyr
                                           azine_GFN2_mol_geoopt
