 DBCSR| CPU Multiplication driver                                           XSMM (U)
 DBCSR| Multrec recursion limit                                              512 (U)
 DBCSR| Multiplication stack size                                           1000 (D)
 DBCSR| Maximum elements for images                                    UNLIMITED (U)
 DBCSR| Multiplicative factor virtual images                                   1 (U)
 DBCSR| Use multiplication densification                                       T (D)
 DBCSR| Multiplication size stacks                                             3 (U)
 DBCSR| Use memory pool for CPU allocation                                     F (U)
 DBCSR| Number of 3D layers                                               SINGLE (U)
 DBCSR| Use MPI memory allocation                                              F (U)
 DBCSR| Use RMA algorithm                                                      F (U)
 DBCSR| Use Communication thread                                               T (U)
 DBCSR| Communication thread load                                             87 (D)
 DBCSR| MPI: My process id                                                     0
 DBCSR| MPI: Number of processes                                               1
 DBCSR| OMP: Current number of threads                                         1
 DBCSR| OMP: Max number of threads                                             1
 DBCSR| Split modifier for TAS multiplication algorithm                  1.0E+00 (U)


  **** **** ******  **  PROGRAM STARTED AT               2026-05-23 22:46:19.948
 ***** ** ***  *** **   PROGRAM STARTED ON                            spark-c86c
 **    ****   ******    PROGRAM STARTED BY                              kuehne88
 ***** **    ** ** **   PROGRAM PROCESS ID                               2227120
  **** **  *******  **  PROGRAM STARTED IN /home/kuehne88/periodic-gfn2-benchmar
                                           ks/X23b/runs/molecule_geoopt/GFN2/eth
                                           ylcarbamate_GFN2_mol_geoopt

 CP2K| version string:                 CP2K version 2026.1 (Development Version)
 CP2K| source code revision number:                                   0622d442e4
 CP2K| cp2kflags: omp fftw3 libxc parallel scalapack mpi_f08 xsmm spglib libdftd
 CP2K|            4 dftd4_v3 mctc-lib tblite
 CP2K| is freely available from                            https://www.cp2k.org/
 CP2K| Program compiled at                                   2026-05-23 22:05:08
 CP2K| Program compiled on                                            spark-c86c
 CP2K| Program compiled for                                              aarch64
 CP2K| Data directory path    /home/kuehne88/cp2k-master-tblite-20260523/install
 CP2K| Input file name                        ethylcarbamate_GFN2_mol_geoopt.inp

 GLOBAL| Force Environment number                                              1
 GLOBAL| Basis set file name                                           BASIS_SET
 GLOBAL| Potential file name                                           POTENTIAL
 GLOBAL| MM Potential file name                                     MM_POTENTIAL
 GLOBAL| Coordinate file name                                      __STD_INPUT__
 GLOBAL| Method name                                                        CP2K
 GLOBAL| Project name                             ethylcarbamate_GFN2_mol_geoopt
 GLOBAL| Run type                                                        GEO_OPT
 GLOBAL| FFT library                                                       FFTW3
 GLOBAL| Diagonalization library                                       ScaLAPACK
 GLOBAL| Cholesky decomposition library                                ScaLAPACK
 GLOBAL| DGEMM library                                                      BLAS
 GLOBAL| Direct generalized diagonalization requested                          F
 GLOBAL| Orthonormality check for eigenvectors                          DISABLED
 GLOBAL| Matrix multiplication library                                 ScaLAPACK
 GLOBAL| All-to-all communication in single precision                          F
 GLOBAL| FFTs using library dependent lengths                                  F
 GLOBAL| Grid backend                                                       AUTO
 GLOBAL| Global print level                                                  LOW
 GLOBAL| MPI I/O enabled                                                       T
 GLOBAL| Total number of message passing processes                             1
 GLOBAL| Number of distributed systems (nodes)                                 1
 GLOBAL| Number of threads for this process                                    1
 GLOBAL| This output is from process                                           0
 GLOBAL| OpenMP stack size per thread (OMP_STACKSIZE)                    default
 GLOBAL| CPU model name                                                  UNKNOWN
 GLOBAL| CPUID                                                              2200
 GLOBAL| Compiled for CPUID                                                 2000

 *** HINT in environment.F:970 :: The compiler target flags (arm_arch64)   ***
 *** used to build this binary cannot exploit all extensions of this CPU   ***
 *** model (arm_sve256). Consider compiler target flags as part of FCFLAGS ***
 *** and CFLAGS (ARCH file).                                               ***


 MEMORY| system memory details [Kb]
 MEMORY|                        rank 0           min           max       average
 MEMORY| MemTotal            125508532     125508532     125508532     125508532
 MEMORY| MemFree             106030204     106030204     106030204     106030204
 MEMORY| Buffers                866120        866120        866120        866120
 MEMORY| Cached               13217076      13217076      13217076      13217076
 MEMORY| Slab                  1564676       1564676       1564676       1564676
 MEMORY| SReclaimable           888664        888664        888664        888664
 MEMORY| MemLikelyFree       121002064     121002064     121002064     121002064


 GENERATE|  Preliminary Number of Bonds generated:                             0
 GENERATE|  Achieved consistency in connectivity generation.


                  #####   #####        #     #   #     #       #          
                 #     # #     #      #    ##### #     #   # #####  ####  
                 #     # #           #       #   ###   #       #   #    # 
                 #     #  #####     #        #   #  #  #   #   #   ###### 
                 #   # #       #   #         #   #   # #   #   #   #      
                 #    #  #     #  #          #   #  #  # # #   #    #   # 
                  #### #  #####  #           #   ###   ##  #   #     ###  

                                   GFN2-xTB  
                                 Version 0.0                       
                            Johann V. Pototschnig                  



 TOTAL NUMBERS AND MAXIMUM NUMBERS

  Total number of            - Atomic kinds:                                   4
                             - Atoms:                                         13
                             - Shell sets:                                    19
                             - Shells:                                        19
                             - Primitive Cartesian functions:                 69
                             - Cartesian basis functions:                     31
                             - Spherical basis functions:                     31

  Maximum angular momentum of the orbital basis functions:                     1


 SCF PARAMETERS         Density guess:                                     MOPAC
                        --------------------------------------------------------
                        max_scf:                                             300
                        max_scf_history:                                       0
                        max_diis:                                              4
                        --------------------------------------------------------
                        eps_scf:                                        1.00E-09
                        eps_scf_history:                                0.00E+00
                        eps_diis:                                       1.00E-01
                        eps_eigval:                                     1.00E-05
                        --------------------------------------------------------
                        level_shift [a.u.]:                             0.000000
                        added MOs                                        13    0
                        --------------------------------------------------------
                        Mixing method:                           DIRECT_P_MIXING
                        --------------------------------------------------------
                        Smear method:                                FERMI_DIRAC
                        Electronic temperature [K]:                        300.0
                        Electronic temperature [a.u.]:                  9.50E-04
                        Accuracy threshold:                             1.00E-06
                        --------------------------------------------------------
                        No outer SCF

 BFGS| Use rational function optimization for step estimation:                NO
 BFGS| Use model Hessian for initial guess:                                  YES
 BFGS| Restart Hessian:                                                       NO
 BFGS| Trust radius:                                                       0.472

 *******************************************************************************
 ***                     STARTING GEOMETRY OPTIMIZATION                      ***
 ***                                   BFGS                                  ***
 *******************************************************************************

 Extrapolation method: initial_guess

 Number of electrons:                                                         36
 Number of occupied orbitals:                                                 18
 Number of molecular orbitals:                                                31

 Number of orbital functions:                                                 31
 Number of independent orbital functions:                                     31


 SCF WAVEFUNCTION OPTIMIZATION

  Step     Update method      Time    Convergence         Total energy    Change
  ------------------------------------------------------------------------------
     1 TBLite/Diag 0.40E+00    0.0     1.03025231       -20.8405677391 -2.08E+01
     2 TBLite/Diag 0.40E+00    0.0     0.38553141       -21.0551313839 -2.15E-01
     3 TBLite/Diag 0.40E+00    0.0     0.10299936       -21.0643033353 -9.17E-03
     4 TBLite/Diag 0.40E+00    0.0     0.06685772       -21.0672661004 -2.96E-03
     5 TBLite/Diag 0.40E+00    0.0     0.03044197       -21.0678415603 -5.75E-04
     6 TBLite/Diag 0.40E+00    0.0     0.00914604       -21.0679609233 -1.19E-04
     7 TBLite/Diag 0.40E+00    0.0     0.00176605       -21.0679622327 -1.31E-06
     8 TBLite/Diag 0.40E+00    0.0     0.00068420       -21.0679631316 -8.99E-07
     9 TBLite/Diag 0.40E+00    0.0     0.00009775       -21.0679631537 -2.22E-08
    10 TBLite/Diag 0.40E+00    0.0     0.00014374       -21.0679631469  6.85E-09
    11 TBLite/Diag 0.40E+00    0.0     0.00008034       -21.0679631573 -1.04E-08
    12 TBLite/Diag 0.40E+00    0.0     0.00002064       -21.0679631571  1.67E-10
    13 TBLite/Diag 0.40E+00    0.0     0.00001339       -21.0679631574 -2.56E-10
    14 TBLite/Diag 0.40E+00    0.0     0.00000085       -21.0679631574 -3.16E-13
    15 TBLite/Diag 0.40E+00    0.0     0.00000032       -21.0679631574 -9.59E-14
    16 TBLite/Diag 0.40E+00    0.0     0.00000002       -21.0679631574 -2.84E-14
    17 TBLite/Diag 0.40E+00    0.0     0.00000002       -21.0679631574  1.42E-14
    18 TBLite/Diag 0.40E+00    0.0     1.3389E-09       -21.0679631574  3.55E-15
    19 TBLite/Diag 0.40E+00    0.0     7.3490E-10       -21.0679631574  3.55E-15

  *** SCF run converged in    19 steps ***


  Core Hamiltonian energy:                                    -21.33442033373439
  Repulsive potential energy:                                   0.20612312561277
  Electrostatic energy:                                         0.06653467645331
  Self-consistent dispersion energy:                           -0.00620418972814
  Non-self consistent dispersion energy:                        0.00000356404297
  Correction for halogen bonding:                               0.00000000000000
  Electronic entropic energy:                                  -0.00000000000000
  Fermi energy:                                                -0.23050162649787

  Total energy:                                               -21.06796315735349
  Total energy (extrapolated to T->0):                        -21.06796315735349

 ENERGY| Total FORCE_EVAL ( QS ) energy [hartree]            -21.067963157353489

 OPT| **************************************************************************
 OPT| Step number                                                              0
 OPT| Optimization method                                                   BFGS
 OPT| Total energy [hartree]                                      -21.0679631574
 OPT| Used time [s]                                                        0.022
 OPT| **************************************************************************
 OPT| Estimated peak process memory [MiB]                                    163

 --------------------------
 OPTIMIZATION STEP:      1
 --------------------------

 Extrapolation method: ASPC

 Number of electrons:                                                         36
 Number of occupied orbitals:                                                 18
 Number of molecular orbitals:                                                31

 Number of orbital functions:                                                 31
 Number of independent orbital functions:                                     31


 SCF WAVEFUNCTION OPTIMIZATION

  Step     Update method      Time    Convergence         Total energy    Change
  ------------------------------------------------------------------------------
     1 TBLite/Diag 0.40E+00    0.0     0.02031443       -21.0688158303 -2.11E+01
     2 TBLite/Diag 0.40E+00    0.0     0.00554190       -21.0688441176 -2.83E-05
     3 TBLite/Diag 0.40E+00    0.0     0.00277110       -21.0688454699 -1.35E-06
     4 TBLite/Diag 0.40E+00    0.0     0.00122266       -21.0688476516 -2.18E-06
     5 TBLite/Diag 0.40E+00    0.0     0.00010967       -21.0688476674 -1.58E-08
     6 TBLite/Diag 0.40E+00    0.0     0.00004552       -21.0688476719 -4.53E-09
     7 TBLite/Diag 0.40E+00    0.0     0.00001359       -21.0688476723 -3.32E-10
     8 TBLite/Diag 0.40E+00    0.0     0.00000670       -21.0688476724 -9.11E-11
     9 TBLite/Diag 0.40E+00    0.0     0.00000095       -21.0688476724 -2.50E-12
    10 TBLite/Diag 0.40E+00    0.0     0.00000040       -21.0688476724 -5.47E-13
    11 TBLite/Diag 0.40E+00    0.0     0.00000008       -21.0688476724 -4.62E-14
    12 TBLite/Diag 0.40E+00    0.0     0.00000006       -21.0688476724  0.00E+00
    13 TBLite/Diag 0.40E+00    0.0     3.7458E-09       -21.0688476724 -1.07E-14
    14 TBLite/Diag 0.40E+00    0.0     8.1780E-10       -21.0688476724  1.07E-14

  *** SCF run converged in    14 steps ***


  Core Hamiltonian energy:                                    -21.34278940111404
  Repulsive potential energy:                                   0.21457126453823
  Electrostatic energy:                                         0.06558380077837
  Self-consistent dispersion energy:                           -0.00621663175999
  Non-self consistent dispersion energy:                        0.00000329518634
  Correction for halogen bonding:                               0.00000000000000
  Electronic entropic energy:                                  -0.00000000000000
  Fermi energy:                                                -0.22446118107425

  Total energy:                                               -21.06884767237108
  Total energy (extrapolated to T->0):                        -21.06884767237108

 ENERGY| Total FORCE_EVAL ( QS ) energy [hartree]            -21.068847672371085

 OPT| **************************************************************************
 OPT| Step number                                                              1
 OPT| Optimization method                                                   BFGS
 OPT| Total energy [hartree]                                      -21.0688476724
 OPT| Effective energy change [hartree]                            -0.0008845150
 OPT| Predicted energy change [hartree]                            -0.0007528969
 OPT| Scaling factor                                                0.0000000000
 OPT| Step size                                                     0.0229553743
 OPT| Trust radius                                                  0.4724315332
 OPT| Decrease in energy                                                     YES
 OPT| Used time [s]                                                        0.017
 OPT|
 OPT| Maximum step size                                             0.0229553743
 OPT| Convergence limit for maximum step size                       0.0030000000
 OPT| Maximum step size is converged                                          NO
 OPT|
 OPT| RMS step size                                                 0.0100094378
 OPT| Convergence limit for RMS step size                           0.0015000000
 OPT| RMS step size is converged                                              NO
 OPT|
 OPT| Maximum gradient                                              0.0049170628
 OPT| Convergence limit for maximum gradient                        0.0004500000
 OPT| Maximum gradient is converged                                           NO
 OPT|
 OPT| RMS gradient                                                  0.0015690773
 OPT| Convergence limit for RMS gradient                            0.0003000000
 OPT| RMS gradient is converged                                               NO
 OPT| **************************************************************************
 OPT| Estimated peak process memory after this step [MiB]                    163

 --------------------------
 OPTIMIZATION STEP:      2
 --------------------------

 Extrapolation method: ASPC

 Number of electrons:                                                         36
 Number of occupied orbitals:                                                 18
 Number of molecular orbitals:                                                31

 Number of orbital functions:                                                 31
 Number of independent orbital functions:                                     31


 SCF WAVEFUNCTION OPTIMIZATION

  Step     Update method      Time    Convergence         Total energy    Change
  ------------------------------------------------------------------------------
     1 TBLite/Diag 0.40E+00    0.0     0.01695699       -21.0689751883 -2.11E+01
     2 TBLite/Diag 0.40E+00    0.0     0.00229033       -21.0689826085 -7.42E-06
     3 TBLite/Diag 0.40E+00    0.0     0.00121386       -21.0689828464 -2.38E-07
     4 TBLite/Diag 0.40E+00    0.0     0.00058800       -21.0689832969 -4.51E-07
     5 TBLite/Diag 0.40E+00    0.0     0.00009225       -21.0689833062 -9.30E-09
     6 TBLite/Diag 0.40E+00    0.0     0.00003478       -21.0689833074 -1.17E-09
     7 TBLite/Diag 0.40E+00    0.0     0.00000672       -21.0689833075 -7.53E-11
     8 TBLite/Diag 0.40E+00    0.0     0.00000190       -21.0689833075 -9.30E-12
     9 TBLite/Diag 0.40E+00    0.0     0.00000074       -21.0689833075 -8.60E-13
    10 TBLite/Diag 0.40E+00    0.0     0.00000014       -21.0689833075 -3.91E-14
    11 TBLite/Diag 0.40E+00    0.0     0.00000003       -21.0689833075  0.00E+00
    12 TBLite/Diag 0.40E+00    0.0     0.00000001       -21.0689833075  7.11E-15
    13 TBLite/Diag 0.40E+00    0.0     1.0679E-09       -21.0689833075 -1.07E-14
    14 TBLite/Diag 0.40E+00    0.0     1.2883E-10       -21.0689833075  7.11E-15

  *** SCF run converged in    14 steps ***


  Core Hamiltonian energy:                                    -21.34637907303728
  Repulsive potential energy:                                   0.21845541801740
  Electrostatic energy:                                         0.06516795079303
  Self-consistent dispersion energy:                           -0.00623092499231
  Non-self consistent dispersion energy:                        0.00000332173923
  Correction for halogen bonding:                               0.00000000000000
  Electronic entropic energy:                                  -0.00000000000000
  Fermi energy:                                                -0.22214206511895

  Total energy:                                               -21.06898330747993
  Total energy (extrapolated to T->0):                        -21.06898330747993

 ENERGY| Total FORCE_EVAL ( QS ) energy [hartree]            -21.068983307479929

 OPT| **************************************************************************
 OPT| Step number                                                              2
 OPT| Optimization method                                                   BFGS
 OPT| Total energy [hartree]                                      -21.0689833075
 OPT| Effective energy change [hartree]                            -0.0001356351
 OPT| Predicted energy change [hartree]                            -0.0001456740
 OPT| Scaling factor                                                0.0000000000
 OPT| Step size                                                     0.0163982914
 OPT| Trust radius                                                  0.4724315332
 OPT| Decrease in energy                                                     YES
 OPT| Used time [s]                                                        0.017
 OPT|
 OPT| Maximum step size                                             0.0163982914
 OPT| Convergence limit for maximum step size                       0.0030000000
 OPT| Maximum step size is converged                                          NO
 OPT|
 OPT| RMS step size                                                 0.0075057130
 OPT| Convergence limit for RMS step size                           0.0015000000
 OPT| RMS step size is converged                                              NO
 OPT|
 OPT| Maximum gradient                                              0.0026427325
 OPT| Convergence limit for maximum gradient                        0.0004500000
 OPT| Maximum gradient is converged                                           NO
 OPT|
 OPT| RMS gradient                                                  0.0008937734
 OPT| Convergence limit for RMS gradient                            0.0003000000
 OPT| RMS gradient is converged                                               NO
 OPT| **************************************************************************
 OPT| Estimated peak process memory after this step [MiB]                    163

 --------------------------
 OPTIMIZATION STEP:      3
 --------------------------

 Extrapolation method: ASPC

 Number of electrons:                                                         36
 Number of occupied orbitals:                                                 18
 Number of molecular orbitals:                                                31

 Number of orbital functions:                                                 31
 Number of independent orbital functions:                                     31


 SCF WAVEFUNCTION OPTIMIZATION

  Step     Update method      Time    Convergence         Total energy    Change
  ------------------------------------------------------------------------------
     1 TBLite/Diag 0.40E+00    0.0     0.00709377       -21.0690255896 -2.11E+01
     2 TBLite/Diag 0.40E+00    0.0     0.00054735       -21.0690259520 -3.62E-07
     3 TBLite/Diag 0.40E+00    0.0     0.00012226       -21.0690259831 -3.11E-08
     4 TBLite/Diag 0.40E+00    0.0     0.00006638       -21.0690259939 -1.08E-08
     5 TBLite/Diag 0.40E+00    0.0     0.00001760       -21.0690259944 -4.98E-10
     6 TBLite/Diag 0.40E+00    0.0     0.00000722       -21.0690259945 -1.46E-10
     7 TBLite/Diag 0.40E+00    0.0     0.00000313       -21.0690259945 -1.92E-11
     8 TBLite/Diag 0.40E+00    0.0     0.00000139       -21.0690259945 -2.63E-12
     9 TBLite/Diag 0.40E+00    0.0     0.00000063       -21.0690259945 -7.50E-13
    10 TBLite/Diag 0.40E+00    0.0     0.00000010       -21.0690259945 -1.78E-14
    11 TBLite/Diag 0.40E+00    0.0     0.00000002       -21.0690259945 -3.55E-15
    12 TBLite/Diag 0.40E+00    0.0     8.9084E-09       -21.0690259945 -7.11E-15
    13 TBLite/Diag 0.40E+00    0.0     1.7463E-09       -21.0690259945  1.07E-14
    14 TBLite/Diag 0.40E+00    0.0     1.2986E-10       -21.0690259945 -1.07E-14

  *** SCF run converged in    14 steps ***


  Core Hamiltonian energy:                                    -21.34654226279546
  Repulsive potential energy:                                   0.21865733242981
  Electrostatic energy:                                         0.06509097111020
  Self-consistent dispersion energy:                           -0.00623538374583
  Non-self consistent dispersion energy:                        0.00000334845407
  Correction for halogen bonding:                               0.00000000000000
  Electronic entropic energy:                                  -0.00000000000000
  Fermi energy:                                                -0.22195379300473

  Total energy:                                               -21.06902599454721
  Total energy (extrapolated to T->0):                        -21.06902599454721

 ENERGY| Total FORCE_EVAL ( QS ) energy [hartree]            -21.069025994547207

 OPT| **************************************************************************
 OPT| Step number                                                              3
 OPT| Optimization method                                                   BFGS
 OPT| Total energy [hartree]                                      -21.0690259945
 OPT| Effective energy change [hartree]                            -0.0000426871
 OPT| Predicted energy change [hartree]                            -0.0000396727
 OPT| Scaling factor                                                0.0000000000
 OPT| Step size                                                     0.0117680732
 OPT| Trust radius                                                  0.4724315332
 OPT| Decrease in energy                                                     YES
 OPT| Used time [s]                                                        0.018
 OPT|
 OPT| Maximum step size                                             0.0117680732
 OPT| Convergence limit for maximum step size                       0.0030000000
 OPT| Maximum step size is converged                                          NO
 OPT|
 OPT| RMS step size                                                 0.0044133956
 OPT| Convergence limit for RMS step size                           0.0015000000
 OPT| RMS step size is converged                                              NO
 OPT|
 OPT| Maximum gradient                                              0.0020807891
 OPT| Convergence limit for maximum gradient                        0.0004500000
 OPT| Maximum gradient is converged                                           NO
 OPT|
 OPT| RMS gradient                                                  0.0006721451
 OPT| Convergence limit for RMS gradient                            0.0003000000
 OPT| RMS gradient is converged                                               NO
 OPT| **************************************************************************
 OPT| Estimated peak process memory after this step [MiB]                    163

 --------------------------
 OPTIMIZATION STEP:      4
 --------------------------

 Extrapolation method: ASPC

 Number of electrons:                                                         36
 Number of occupied orbitals:                                                 18
 Number of molecular orbitals:                                                31

 Number of orbital functions:                                                 31
 Number of independent orbital functions:                                     31


 SCF WAVEFUNCTION OPTIMIZATION

  Step     Update method      Time    Convergence         Total energy    Change
  ------------------------------------------------------------------------------
     1 TBLite/Diag 0.40E+00    0.0     0.01485606       -21.0690506365 -2.11E+01
     2 TBLite/Diag 0.40E+00    0.0     0.00070267       -21.0690516079 -9.71E-07
     3 TBLite/Diag 0.40E+00    0.0     0.00017238       -21.0690516472 -3.93E-08
     4 TBLite/Diag 0.40E+00    0.0     0.00013633       -21.0690516619 -1.47E-08
     5 TBLite/Diag 0.40E+00    0.0     0.00005029       -21.0690516642 -2.24E-09
     6 TBLite/Diag 0.40E+00    0.0     0.00001421       -21.0690516644 -2.00E-10
     7 TBLite/Diag 0.40E+00    0.0     0.00000325       -21.0690516644 -2.07E-11
     8 TBLite/Diag 0.40E+00    0.0     0.00000103       -21.0690516644 -1.64E-12
     9 TBLite/Diag 0.40E+00    0.0     0.00000039       -21.0690516644 -2.66E-13
    10 TBLite/Diag 0.40E+00    0.0     0.00000015       -21.0690516644 -5.68E-14
    11 TBLite/Diag 0.40E+00    0.0     0.00000001       -21.0690516644  1.07E-14
    12 TBLite/Diag 0.40E+00    0.0     8.0460E-09       -21.0690516644 -7.11E-15
    13 TBLite/Diag 0.40E+00    0.0     2.5080E-09       -21.0690516644  1.07E-14
    14 TBLite/Diag 0.40E+00    0.0     2.0680E-10       -21.0690516644  0.00E+00

  *** SCF run converged in    14 steps ***


  Core Hamiltonian energy:                                    -21.34601905011674
  Repulsive potential energy:                                   0.21810950698624
  Electrostatic energy:                                         0.06509452636119
  Self-consistent dispersion energy:                           -0.00623999045446
  Non-self consistent dispersion energy:                        0.00000334283552
  Correction for halogen bonding:                               0.00000000000000
  Electronic entropic energy:                                  -0.00000000000000
  Fermi energy:                                                -0.22231688617350

  Total energy:                                               -21.06905166438825
  Total energy (extrapolated to T->0):                        -21.06905166438825

 ENERGY| Total FORCE_EVAL ( QS ) energy [hartree]            -21.069051664388251

 OPT| **************************************************************************
 OPT| Step number                                                              4
 OPT| Optimization method                                                   BFGS
 OPT| Total energy [hartree]                                      -21.0690516644
 OPT| Effective energy change [hartree]                            -0.0000256698
 OPT| Predicted energy change [hartree]                            -0.0000208333
 OPT| Scaling factor                                                0.0000000000
 OPT| Step size                                                     0.0100183687
 OPT| Trust radius                                                  0.4724315332
 OPT| Decrease in energy                                                     YES
 OPT| Used time [s]                                                        0.018
 OPT|
 OPT| Maximum step size                                             0.0100183687
 OPT| Convergence limit for maximum step size                       0.0030000000
 OPT| Maximum step size is converged                                          NO
 OPT|
 OPT| RMS step size                                                 0.0038009270
 OPT| Convergence limit for RMS step size                           0.0015000000
 OPT| RMS step size is converged                                              NO
 OPT|
 OPT| Maximum gradient                                              0.0009678534
 OPT| Convergence limit for maximum gradient                        0.0004500000
 OPT| Maximum gradient is converged                                           NO
 OPT|
 OPT| RMS gradient                                                  0.0002696596
 OPT| Convergence limit for RMS gradient                            0.0003000000
 OPT| RMS gradient is converged                                              YES
 OPT| **************************************************************************
 OPT| Estimated peak process memory after this step [MiB]                    163

 --------------------------
 OPTIMIZATION STEP:      5
 --------------------------

 Extrapolation method: ASPC

 Number of electrons:                                                         36
 Number of occupied orbitals:                                                 18
 Number of molecular orbitals:                                                31

 Number of orbital functions:                                                 31
 Number of independent orbital functions:                                     31


 SCF WAVEFUNCTION OPTIMIZATION

  Step     Update method      Time    Convergence         Total energy    Change
  ------------------------------------------------------------------------------
     1 TBLite/Diag 0.40E+00    0.0     0.01115368       -21.0690594019 -2.11E+01
     2 TBLite/Diag 0.40E+00    0.0     0.00061807       -21.0690598956 -4.94E-07
     3 TBLite/Diag 0.40E+00    0.0     0.00013420       -21.0690599164 -2.07E-08
     4 TBLite/Diag 0.40E+00    0.0     0.00006026       -21.0690599211 -4.80E-09
     5 TBLite/Diag 0.40E+00    0.0     0.00002264       -21.0690599215 -3.46E-10
     6 TBLite/Diag 0.40E+00    0.0     0.00001071       -21.0690599216 -1.01E-10
     7 TBLite/Diag 0.40E+00    0.0     0.00000197       -21.0690599216 -6.34E-12
     8 TBLite/Diag 0.40E+00    0.0     0.00000050       -21.0690599216 -5.58E-13
     9 TBLite/Diag 0.40E+00    0.0     0.00000016       -21.0690599216 -8.17E-14
    10 TBLite/Diag 0.40E+00    0.0     0.00000008       -21.0690599216 -2.84E-14
    11 TBLite/Diag 0.40E+00    0.0     7.9266E-09       -21.0690599216 -1.07E-14
    12 TBLite/Diag 0.40E+00    0.0     5.2290E-09       -21.0690599216  1.07E-14
    13 TBLite/Diag 0.40E+00    0.0     1.0817E-09       -21.0690599216  0.00E+00
    14 TBLite/Diag 0.40E+00    0.0     1.8018E-10       -21.0690599216 -1.42E-14

  *** SCF run converged in    14 steps ***


  Core Hamiltonian energy:                                    -21.34590272797658
  Repulsive potential energy:                                   0.21796511307548
  Electrostatic energy:                                         0.06511806492083
  Self-consistent dispersion energy:                           -0.00624370396654
  Non-self consistent dispersion energy:                        0.00000333234508
  Correction for halogen bonding:                               0.00000000000000
  Electronic entropic energy:                                  -0.00000000000000
  Fermi energy:                                                -0.22233796626864

  Total energy:                                               -21.06905992160174
  Total energy (extrapolated to T->0):                        -21.06905992160174

 ENERGY| Total FORCE_EVAL ( QS ) energy [hartree]            -21.069059921601742

 OPT| **************************************************************************
 OPT| Step number                                                              5
 OPT| Optimization method                                                   BFGS
 OPT| Total energy [hartree]                                      -21.0690599216
 OPT| Effective energy change [hartree]                            -0.0000082572
 OPT| Predicted energy change [hartree]                            -0.0000085097
 OPT| Scaling factor                                                0.0000000000
 OPT| Step size                                                     0.0085356275
 OPT| Trust radius                                                  0.4724315332
 OPT| Decrease in energy                                                     YES
 OPT| Used time [s]                                                        0.019
 OPT|
 OPT| Maximum step size                                             0.0085356275
 OPT| Convergence limit for maximum step size                       0.0030000000
 OPT| Maximum step size is converged                                          NO
 OPT|
 OPT| RMS step size                                                 0.0031673425
 OPT| Convergence limit for RMS step size                           0.0015000000
 OPT| RMS step size is converged                                              NO
 OPT|
 OPT| Maximum gradient                                              0.0007201274
 OPT| Convergence limit for maximum gradient                        0.0004500000
 OPT| Maximum gradient is converged                                           NO
 OPT|
 OPT| RMS gradient                                                  0.0002826871
 OPT| Convergence limit for RMS gradient                            0.0003000000
 OPT| RMS gradient is converged                                              YES
 OPT| **************************************************************************
 OPT| Estimated peak process memory after this step [MiB]                    163

 --------------------------
 OPTIMIZATION STEP:      6
 --------------------------

 Extrapolation method: ASPC

 Number of electrons:                                                         36
 Number of occupied orbitals:                                                 18
 Number of molecular orbitals:                                                31

 Number of orbital functions:                                                 31
 Number of independent orbital functions:                                     31


 SCF WAVEFUNCTION OPTIMIZATION

  Step     Update method      Time    Convergence         Total energy    Change
  ------------------------------------------------------------------------------
     1 TBLite/Diag 0.40E+00    0.0     0.01175302       -21.0690650760 -2.11E+01
     2 TBLite/Diag 0.40E+00    0.0     0.00025076       -21.0690651757 -9.97E-08
     3 TBLite/Diag 0.40E+00    0.0     0.00019188       -21.0690651932 -1.75E-08
     4 TBLite/Diag 0.40E+00    0.0     0.00006996       -21.0690651972 -3.98E-09
     5 TBLite/Diag 0.40E+00    0.0     0.00002121       -21.0690651976 -3.80E-10
     6 TBLite/Diag 0.40E+00    0.0     0.00000610       -21.0690651976 -5.82E-11
     7 TBLite/Diag 0.40E+00    0.0     0.00000098       -21.0690651976 -2.29E-12
     8 TBLite/Diag 0.40E+00    0.0     0.00000049       -21.0690651976 -4.83E-13
     9 TBLite/Diag 0.40E+00    0.0     0.00000012       -21.0690651976 -5.68E-14
    10 TBLite/Diag 0.40E+00    0.0     0.00000007       -21.0690651976  1.78E-14
    11 TBLite/Diag 0.40E+00    0.0     4.4053E-09       -21.0690651976 -7.11E-15
    12 TBLite/Diag 0.40E+00    0.0     3.5069E-09       -21.0690651976 -3.55E-15
    13 TBLite/Diag 0.40E+00    0.0     4.4107E-10       -21.0690651976  7.11E-15

  *** SCF run converged in    13 steps ***


  Core Hamiltonian energy:                                    -21.34604909771907
  Repulsive potential energy:                                   0.21809834292776
  Electrostatic energy:                                         0.06512728675630
  Self-consistent dispersion energy:                           -0.00624505311411
  Non-self consistent dispersion energy:                        0.00000332352084
  Correction for halogen bonding:                               0.00000000000000
  Electronic entropic energy:                                  -0.00000000000000
  Fermi energy:                                                -0.22207840315908

  Total energy:                                               -21.06906519762829
  Total energy (extrapolated to T->0):                        -21.06906519762829

 ENERGY| Total FORCE_EVAL ( QS ) energy [hartree]            -21.069065197628291

 OPT| **************************************************************************
 OPT| Step number                                                              6
 OPT| Optimization method                                                   BFGS
 OPT| Total energy [hartree]                                      -21.0690651976
 OPT| Effective energy change [hartree]                            -0.0000052760
 OPT| Predicted energy change [hartree]                            -0.0000042471
 OPT| Scaling factor                                                0.0000000000
 OPT| Step size                                                     0.0075729398
 OPT| Trust radius                                                  0.4724315332
 OPT| Decrease in energy                                                     YES
 OPT| Used time [s]                                                        0.017
 OPT|
 OPT| Maximum step size                                             0.0075729398
 OPT| Convergence limit for maximum step size                       0.0030000000
 OPT| Maximum step size is converged                                          NO
 OPT|
 OPT| RMS step size                                                 0.0020547905
 OPT| Convergence limit for RMS step size                           0.0015000000
 OPT| RMS step size is converged                                              NO
 OPT|
 OPT| Maximum gradient                                              0.0006418866
 OPT| Convergence limit for maximum gradient                        0.0004500000
 OPT| Maximum gradient is converged                                           NO
 OPT|
 OPT| RMS gradient                                                  0.0002184516
 OPT| Convergence limit for RMS gradient                            0.0003000000
 OPT| RMS gradient is converged                                              YES
 OPT| **************************************************************************
 OPT| Estimated peak process memory after this step [MiB]                    163

 --------------------------
 OPTIMIZATION STEP:      7
 --------------------------

 Extrapolation method: ASPC

 Number of electrons:                                                         36
 Number of occupied orbitals:                                                 18
 Number of molecular orbitals:                                                31

 Number of orbital functions:                                                 31
 Number of independent orbital functions:                                     31


 SCF WAVEFUNCTION OPTIMIZATION

  Step     Update method      Time    Convergence         Total energy    Change
  ------------------------------------------------------------------------------
     1 TBLite/Diag 0.40E+00    0.0     0.01141945       -21.0690695819 -2.11E+01
     2 TBLite/Diag 0.40E+00    0.0     0.00020863       -21.0690697306 -1.49E-07
     3 TBLite/Diag 0.40E+00    0.0     0.00016770       -21.0690697453 -1.47E-08
     4 TBLite/Diag 0.40E+00    0.0     0.00007917       -21.0690697520 -6.69E-09
     5 TBLite/Diag 0.40E+00    0.0     0.00002415       -21.0690697527 -7.22E-10
     6 TBLite/Diag 0.40E+00    0.0     0.00000422       -21.0690697528 -3.47E-11
     7 TBLite/Diag 0.40E+00    0.0     0.00000162       -21.0690697528 -5.94E-12
     8 TBLite/Diag 0.40E+00    0.0     0.00000077       -21.0690697528 -9.34E-13
     9 TBLite/Diag 0.40E+00    0.0     0.00000017       -21.0690697528 -3.91E-14
    10 TBLite/Diag 0.40E+00    0.0     0.00000002       -21.0690697528 -2.13E-14
    11 TBLite/Diag 0.40E+00    0.0     7.8520E-09       -21.0690697528 -3.55E-15
    12 TBLite/Diag 0.40E+00    0.0     1.1785E-09       -21.0690697528  1.07E-14
    13 TBLite/Diag 0.40E+00    0.0     1.0134E-09       -21.0690697528  3.55E-15
    14 TBLite/Diag 0.40E+00    0.0     1.3981E-10       -21.0690697528 -3.55E-15

  *** SCF run converged in    14 steps ***


  Core Hamiltonian energy:                                    -21.34627695350216
  Repulsive potential energy:                                   0.21830590605153
  Electrostatic energy:                                         0.06514335557528
  Self-consistent dispersion energy:                           -0.00624536860793
  Non-self consistent dispersion energy:                        0.00000330772629
  Correction for halogen bonding:                               0.00000000000000
  Electronic entropic energy:                                  -0.00000000000000
  Fermi energy:                                                -0.22175544685581

  Total energy:                                               -21.06906975275699
  Total energy (extrapolated to T->0):                        -21.06906975275699

 ENERGY| Total FORCE_EVAL ( QS ) energy [hartree]            -21.069069752756992

 OPT| **************************************************************************
 OPT| Step number                                                              7
 OPT| Optimization method                                                   BFGS
 OPT| Total energy [hartree]                                      -21.0690697528
 OPT| Effective energy change [hartree]                            -0.0000045551
 OPT| Predicted energy change [hartree]                            -0.0000032587
 OPT| Scaling factor                                                0.0000000000
 OPT| Step size                                                     0.0080007895
 OPT| Trust radius                                                  0.4724315332
 OPT| Decrease in energy                                                     YES
 OPT| Used time [s]                                                        0.018
 OPT|
 OPT| Maximum step size                                             0.0080007895
 OPT| Convergence limit for maximum step size                       0.0030000000
 OPT| Maximum step size is converged                                          NO
 OPT|
 OPT| RMS step size                                                 0.0020952507
 OPT| Convergence limit for RMS step size                           0.0015000000
 OPT| RMS step size is converged                                              NO
 OPT|
 OPT| Maximum gradient                                              0.0003412973
 OPT| Convergence limit for maximum gradient                        0.0004500000
 OPT| Maximum gradient is converged                                          YES
 OPT|
 OPT| RMS gradient                                                  0.0001293702
 OPT| Convergence limit for RMS gradient                            0.0003000000
 OPT| RMS gradient is converged                                              YES
 OPT| **************************************************************************
 OPT| Estimated peak process memory after this step [MiB]                    163

 --------------------------
 OPTIMIZATION STEP:      8
 --------------------------

 Extrapolation method: ASPC

 Number of electrons:                                                         36
 Number of occupied orbitals:                                                 18
 Number of molecular orbitals:                                                31

 Number of orbital functions:                                                 31
 Number of independent orbital functions:                                     31


 SCF WAVEFUNCTION OPTIMIZATION

  Step     Update method      Time    Convergence         Total energy    Change
  ------------------------------------------------------------------------------
     1 TBLite/Diag 0.40E+00    0.0     0.01678150       -21.0690736046 -2.11E+01
     2 TBLite/Diag 0.40E+00    0.0     0.00023970       -21.0690738267 -2.22E-07
     3 TBLite/Diag 0.40E+00    0.0     0.00025672       -21.0690738612 -3.45E-08
     4 TBLite/Diag 0.40E+00    0.0     0.00008594       -21.0690738678 -6.55E-09
     5 TBLite/Diag 0.40E+00    0.0     0.00003232       -21.0690738689 -1.16E-09
     6 TBLite/Diag 0.40E+00    0.0     0.00000531       -21.0690738690 -6.63E-11
     7 TBLite/Diag 0.40E+00    0.0     0.00000171       -21.0690738690 -4.93E-12
     8 TBLite/Diag 0.40E+00    0.0     0.00000075       -21.0690738690 -1.34E-12
     9 TBLite/Diag 0.40E+00    0.0     0.00000019       -21.0690738690 -3.55E-14
    10 TBLite/Diag 0.40E+00    0.0     0.00000005       -21.0690738690 -2.13E-14
    11 TBLite/Diag 0.40E+00    0.0     7.0050E-09       -21.0690738690  1.78E-14
    12 TBLite/Diag 0.40E+00    0.0     1.4381E-09       -21.0690738690 -3.55E-15
    13 TBLite/Diag 0.40E+00    0.0     7.7272E-10       -21.0690738690 -2.13E-14

  *** SCF run converged in    13 steps ***


  Core Hamiltonian energy:                                    -21.34649422280355
  Repulsive potential energy:                                   0.21848257560101
  Electrostatic energy:                                         0.06517925223808
  Self-consistent dispersion energy:                           -0.00624476294106
  Non-self consistent dispersion energy:                        0.00000328890248
  Correction for halogen bonding:                               0.00000000000000
  Electronic entropic energy:                                  -0.00000000000000
  Fermi energy:                                                -0.22134496314221

  Total energy:                                               -21.06907386900304
  Total energy (extrapolated to T->0):                        -21.06907386900304

 ENERGY| Total FORCE_EVAL ( QS ) energy [hartree]            -21.069073869003038

 OPT| **************************************************************************
 OPT| Step number                                                              8
 OPT| Optimization method                                                   BFGS
 OPT| Total energy [hartree]                                      -21.0690738690
 OPT| Effective energy change [hartree]                            -0.0000041162
 OPT| Predicted energy change [hartree]                            -0.0000031039
 OPT| Scaling factor                                                0.0000000000
 OPT| Step size                                                     0.0117239330
 OPT| Trust radius                                                  0.4724315332
 OPT| Decrease in energy                                                     YES
 OPT| Used time [s]                                                        0.017
 OPT|
 OPT| Maximum step size                                             0.0117239330
 OPT| Convergence limit for maximum step size                       0.0030000000
 OPT| Maximum step size is converged                                          NO
 OPT|
 OPT| RMS step size                                                 0.0029096388
 OPT| Convergence limit for RMS step size                           0.0015000000
 OPT| RMS step size is converged                                              NO
 OPT|
 OPT| Maximum gradient                                              0.0004486071
 OPT| Convergence limit for maximum gradient                        0.0004500000
 OPT| Maximum gradient is converged                                          YES
 OPT|
 OPT| RMS gradient                                                  0.0001610397
 OPT| Convergence limit for RMS gradient                            0.0003000000
 OPT| RMS gradient is converged                                              YES
 OPT| **************************************************************************
 OPT| Estimated peak process memory after this step [MiB]                    163

 --------------------------
 OPTIMIZATION STEP:      9
 --------------------------

 Extrapolation method: ASPC

 Number of electrons:                                                         36
 Number of occupied orbitals:                                                 18
 Number of molecular orbitals:                                                31

 Number of orbital functions:                                                 31
 Number of independent orbital functions:                                     31


 SCF WAVEFUNCTION OPTIMIZATION

  Step     Update method      Time    Convergence         Total energy    Change
  ------------------------------------------------------------------------------
     1 TBLite/Diag 0.40E+00    0.0     0.01765920       -21.0690771865 -2.11E+01
     2 TBLite/Diag 0.40E+00    0.0     0.00022839       -21.0690773214 -1.35E-07
     3 TBLite/Diag 0.40E+00    0.0     0.00027757       -21.0690773582 -3.68E-08
     4 TBLite/Diag 0.40E+00    0.0     0.00006567       -21.0690773620 -3.77E-09
     5 TBLite/Diag 0.40E+00    0.0     0.00002441       -21.0690773625 -5.57E-10
     6 TBLite/Diag 0.40E+00    0.0     0.00000661       -21.0690773626 -6.50E-11
     7 TBLite/Diag 0.40E+00    0.0     0.00000132       -21.0690773626 -3.95E-12
     8 TBLite/Diag 0.40E+00    0.0     0.00000069       -21.0690773626 -8.99E-13
     9 TBLite/Diag 0.40E+00    0.0     0.00000015       -21.0690773626 -5.33E-14
    10 TBLite/Diag 0.40E+00    0.0     0.00000009       -21.0690773626 -7.11E-15
    11 TBLite/Diag 0.40E+00    0.0     8.1289E-09       -21.0690773626  7.11E-15
    12 TBLite/Diag 0.40E+00    0.0     1.9785E-09       -21.0690773626 -2.49E-14
    13 TBLite/Diag 0.40E+00    0.0     1.3400E-09       -21.0690773626  2.84E-14
    14 TBLite/Diag 0.40E+00    0.0     1.3891E-10       -21.0690773626 -2.13E-14

  *** SCF run converged in    14 steps ***


  Core Hamiltonian energy:                                    -21.34659910968521
  Repulsive potential energy:                                   0.21855805504251
  Electrostatic energy:                                         0.06520442928378
  Self-consistent dispersion energy:                           -0.00624401769597
  Non-self consistent dispersion energy:                        0.00000328045124
  Correction for halogen bonding:                               0.00000000000000
  Electronic entropic energy:                                  -0.00000000000000
  Fermi energy:                                                -0.22108370514120

  Total energy:                                               -21.06907736260366
  Total energy (extrapolated to T->0):                        -21.06907736260366

 ENERGY| Total FORCE_EVAL ( QS ) energy [hartree]            -21.069077362603664

 OPT| **************************************************************************
 OPT| Step number                                                              9
 OPT| Optimization method                                                   BFGS
 OPT| Total energy [hartree]                                      -21.0690773626
 OPT| Effective energy change [hartree]                            -0.0000034936
 OPT| Predicted energy change [hartree]                            -0.0000023094
 OPT| Scaling factor                                                0.0000000000
 OPT| Step size                                                     0.0125151806
 OPT| Trust radius                                                  0.4724315332
 OPT| Decrease in energy                                                     YES
 OPT| Used time [s]                                                        0.018
 OPT|
 OPT| Maximum step size                                             0.0125151806
 OPT| Convergence limit for maximum step size                       0.0030000000
 OPT| Maximum step size is converged                                          NO
 OPT|
 OPT| RMS step size                                                 0.0030399654
 OPT| Convergence limit for RMS step size                           0.0015000000
 OPT| RMS step size is converged                                              NO
 OPT|
 OPT| Maximum gradient                                              0.0005075283
 OPT| Convergence limit for maximum gradient                        0.0004500000
 OPT| Maximum gradient is converged                                           NO
 OPT|
 OPT| RMS gradient                                                  0.0001922328
 OPT| Convergence limit for RMS gradient                            0.0003000000
 OPT| RMS gradient is converged                                              YES
 OPT| **************************************************************************
 OPT| Estimated peak process memory after this step [MiB]                    163

 --------------------------
 OPTIMIZATION STEP:     10
 --------------------------

 Extrapolation method: ASPC

 Number of electrons:                                                         36
 Number of occupied orbitals:                                                 18
 Number of molecular orbitals:                                                31

 Number of orbital functions:                                                 31
 Number of independent orbital functions:                                     31


 SCF WAVEFUNCTION OPTIMIZATION

  Step     Update method      Time    Convergence         Total energy    Change
  ------------------------------------------------------------------------------
     1 TBLite/Diag 0.40E+00    0.0     0.02793898       -21.0690812812 -2.11E+01
     2 TBLite/Diag 0.40E+00    0.0     0.00036339       -21.0690815351 -2.54E-07
     3 TBLite/Diag 0.40E+00    0.0     0.00044776       -21.0690816240 -8.88E-08
     4 TBLite/Diag 0.40E+00    0.0     0.00008511       -21.0690816301 -6.12E-09
     5 TBLite/Diag 0.40E+00    0.0     0.00003336       -21.0690816308 -7.18E-10
     6 TBLite/Diag 0.40E+00    0.0     0.00001069       -21.0690816310 -1.75E-10
     7 TBLite/Diag 0.40E+00    0.0     0.00000204       -21.0690816310 -7.68E-12
     8 TBLite/Diag 0.40E+00    0.0     0.00000041       -21.0690816310 -2.45E-13
     9 TBLite/Diag 0.40E+00    0.0     0.00000029       -21.0690816310 -1.10E-13
    10 TBLite/Diag 0.40E+00    0.0     0.00000002       -21.0690816310  0.00E+00
    11 TBLite/Diag 0.40E+00    0.0     0.00000001       -21.0690816310 -2.13E-14
    12 TBLite/Diag 0.40E+00    0.0     1.0500E-09       -21.0690816310  1.42E-14
    13 TBLite/Diag 0.40E+00    0.0     7.8309E-10       -21.0690816310 -7.11E-15

  *** SCF run converged in    13 steps ***


  Core Hamiltonian energy:                                    -21.34664558724362
  Repulsive potential energy:                                   0.21857144468292
  Electrostatic energy:                                         0.06523214556950
  Self-consistent dispersion energy:                           -0.00624290943820
  Non-self consistent dispersion energy:                        0.00000327545338
  Correction for halogen bonding:                               0.00000000000000
  Electronic entropic energy:                                  -0.00000000000000
  Fermi energy:                                                -0.22082759095815

  Total energy:                                               -21.06908163097603
  Total energy (extrapolated to T->0):                        -21.06908163097603

 ENERGY| Total FORCE_EVAL ( QS ) energy [hartree]            -21.069081630976026

 OPT| **************************************************************************
 OPT| Step number                                                             10
 OPT| Optimization method                                                   BFGS
 OPT| Total energy [hartree]                                      -21.0690816310
 OPT| Effective energy change [hartree]                            -0.0000042684
 OPT| Predicted energy change [hartree]                            -0.0000031086
 OPT| Scaling factor                                                0.0000000000
 OPT| Step size                                                     0.0194912859
 OPT| Trust radius                                                  0.4724315332
 OPT| Decrease in energy                                                     YES
 OPT| Used time [s]                                                        0.018
 OPT|
 OPT| Maximum step size                                             0.0194912859
 OPT| Convergence limit for maximum step size                       0.0030000000
 OPT| Maximum step size is converged                                          NO
 OPT|
 OPT| RMS step size                                                 0.0047424793
 OPT| Convergence limit for RMS step size                           0.0015000000
 OPT| RMS step size is converged                                              NO
 OPT|
 OPT| Maximum gradient                                              0.0005251637
 OPT| Convergence limit for maximum gradient                        0.0004500000
 OPT| Maximum gradient is converged                                           NO
 OPT|
 OPT| RMS gradient                                                  0.0001828540
 OPT| Convergence limit for RMS gradient                            0.0003000000
 OPT| RMS gradient is converged                                              YES
 OPT| **************************************************************************
 OPT| Estimated peak process memory after this step [MiB]                    163

 --------------------------
 OPTIMIZATION STEP:     11
 --------------------------

 Extrapolation method: ASPC

 Number of electrons:                                                         36
 Number of occupied orbitals:                                                 18
 Number of molecular orbitals:                                                31

 Number of orbital functions:                                                 31
 Number of independent orbital functions:                                     31


 SCF WAVEFUNCTION OPTIMIZATION

  Step     Update method      Time    Convergence         Total energy    Change
  ------------------------------------------------------------------------------
     1 TBLite/Diag 0.40E+00    0.0     0.02027659       -21.0690836635 -2.11E+01
     2 TBLite/Diag 0.40E+00    0.0     0.00028658       -21.0690838164 -1.53E-07
     3 TBLite/Diag 0.40E+00    0.0     0.00031973       -21.0690838618 -4.54E-08
     4 TBLite/Diag 0.40E+00    0.0     0.00005946       -21.0690838652 -3.41E-09
     5 TBLite/Diag 0.40E+00    0.0     0.00002452       -21.0690838655 -2.82E-10
     6 TBLite/Diag 0.40E+00    0.0     0.00000975       -21.0690838656 -1.27E-10
     7 TBLite/Diag 0.40E+00    0.0     0.00000080       -21.0690838656 -2.80E-12
     8 TBLite/Diag 0.40E+00    0.0     0.00000055       -21.0690838656 -4.51E-13
     9 TBLite/Diag 0.40E+00    0.0     0.00000015       -21.0690838656 -5.68E-14
    10 TBLite/Diag 0.40E+00    0.0     0.00000007       -21.0690838656  7.11E-15
    11 TBLite/Diag 0.40E+00    0.0     5.5021E-09       -21.0690838656 -7.11E-15
    12 TBLite/Diag 0.40E+00    0.0     1.9939E-09       -21.0690838656 -1.07E-14
    13 TBLite/Diag 0.40E+00    0.0     9.4286E-10       -21.0690838656 -7.11E-15

  *** SCF run converged in    13 steps ***


  Core Hamiltonian energy:                                    -21.34663693631376
  Repulsive potential energy:                                   0.21855656408540
  Electrostatic energy:                                         0.06523554523058
  Self-consistent dispersion energy:                           -0.00624231685002
  Non-self consistent dispersion energy:                        0.00000327822802
  Correction for halogen bonding:                               0.00000000000000
  Electronic entropic energy:                                  -0.00000000000000
  Fermi energy:                                                -0.22073279752909

  Total energy:                                               -21.06908386561977
  Total energy (extrapolated to T->0):                        -21.06908386561977

 ENERGY| Total FORCE_EVAL ( QS ) energy [hartree]            -21.069083865619774

 OPT| **************************************************************************
 OPT| Step number                                                             11
 OPT| Optimization method                                                   BFGS
 OPT| Total energy [hartree]                                      -21.0690838656
 OPT| Effective energy change [hartree]                            -0.0000022346
 OPT| Predicted energy change [hartree]                            -0.0000016875
 OPT| Scaling factor                                                0.0000000000
 OPT| Step size                                                     0.0140059216
 OPT| Trust radius                                                  0.4724315332
 OPT| Decrease in energy                                                     YES
 OPT| Used time [s]                                                        0.017
 OPT|
 OPT| Maximum step size                                             0.0140059216
 OPT| Convergence limit for maximum step size                       0.0030000000
 OPT| Maximum step size is converged                                          NO
 OPT|
 OPT| RMS step size                                                 0.0034185302
 OPT| Convergence limit for RMS step size                           0.0015000000
 OPT| RMS step size is converged                                              NO
 OPT|
 OPT| Maximum gradient                                              0.0002552115
 OPT| Convergence limit for maximum gradient                        0.0004500000
 OPT| Maximum gradient is converged                                          YES
 OPT|
 OPT| RMS gradient                                                  0.0001045436
 OPT| Convergence limit for RMS gradient                            0.0003000000
 OPT| RMS gradient is converged                                              YES
 OPT| **************************************************************************
 OPT| Estimated peak process memory after this step [MiB]                    163

 --------------------------
 OPTIMIZATION STEP:     12
 --------------------------

 Extrapolation method: ASPC

 Number of electrons:                                                         36
 Number of occupied orbitals:                                                 18
 Number of molecular orbitals:                                                31

 Number of orbital functions:                                                 31
 Number of independent orbital functions:                                     31


 SCF WAVEFUNCTION OPTIMIZATION

  Step     Update method      Time    Convergence         Total energy    Change
  ------------------------------------------------------------------------------
     1 TBLite/Diag 0.40E+00    0.0     0.01240744       -21.0690845771 -2.11E+01
     2 TBLite/Diag 0.40E+00    0.0     0.00018406       -21.0690846404 -6.33E-08
     3 TBLite/Diag 0.40E+00    0.0     0.00019404       -21.0690846571 -1.67E-08
     4 TBLite/Diag 0.40E+00    0.0     0.00003779       -21.0690846585 -1.43E-09
     5 TBLite/Diag 0.40E+00    0.0     0.00001554       -21.0690846587 -1.25E-10
     6 TBLite/Diag 0.40E+00    0.0     0.00000599       -21.0690846587 -4.60E-11
     7 TBLite/Diag 0.40E+00    0.0     0.00000065       -21.0690846587 -1.25E-12
     8 TBLite/Diag 0.40E+00    0.0     0.00000038       -21.0690846587 -2.20E-13
     9 TBLite/Diag 0.40E+00    0.0     0.00000010       -21.0690846587 -7.11E-15
    10 TBLite/Diag 0.40E+00    0.0     0.00000005       -21.0690846587 -2.13E-14
    11 TBLite/Diag 0.40E+00    0.0     4.1521E-09       -21.0690846587  1.42E-14
    12 TBLite/Diag 0.40E+00    0.0     3.4975E-09       -21.0690846587 -1.78E-14
    13 TBLite/Diag 0.40E+00    0.0     8.7103E-10       -21.0690846587  7.11E-15

  *** SCF run converged in    13 steps ***


  Core Hamiltonian energy:                                    -21.34663779636979
  Repulsive potential energy:                                   0.21856093142894
  Electrostatic energy:                                         0.06523133049287
  Self-consistent dispersion energy:                           -0.00624240422766
  Non-self consistent dispersion energy:                        0.00000327995388
  Correction for halogen bonding:                               0.00000000000000
  Electronic entropic energy:                                  -0.00000000000000
  Fermi energy:                                                -0.22069135425329

  Total energy:                                               -21.06908465872176
  Total energy (extrapolated to T->0):                        -21.06908465872176

 ENERGY| Total FORCE_EVAL ( QS ) energy [hartree]            -21.069084658721764

 OPT| **************************************************************************
 OPT| Step number                                                             12
 OPT| Optimization method                                                   BFGS
 OPT| Total energy [hartree]                                      -21.0690846587
 OPT| Effective energy change [hartree]                            -0.0000007931
 OPT| Predicted energy change [hartree]                            -0.0000006106
 OPT| Scaling factor                                                0.0000000000
 OPT| Step size                                                     0.0084789343
 OPT| Trust radius                                                  0.4724315332
 OPT| Decrease in energy                                                     YES
 OPT| Used time [s]                                                        0.017
 OPT|
 OPT| Maximum step size                                             0.0084789343
 OPT| Convergence limit for maximum step size                       0.0030000000
 OPT| Maximum step size is converged                                          NO
 OPT|
 OPT| RMS step size                                                 0.0020514252
 OPT| Convergence limit for RMS step size                           0.0015000000
 OPT| RMS step size is converged                                              NO
 OPT|
 OPT| Maximum gradient                                              0.0001443212
 OPT| Convergence limit for maximum gradient                        0.0004500000
 OPT| Maximum gradient is converged                                          YES
 OPT|
 OPT| RMS gradient                                                  0.0000513704
 OPT| Convergence limit for RMS gradient                            0.0003000000
 OPT| RMS gradient is converged                                              YES
 OPT| **************************************************************************
 OPT| Estimated peak process memory after this step [MiB]                    163

 --------------------------
 OPTIMIZATION STEP:     13
 --------------------------

 Extrapolation method: ASPC

 Number of electrons:                                                         36
 Number of occupied orbitals:                                                 18
 Number of molecular orbitals:                                                31

 Number of orbital functions:                                                 31
 Number of independent orbital functions:                                     31


 SCF WAVEFUNCTION OPTIMIZATION

  Step     Update method      Time    Convergence         Total energy    Change
  ------------------------------------------------------------------------------
     1 TBLite/Diag 0.40E+00    0.0     0.00923288       -21.0690849750 -2.11E+01
     2 TBLite/Diag 0.40E+00    0.0     0.00011963       -21.0690850016 -2.67E-08
     3 TBLite/Diag 0.40E+00    0.0     0.00014824       -21.0690850108 -9.12E-09
     4 TBLite/Diag 0.40E+00    0.0     0.00002731       -21.0690850114 -6.44E-10
     5 TBLite/Diag 0.40E+00    0.0     0.00001056       -21.0690850115 -5.88E-11
     6 TBLite/Diag 0.40E+00    0.0     0.00000356       -21.0690850115 -1.85E-11
     7 TBLite/Diag 0.40E+00    0.0     0.00000027       -21.0690850115 -2.84E-13
     8 TBLite/Diag 0.40E+00    0.0     0.00000024       -21.0690850115 -3.55E-14
     9 TBLite/Diag 0.40E+00    0.0     0.00000005       -21.0690850115 -1.42E-14
    10 TBLite/Diag 0.40E+00    0.0     0.00000002       -21.0690850115  7.11E-15
    11 TBLite/Diag 0.40E+00    0.0     1.8037E-09       -21.0690850115  3.55E-15
    12 TBLite/Diag 0.40E+00    0.0     1.1502E-09       -21.0690850115 -7.11E-15
    13 TBLite/Diag 0.40E+00    0.0     3.6640E-10       -21.0690850115 -1.78E-14

  *** SCF run converged in    13 steps ***


  Core Hamiltonian energy:                                    -21.34664532598926
  Repulsive potential energy:                                   0.21857059435357
  Electrostatic energy:                                         0.06522903644737
  Self-consistent dispersion energy:                           -0.00624259562300
  Non-self consistent dispersion energy:                        0.00000327933386
  Correction for halogen bonding:                               0.00000000000000
  Electronic entropic energy:                                  -0.00000000000000
  Fermi energy:                                                -0.22064562169361

  Total energy:                                               -21.06908501147745
  Total energy (extrapolated to T->0):                        -21.06908501147745

 ENERGY| Total FORCE_EVAL ( QS ) energy [hartree]            -21.069085011477455

 OPT| **************************************************************************
 OPT| Step number                                                             13
 OPT| Optimization method                                                   BFGS
 OPT| Total energy [hartree]                                      -21.0690850115
 OPT| Effective energy change [hartree]                            -0.0000003528
 OPT| Predicted energy change [hartree]                            -0.0000002448
 OPT| Scaling factor                                                0.0000000000
 OPT| Step size                                                     0.0062784026
 OPT| Trust radius                                                  0.4724315332
 OPT| Decrease in energy                                                     YES
 OPT| Used time [s]                                                        0.017
 OPT|
 OPT| Maximum step size                                             0.0062784026
 OPT| Convergence limit for maximum step size                       0.0030000000
 OPT| Maximum step size is converged                                          NO
 OPT|
 OPT| RMS step size                                                 0.0014994721
 OPT| Convergence limit for RMS step size                           0.0015000000
 OPT| RMS step size is converged                                             YES
 OPT|
 OPT| Maximum gradient                                              0.0001357800
 OPT| Convergence limit for maximum gradient                        0.0004500000
 OPT| Maximum gradient is converged                                          YES
 OPT|
 OPT| RMS gradient                                                  0.0000438450
 OPT| Convergence limit for RMS gradient                            0.0003000000
 OPT| RMS gradient is converged                                              YES
 OPT| **************************************************************************
 OPT| Estimated peak process memory after this step [MiB]                    163

 --------------------------
 OPTIMIZATION STEP:     14
 --------------------------

 Extrapolation method: ASPC

 Number of electrons:                                                         36
 Number of occupied orbitals:                                                 18
 Number of molecular orbitals:                                                31

 Number of orbital functions:                                                 31
 Number of independent orbital functions:                                     31


 SCF WAVEFUNCTION OPTIMIZATION

  Step     Update method      Time    Convergence         Total energy    Change
  ------------------------------------------------------------------------------
     1 TBLite/Diag 0.40E+00    0.0     0.01201188       -21.0690853078 -2.11E+01
     2 TBLite/Diag 0.40E+00    0.0     0.00015444       -21.0690853463 -3.85E-08
     3 TBLite/Diag 0.40E+00    0.0     0.00019515       -21.0690853620 -1.57E-08
     4 TBLite/Diag 0.40E+00    0.0     0.00003003       -21.0690853626 -5.99E-10
     5 TBLite/Diag 0.40E+00    0.0     0.00001269       -21.0690853627 -1.16E-10
     6 TBLite/Diag 0.40E+00    0.0     0.00000315       -21.0690853627 -1.59E-11
     7 TBLite/Diag 0.40E+00    0.0     0.00000045       -21.0690853627 -3.77E-13
     8 TBLite/Diag 0.40E+00    0.0     0.00000019       -21.0690853627 -3.91E-14
     9 TBLite/Diag 0.40E+00    0.0     0.00000006       -21.0690853627  0.00E+00
    10 TBLite/Diag 0.40E+00    0.0     8.0247E-09       -21.0690853627  7.11E-15
    11 TBLite/Diag 0.40E+00    0.0     2.7202E-09       -21.0690853627  1.07E-14
    12 TBLite/Diag 0.40E+00    0.0     6.9551E-10       -21.0690853627 -1.42E-14

  *** SCF run converged in    12 steps ***


  Core Hamiltonian energy:                                    -21.34666542639819
  Repulsive potential energy:                                   0.21858880614622
  Electrostatic energy:                                         0.06523080291031
  Self-consistent dispersion energy:                           -0.00624282223696
  Non-self consistent dispersion energy:                        0.00000327685025
  Correction for halogen bonding:                               0.00000000000000
  Electronic entropic energy:                                  -0.00000000000000
  Fermi energy:                                                -0.22058401571352

  Total energy:                                               -21.06908536272837
  Total energy (extrapolated to T->0):                        -21.06908536272837

 ENERGY| Total FORCE_EVAL ( QS ) energy [hartree]            -21.069085362728366

 OPT| **************************************************************************
 OPT| Step number                                                             14
 OPT| Optimization method                                                   BFGS
 OPT| Total energy [hartree]                                      -21.0690853627
 OPT| Effective energy change [hartree]                            -0.0000003513
 OPT| Predicted energy change [hartree]                            -0.0000002459
 OPT| Scaling factor                                                0.0000000000
 OPT| Step size                                                     0.0082160110
 OPT| Trust radius                                                  0.4724315332
 OPT| Decrease in energy                                                     YES
 OPT| Used time [s]                                                        0.016
 OPT|
 OPT| Maximum step size                                             0.0082160110
 OPT| Convergence limit for maximum step size                       0.0030000000
 OPT| Maximum step size is converged                                          NO
 OPT|
[...]
 Number of occupied orbitals:                                                 18
 Number of molecular orbitals:                                                31

 Number of orbital functions:                                                 31
 Number of independent orbital functions:                                     31


 SCF WAVEFUNCTION OPTIMIZATION

  Step     Update method      Time    Convergence         Total energy    Change
  ------------------------------------------------------------------------------
     1 TBLite/Diag 0.40E+00    0.0     0.00307492       -21.0690858551 -2.11E+01
     2 TBLite/Diag 0.40E+00    0.0     0.00003939       -21.0690858577 -2.57E-09
     3 TBLite/Diag 0.40E+00    0.0     0.00005015       -21.0690858588 -1.06E-09
     4 TBLite/Diag 0.40E+00    0.0     0.00000410       -21.0690858588 -2.22E-11
     5 TBLite/Diag 0.40E+00    0.0     0.00000200       -21.0690858588 -5.46E-12
     6 TBLite/Diag 0.40E+00    0.0     0.00000081       -21.0690858588 -7.11E-13
     7 TBLite/Diag 0.40E+00    0.0     0.00000017       -21.0690858588 -2.49E-14
     8 TBLite/Diag 0.40E+00    0.0     0.00000005       -21.0690858588 -1.78E-14
     9 TBLite/Diag 0.40E+00    0.0     0.00000001       -21.0690858588  1.78E-14
    10 TBLite/Diag 0.40E+00    0.0     6.3930E-09       -21.0690858588 -1.78E-14
    11 TBLite/Diag 0.40E+00    0.0     6.2161E-10       -21.0690858588  1.07E-14

  *** SCF run converged in    11 steps ***


  Core Hamiltonian energy:                                    -21.34674961276644
  Repulsive potential energy:                                   0.21866447931109
  Electrostatic energy:                                         0.06523888920604
  Self-consistent dispersion energy:                           -0.00624288583069
  Non-self consistent dispersion energy:                        0.00000327128554
  Correction for halogen bonding:                               0.00000000000000
  Electronic entropic energy:                                  -0.00000000000000
  Fermi energy:                                                -0.22051814182289

  Total energy:                                               -21.06908585879446
  Total energy (extrapolated to T->0):                        -21.06908585879446

 ENERGY| Total FORCE_EVAL ( QS ) energy [hartree]            -21.069085858794462

 OPT| **************************************************************************
 OPT| Step number                                                             17
 OPT| Optimization method                                                   BFGS
 OPT| Total energy [hartree]                                      -21.0690858588
 OPT| Effective energy change [hartree]                            -0.0000000756
 OPT| Predicted energy change [hartree]                            -0.0000000505
 OPT| Scaling factor                                                0.0000000000
 OPT| Step size                                                     0.0021061708
 OPT| Trust radius                                                  0.4724315332
 OPT| Decrease in energy                                                     YES
 OPT| Used time [s]                                                        0.015
 OPT|
 OPT| Maximum step size                                             0.0021061708
 OPT| Convergence limit for maximum step size                       0.0030000000
 OPT| Maximum step size is converged                                         YES
 OPT|
 OPT| RMS step size                                                 0.0005566738
 OPT| Convergence limit for RMS step size                           0.0015000000
 OPT| RMS step size is converged                                             YES
 OPT|
 OPT| Maximum gradient                                              0.0000405612
 OPT| Convergence limit for maximum gradient                        0.0004500000
 OPT| Maximum gradient is converged                                          YES
 OPT|
 OPT| RMS gradient                                                  0.0000164536
 OPT| Convergence limit for RMS gradient                            0.0003000000
 OPT| RMS gradient is converged                                              YES
 OPT| **************************************************************************
 OPT| Estimated peak process memory after this step [MiB]                    163

 *******************************************************************************
 ***                    GEOMETRY OPTIMIZATION COMPLETED                      ***
 *******************************************************************************

 write_final_structure: Optimization converged, writing XYZ file gladly:
  ethylcarbamate_GFN2_mol_geoopt-FINAL-1_17.xyz

 write_final_structure: Optimization converged, writing CIF file gladly:
  ethylcarbamate_GFN2_mol_geoopt-FINAL-1_17.cif

 write_final_structure: Done!

                    Reevaluating energy at the minimum

 Extrapolation method: ASPC

 Number of electrons:                                                         36
 Number of occupied orbitals:                                                 18
 Number of molecular orbitals:                                                31

 Number of orbital functions:                                                 31
 Number of independent orbital functions:                                     31


 SCF WAVEFUNCTION OPTIMIZATION

  Step     Update method      Time    Convergence         Total energy    Change
  ------------------------------------------------------------------------------
     1 TBLite/Diag 0.40E+00    0.0     5.7681E-10       -21.0690858588 -2.11E+01

  *** SCF run converged in     1 steps ***


  Core Hamiltonian energy:                                    -21.34674961261075
  Repulsive potential energy:                                   0.21866447931109
  Electrostatic energy:                                         0.06523888905011
  Self-consistent dispersion energy:                           -0.00624288583044
  Non-self consistent dispersion energy:                        0.00000327128554
  Correction for halogen bonding:                               0.00000000000000
  Electronic entropic energy:                                  -0.00000000000000
  Fermi energy:                                                -0.22051814161006

  Total energy:                                               -21.06908585879446
  Total energy (extrapolated to T->0):                        -21.06908585879446

 ENERGY| Total FORCE_EVAL ( QS ) energy [hartree]            -21.069085858794459

 -------------------------------------------------------------------------------
 -                                                                             -
 -                                DBCSR STATISTICS                             -
 -                                                                             -
 -------------------------------------------------------------------------------
 COUNTER                                    TOTAL       BLAS       SMM       ACC
 flops     1 x    31 x     1               243040       0.0%    100.0%      0.0%     
 flops     1 x     1 x    31               484344       0.0%    100.0%      0.0%     
 flops     4 x    31 x     1               833280       0.0%    100.0%      0.0%     
 flops     1 x    31 x     4               833280       0.0%    100.0%      0.0%     
 flops     4 x     1 x    31              1453032       0.0%    100.0%      0.0%     
 flops     1 x     4 x    31              1453032       0.0%    100.0%      0.0%     
 flops     4 x    31 x     4              2856960       0.0%    100.0%      0.0%     
 flops     4 x     4 x    31              5812128       0.0%    100.0%      0.0%     
 flops inhomo. stacks                           0       0.0%      0.0%      0.0%
 flops total                        13.969096E+06       0.0%    100.0%      0.0%
 flops max/rank                     13.969096E+06       0.0%    100.0%      0.0%
 matmuls inhomo. stacks                         0       0.0%      0.0%      0.0%
 matmuls total                              38909       0.0%    100.0%      0.0%
 number of processed stacks                  1436       0.0%    100.0%      0.0%
 average stack size                                     0.0      27.1       0.0
 marketing flops                    14.418844E+06
 -------------------------------------------------------------------------------
 # multiplications                            359
 max memory usage/rank              13.670457E+09
 # max total images/rank                        1
 # max 3D layers                                1
 # MPI messages exchanged                       0
 -------------------------------------------------------------------------------
 -                                                                             -
 -                      DBCSR MESSAGE PASSING PERFORMANCE                      -
 -                                                                             -
 -------------------------------------------------------------------------------
 ROUTINE             CALLS      AVE VOLUME [Bytes]
 MP_Bcast                9                     12.
 MP_Allreduce         1670                      8.
 MP_Alltoall         11976                   5658.
 MP_ISend             1436                    608.
 MP_IRecv             1436                    608.
 -------------------------------------------------------------------------------

 -------------------------------------------------------------------------------
 -                                                                             -
 -                          OFFLOAD MEMPOOL STATISTICS                         -
 -                                                                             -
 -------------------------------------------------------------------------------
 Memory consumption                Number of allocations  Used [MiB]  Size [MiB]
 Device                                                1           0           0
 Host                                                  1           0           0
 -------------------------------------------------------------------------------

 MEMORY| Estimated peak process memory [MiB]                                 163

 -------------------------------------------------------------------------------
 -                                                                             -
 -                         MESSAGE PASSING PERFORMANCE                         -
 -                                                                             -
 -------------------------------------------------------------------------------

 ROUTINE             CALLS      AVE VOLUME [Bytes]
 MP_Group                1
 MP_Bcast              539                    132.
 MP_Allreduce         8724                     97.
 MP_Sync               280
 MP_comm_split         279
 -------------------------------------------------------------------------------


 -------------------------------------------------------------------------------
 -                                                                             -
 -                           R E F E R E N C E S                               -
 -                                                                             -
 -------------------------------------------------------------------------------
 
 CP2K version 2026.1 (Development Version), the CP2K developers group (2026).
 CP2K is freely available from https://www.cp2k.org/ .
 
 M. Iannuzzi, J. Wilhelm, F. Stein, A. Bussy, H. Elgabarty, D. Golze, A. Hehn, 
 M. Graml, S. Marek, B. Sertcan Gökmen, C. Schran, H. Forbert, R. Z. 
 Khaliullin, A. Kozhevnikov, M. Taillefumier, R. Meli, V. V. Rybkin, M. Brehm, 
 R. Schade, O. Schütt, J. V. Pototschnig, H. Mirhosseini, A. Knüpfer, D. Marx, 
 M. Krack, J. Hutter, T. D. Kühne.
 J. Phys. Chem. B 130, 1237-1310 (2026).
 The CP2K Program Package Made Simple.
 https://doi.org/10.1021/acs.jpcb.5c05851

 A. Katbashev, M. Stahn, T. Rose, V. Alizadeh, M. Friede, C. Plett, P. 
 Steinbach, S. Ehlert.
 J. Phys. Chem. A 129, 2667-2682 (2025).
 Overview on Building Blocks and Applications of Efficient and Robust Extended 
 Tight Binding.
 https://doi.org/10.1021/acs.jpca.4c08263

 T. D. Kühne, M. Iannuzzi, M. Del Ben, V. V. Rybkin, P. Seewald, F. Stein, T. 
 Laino, R. Z. Khaliullin, O. Schütt, F. Schiffmann, D. Golze, J. Wilhelm, S. 
 Chulkov, M. H. Bani-Hashemian, V. Weber, U. Borstnik, M. Taillefumier, A. S. 
 Jakobovits, A. Lazzaro, H. Pabst, T. Müller, R. Schade, M. Guidon, S. 
 Andermatt, N. Holmberg, G. K. Schenter, A. Hehn, A. Bussy, F. Belleflamme, G. 
 Tabacchi, A. Glöß, M. Lass, I. Bethune, C. J. Mundy, C. Plessl, M. Watkins, 
 J. VandeVondele, M. Krack, J. Hutter.
 J. Chem. Phys. 152, 194103 (2020).
 CP2K: An electronic structure and molecular dynamics software package - 
 Quickstep: Efficient and accurate electronic structure calculations.
 https://doi.org/10.1063/5.0007045

 P. Pracht, E. Caldeweyher, S. Ehlert, S. Grimme.
 ChemRxiv, (2019).
 A Robust Non-Self-Consistent Tight-Binding Quantum Chemistry Method for large 
 Molecules.
 https://doi.org/10.26434/chemrxiv.8326202.v1

 S. Grimme, C. Bannwarth, P. Shushkov.
 J. Chem. Theory Comput. 13, 1989 (2017).
 A Robust and Accurate Tight-Binding Quantum Chemical Method for Structures, 
 Vibrational Frequencies, and Noncovalent Interactions of Large Molecular 
 Systems Parametrized for All spd-Block Elements (Z = 1-86).
 https://doi.org/10.1021/acs.jctc.7b00118

 O. Schuett, P. Messmer, J. Hutter, J. VandeVondele.
 Electronic Structure Calculations on Graphics Processing Units, 173-190 (2016).
 GPU-Accelerated Sparse Matrix-Matrix Multiplication for Linear Scaling Density 
 Functional Theory.
 https://doi.org/10.1002/9781118670712.ch8

 A. Heinecke, G. Henry, M. Hutchinson, H. Pabst.
 Proceedings of Intl. Supercomputing Conference, 981-991 (2016).
 LIBXSMM: Accelerating Small Matrix Multiplications by Runtime Code Generation.
 https://doi.org/10.1109/SC.2016.83

 U. Borstnik, J. VandeVondele, V. Weber, J. Hutter.
 Parallel Comput. 40, 47-58 (2014).
 Sparse matrix multiplication: The distributed block-compressed sparse row 
 library.
 https://doi.org/10.1016/j.parco.2014.03.012

 T. D. Kühne, M. Krack, F. R. Mohamed, M. Parrinello.
 Phys. Rev. Lett. 98, 066401 (2007).
 Efficient and accurate Car-Parrinello-like approach to Born-Oppenheimer 
 molecular dynamics.
 https://doi.org/10.1103/PhysRevLett.98.066401

 M. Frigo, S. G. Johnson.
 Proc. IEEE 93, 216-231 (2005).
 The design and implementation of FFTW3.
 https://doi.org/10.1109/JPROC.2004.840301

 J. Kolafa.
 J. Comput. Chem. 25, 335-342 (2004).
 Time-reversible always stable predictor-corrector method for molecular dynamics 
 of polarizable molecules.
 https://doi.org/10.1002/jcc.10385

 N. D. Mermin.
 Phys. Rev. 137, A1441-A1443 (1965).
 Thermal Properties of the Inhomogeneous Electron Gas.
 https://doi.org/10.1103/PhysRev.137.A1441


 -------------------------------------------------------------------------------
 -                                                                             -
 -                                T I M I N G                                  -
 -                                                                             -
 -------------------------------------------------------------------------------
 SUBROUTINE                       CALLS  ASD         SELF TIME        TOTAL TIME
                                MAXIMUM       AVERAGE  MAXIMUM  AVERAGE  MAXIMUM
 CP2K                                 1  1.0    0.002    0.002    0.324    0.324
 cp_geo_opt                           1  2.0    0.000    0.000    0.318    0.318
 geoopt_bfgs                          1  3.0    0.001    0.001    0.318    0.318
 cp_eval_at                          19  4.0    0.001    0.001    0.307    0.307
 qs_forces                           18  5.0    0.001    0.001    0.302    0.302
 qs_energies                         19  5.9    0.000    0.000    0.277    0.277
 scf_env_do_scf                      19  6.9    0.000    0.000    0.224    0.224
 scf_env_do_scf_inner_loop          243  8.0    0.024    0.024    0.223    0.223
 qs_scf_new_mos                     243  9.0    0.001    0.001    0.144    0.144
 cp_dbcsr_plus_fm_fm_t              279 10.9    0.001    0.001    0.073    0.073
 calculate_dm_sparse                261 10.0    0.000    0.000    0.069    0.069
 dbcsr_multiply_generic             359 12.0    0.004    0.004    0.064    0.064
 rebuild_ks_matrix                  261  9.8    0.000    0.000    0.055    0.055
 build_tblite_ks_matrix             261 10.8    0.051    0.051    0.055    0.055
 qs_ks_update_qs_env                243  9.0    0.000    0.000    0.045    0.045
 copy_dbcsr_to_fm                   566 10.5    0.001    0.001    0.043    0.043
 dbcsr_complete_redistribute       1204 12.2    0.022    0.022    0.039    0.039
 make_m2s                           718 13.0    0.002    0.002    0.036    0.036
 eigensolver                        243 10.0    0.002    0.002    0.031    0.031
 init_scf_run                        19  6.9    0.000    0.000    0.030    0.030
 cp_fm_syevd                        279 10.7    0.000    0.000    0.030    0.030
 build_tblite_matrices               37  7.0    0.014    0.014    0.029    0.029
 scf_env_initial_rho_setup           19  7.9    0.000    0.000    0.027    0.027
 wfi_extrapolate                     19  8.9    0.000    0.000    0.027    0.027
 qs_diis_b_step                     224 10.0    0.001    0.001    0.025    0.025
 cp_fm_syevd_base                   279 11.7    0.021    0.021    0.021    0.021
 copy_fm_to_dbcsr                   638 11.8    0.001    0.001    0.019    0.019
 cp_dbcsr_sm_fm_multiply             80 10.4    0.000    0.000    0.017    0.017
 qs_energies_init_hamiltonians       19  6.9    0.000    0.000    0.017    0.017
 make_images                        718 14.0    0.004    0.004    0.016    0.016
 tb_get_multipole                    37  8.0    0.010    0.010    0.014    0.014
 dbcsr_finalize                    6299 12.3    0.003    0.003    0.013    0.013
 multiply_cannon                    359 13.0    0.005    0.005    0.013    0.013
 qs_ks_update_qs_env_forces          18  6.0    0.000    0.000    0.012    0.012
 dbcsr_desymmetrize_deep            566 11.5    0.005    0.005    0.011    0.011
 dbcsr_create_new                  9112 13.1    0.008    0.008    0.010    0.010
 cp_dbcsr_sm_fm_multiply_core        80 11.4    0.000    0.000    0.010    0.010
 dbcsr_crop_matrix                  558 13.9    0.001    0.001    0.009    0.009
 dbcsr_copy_submatrix               558 14.9    0.002    0.002    0.007    0.007
 parallel_gemm_fm_gemm              626 10.6    0.000    0.000    0.007    0.007
 reorthogonalize_vectors             18  9.9    0.000    0.000    0.007    0.007
 cp_fm_gemm                         626 11.6    0.007    0.007    0.007    0.007
 make_basis_lowdin                   18 10.9    0.000    0.000    0.007    0.007
 dbcsr_merge_all                   2041 14.9    0.004    0.004    0.007    0.007
 -------------------------------------------------------------------------------

 The number of warnings for this run is : 0
 
 -------------------------------------------------------------------------------
  **** **** ******  **  PROGRAM ENDED AT                 2026-05-23 22:46:20.979
 ***** ** ***  *** **   PROGRAM RAN ON                                spark-c86c
 **    ****   ******    PROGRAM RAN BY                                  kuehne88
 ***** **    ** ** **   PROGRAM PROCESS ID                               2227120
  **** **  *******  **  PROGRAM STOPPED IN /home/kuehne88/periodic-gfn2-benchmar
                                           ks/X23b/runs/molecule_geoopt/GFN2/eth
                                           ylcarbamate_GFN2_mol_geoopt
