 DBCSR| CPU Multiplication driver                                           XSMM (U)
 DBCSR| Multrec recursion limit                                              512 (U)
 DBCSR| Multiplication stack size                                           1000 (D)
 DBCSR| Maximum elements for images                                    UNLIMITED (U)
 DBCSR| Multiplicative factor virtual images                                   1 (U)
 DBCSR| Use multiplication densification                                       T (D)
 DBCSR| Multiplication size stacks                                             3 (U)
 DBCSR| Use memory pool for CPU allocation                                     F (U)
 DBCSR| Number of 3D layers                                               SINGLE (U)
 DBCSR| Use MPI memory allocation                                              F (U)
 DBCSR| Use RMA algorithm                                                      F (U)
 DBCSR| Use Communication thread                                               T (U)
 DBCSR| Communication thread load                                             87 (D)
 DBCSR| MPI: My process id                                                     0
 DBCSR| MPI: Number of processes                                               1
 DBCSR| OMP: Current number of threads                                         1
 DBCSR| OMP: Max number of threads                                             1
 DBCSR| Split modifier for TAS multiplication algorithm                  1.0E+00 (U)


  **** **** ******  **  PROGRAM STARTED AT               2026-05-23 22:46:18.315
 ***** ** ***  *** **   PROGRAM STARTED ON                            spark-c86c
 **    ****   ******    PROGRAM STARTED BY                              kuehne88
 ***** **    ** ** **   PROGRAM PROCESS ID                               2222432
  **** **  *******  **  PROGRAM STARTED IN /home/kuehne88/periodic-gfn2-benchmar
                                           ks/X23b/runs/molecule_geoopt/GFN1/ben
                                           zene_GFN1_mol_geoopt

 CP2K| version string:                 CP2K version 2026.1 (Development Version)
 CP2K| source code revision number:                                   0622d442e4
 CP2K| cp2kflags: omp fftw3 libxc parallel scalapack mpi_f08 xsmm spglib libdftd
 CP2K|            4 dftd4_v3 mctc-lib tblite
 CP2K| is freely available from                            https://www.cp2k.org/
 CP2K| Program compiled at                                   2026-05-23 22:05:08
 CP2K| Program compiled on                                            spark-c86c
 CP2K| Program compiled for                                              aarch64
 CP2K| Data directory path    /home/kuehne88/cp2k-master-tblite-20260523/install
 CP2K| Input file name                               benzene_GFN1_mol_geoopt.inp

 GLOBAL| Force Environment number                                              1
 GLOBAL| Basis set file name                                           BASIS_SET
 GLOBAL| Potential file name                                           POTENTIAL
 GLOBAL| MM Potential file name                                     MM_POTENTIAL
 GLOBAL| Coordinate file name                                      __STD_INPUT__
 GLOBAL| Method name                                                        CP2K
 GLOBAL| Project name                                    benzene_GFN1_mol_geoopt
 GLOBAL| Run type                                                        GEO_OPT
 GLOBAL| FFT library                                                       FFTW3
 GLOBAL| Diagonalization library                                       ScaLAPACK
 GLOBAL| Cholesky decomposition library                                ScaLAPACK
 GLOBAL| DGEMM library                                                      BLAS
 GLOBAL| Direct generalized diagonalization requested                          F
 GLOBAL| Orthonormality check for eigenvectors                          DISABLED
 GLOBAL| Matrix multiplication library                                 ScaLAPACK
 GLOBAL| All-to-all communication in single precision                          F
 GLOBAL| FFTs using library dependent lengths                                  F
 GLOBAL| Grid backend                                                       AUTO
 GLOBAL| Global print level                                                  LOW
 GLOBAL| MPI I/O enabled                                                       T
 GLOBAL| Total number of message passing processes                             1
 GLOBAL| Number of distributed systems (nodes)                                 1
 GLOBAL| Number of threads for this process                                    1
 GLOBAL| This output is from process                                           0
 GLOBAL| OpenMP stack size per thread (OMP_STACKSIZE)                    default
 GLOBAL| CPU model name                                                  UNKNOWN
 GLOBAL| CPUID                                                              2200
 GLOBAL| Compiled for CPUID                                                 2000

 *** HINT in environment.F:970 :: The compiler target flags (arm_arch64)   ***
 *** used to build this binary cannot exploit all extensions of this CPU   ***
 *** model (arm_sve256). Consider compiler target flags as part of FCFLAGS ***
 *** and CFLAGS (ARCH file).                                               ***


 MEMORY| system memory details [Kb]
 MEMORY|                        rank 0           min           max       average
 MEMORY| MemTotal            125508532     125508532     125508532     125508532
 MEMORY| MemFree             105867140     105867140     105867140     105867140
 MEMORY| Buffers                865972        865972        865972        865972
 MEMORY| Cached               13214800      13214800      13214800      13214800
 MEMORY| Slab                  1565140       1565140       1565140       1565140
 MEMORY| SReclaimable           888284        888284        888284        888284
 MEMORY| MemLikelyFree       120836196     120836196     120836196     120836196


 GENERATE|  Preliminary Number of Bonds generated:                             0
 GENERATE|  Achieved consistency in connectivity generation.


                  #####   #####        #     #   #     #       #          
                 #     # #     #      #    ##### #     #   # #####  ####  
                 #     # #           #       #   ###   #       #   #    # 
                 #     #  #####     #        #   #  #  #   #   #   ###### 
                 #   # #       #   #         #   #   # #   #   #   #      
                 #    #  #     #  #          #   #  #  # # #   #    #   # 
                  #### #  #####  #           #   ###   ##  #   #     ###  

                                   GFN1-xTB  
                                 Version 0.0                       
                            Johann V. Pototschnig                  



 TOTAL NUMBERS AND MAXIMUM NUMBERS

  Total number of            - Atomic kinds:                                   2
                             - Atoms:                                         12
                             - Shell sets:                                    24
                             - Shells:                                        24
                             - Primitive Cartesian functions:                138
                             - Cartesian basis functions:                     36
                             - Spherical basis functions:                     36

  Maximum angular momentum of the orbital basis functions:                     1


 SCF PARAMETERS         Density guess:                                     MOPAC
                        --------------------------------------------------------
                        max_scf:                                             300
                        max_scf_history:                                       0
                        max_diis:                                              4
                        --------------------------------------------------------
                        eps_scf:                                        1.00E-09
                        eps_scf_history:                                0.00E+00
                        eps_diis:                                       1.00E-01
                        eps_eigval:                                     1.00E-05
                        --------------------------------------------------------
                        level_shift [a.u.]:                             0.000000
                        added MOs                                        21    0
                        --------------------------------------------------------
                        Mixing method:                           DIRECT_P_MIXING
                        --------------------------------------------------------
                        Smear method:                                FERMI_DIRAC
                        Electronic temperature [K]:                        300.0
                        Electronic temperature [a.u.]:                  9.50E-04
                        Accuracy threshold:                             1.00E-06
                        --------------------------------------------------------
                        No outer SCF

 BFGS| Use rational function optimization for step estimation:                NO
 BFGS| Use model Hessian for initial guess:                                  YES
 BFGS| Restart Hessian:                                                       NO
 BFGS| Trust radius:                                                       0.472

 *******************************************************************************
 ***                     STARTING GEOMETRY OPTIMIZATION                      ***
 ***                                   BFGS                                  ***
 *******************************************************************************

 Extrapolation method: initial_guess

 Number of electrons:                                                         30
 Number of occupied orbitals:                                                 15
 Number of molecular orbitals:                                                36

 Number of orbital functions:                                                 36
 Number of independent orbital functions:                                     36


 SCF WAVEFUNCTION OPTIMIZATION

  Step     Update method      Time    Convergence         Total energy    Change
  ------------------------------------------------------------------------------
     1 TBLite/Diag 0.40E+00    0.0     1.32160717       -15.8940425461 -1.59E+01
     2 TBLite/Diag 0.40E+00    0.0     0.00190800       -15.8940586601 -1.61E-05
     3 TBLite/Diag 0.40E+00    0.0     0.00103348       -15.8940588815 -2.21E-07
     4 TBLite/Diag 0.40E+00    0.0     0.00038453       -15.8940595066 -6.25E-07
     5 TBLite/Diag 0.40E+00    0.0     0.00009128       -15.8940595305 -2.39E-08
     6 TBLite/Diag 0.40E+00    0.0     0.00000006       -15.8940595305 -1.78E-14
     7 TBLite/Diag 0.40E+00    0.0     0.00000002       -15.8940595305  1.42E-14
     8 TBLite/Diag 0.40E+00    0.0     7.0303E-09       -15.8940595305 -1.07E-14
     9 TBLite/Diag 0.40E+00    0.0     7.3018E-11       -15.8940595305  7.11E-15

  *** SCF run converged in     9 steps ***


  Core Hamiltonian energy:                                    -16.17329836092263
  Repulsive potential energy:                                   0.28327561587501
  Electrostatic energy:                                         0.00061052604424
  Self-consistent dispersion energy:                            0.00000000000000
  Non-self consistent dispersion energy:                       -0.00464731147556
  Correction for halogen bonding:                               0.00000000000000
  Electronic entropic energy:                                  -0.00000000000000
  Fermi energy:                                                -0.29457901030977

  Total energy:                                               -15.89405953047893
  Total energy (extrapolated to T->0):                        -15.89405953047893

 ENERGY| Total FORCE_EVAL ( QS ) energy [hartree]            -15.894059530478932

 OPT| **************************************************************************
 OPT| Step number                                                              0
 OPT| Optimization method                                                   BFGS
 OPT| Total energy [hartree]                                      -15.8940595305
 OPT| Used time [s]                                                        0.010
 OPT| **************************************************************************
 OPT| Estimated peak process memory [MiB]                                    166

 --------------------------
 OPTIMIZATION STEP:      1
 --------------------------

 Extrapolation method: ASPC

 Number of electrons:                                                         30
 Number of occupied orbitals:                                                 15
 Number of molecular orbitals:                                                36

 Number of orbital functions:                                                 36
 Number of independent orbital functions:                                     36


 SCF WAVEFUNCTION OPTIMIZATION

  Step     Update method      Time    Convergence         Total energy    Change
  ------------------------------------------------------------------------------
     1 TBLite/Diag 0.40E+00    0.0     0.00639688       -15.8946317531 -1.59E+01
     2 TBLite/Diag 0.40E+00    0.0     0.00027944       -15.8946321170 -3.64E-07
     3 TBLite/Diag 0.40E+00    0.0     0.00015379       -15.8946321272 -1.02E-08
     4 TBLite/Diag 0.40E+00    0.0     0.00006488       -15.8946321392 -1.20E-08
     5 TBLite/Diag 0.40E+00    0.0     0.00000012       -15.8946321392 -2.49E-14
     6 TBLite/Diag 0.40E+00    0.0     0.00000005       -15.8946321392  3.55E-15
     7 TBLite/Diag 0.40E+00    0.0     0.00000002       -15.8946321392  5.33E-15
     8 TBLite/Diag 0.40E+00    0.0     8.3882E-10       -15.8946321392  5.33E-15

  *** SCF run converged in     8 steps ***


  Core Hamiltonian energy:                                    -16.18467296311935
  Repulsive potential energy:                                   0.29408636147690
  Electrostatic energy:                                         0.00060781283822
  Self-consistent dispersion energy:                            0.00000000000000
  Non-self consistent dispersion energy:                       -0.00465335040593
  Correction for halogen bonding:                               0.00000000000000
  Electronic entropic energy:                                  -0.00000000000000
  Fermi energy:                                                -0.29253694368410

  Total energy:                                               -15.89463213921016
  Total energy (extrapolated to T->0):                        -15.89463213921016

 ENERGY| Total FORCE_EVAL ( QS ) energy [hartree]            -15.894632139210161

 OPT| **************************************************************************
 OPT| Step number                                                              1
 OPT| Optimization method                                                   BFGS
 OPT| Total energy [hartree]                                      -15.8946321392
 OPT| Effective energy change [hartree]                            -0.0005726087
 OPT| Predicted energy change [hartree]                            -0.0004671126
 OPT| Scaling factor                                                0.0000000000
 OPT| Step size                                                     0.0177073919
 OPT| Trust radius                                                  0.4724315332
 OPT| Decrease in energy                                                     YES
 OPT| Used time [s]                                                        0.010
 OPT|
 OPT| Maximum step size                                             0.0177073919
 OPT| Convergence limit for maximum step size                       0.0030000000
 OPT| Maximum step size is converged                                          NO
 OPT|
 OPT| RMS step size                                                 0.0093882115
 OPT| Convergence limit for RMS step size                           0.0015000000
 OPT| RMS step size is converged                                              NO
 OPT|
 OPT| Maximum gradient                                              0.0020867183
 OPT| Convergence limit for maximum gradient                        0.0004500000
 OPT| Maximum gradient is converged                                           NO
 OPT|
 OPT| RMS gradient                                                  0.0008566651
 OPT| Convergence limit for RMS gradient                            0.0003000000
 OPT| RMS gradient is converged                                               NO
 OPT| **************************************************************************
 OPT| Estimated peak process memory after this step [MiB]                    166

 --------------------------
 OPTIMIZATION STEP:      2
 --------------------------

 Extrapolation method: ASPC

 Number of electrons:                                                         30
 Number of occupied orbitals:                                                 15
 Number of molecular orbitals:                                                36

 Number of orbital functions:                                                 36
 Number of independent orbital functions:                                     36


 SCF WAVEFUNCTION OPTIMIZATION

  Step     Update method      Time    Convergence         Total energy    Change
  ------------------------------------------------------------------------------
     1 TBLite/Diag 0.40E+00    0.0     0.00176732       -15.8946606335 -1.59E+01
     2 TBLite/Diag 0.40E+00    0.0     0.00009202       -15.8946606730 -3.95E-08
     3 TBLite/Diag 0.40E+00    0.0     0.00004829       -15.8946606744 -1.35E-09
     4 TBLite/Diag 0.40E+00    0.0     0.00001922       -15.8946606754 -1.06E-09
     5 TBLite/Diag 0.40E+00    0.0     0.00000005       -15.8946606754 -1.07E-14
     6 TBLite/Diag 0.40E+00    0.0     0.00000001       -15.8946606754 -1.07E-14
     7 TBLite/Diag 0.40E+00    0.0     4.0069E-09       -15.8946606754 -1.78E-15
     8 TBLite/Diag 0.40E+00    0.0     6.0023E-11       -15.8946606754  1.07E-14

  *** SCF run converged in     8 steps ***


  Core Hamiltonian energy:                                    -16.18772452182936
  Repulsive potential energy:                                   0.29711171625946
  Electrostatic energy:                                         0.00060696068984
  Self-consistent dispersion energy:                            0.00000000000000
  Non-self consistent dispersion energy:                       -0.00465483056841
  Correction for halogen bonding:                               0.00000000000000
  Electronic entropic energy:                                  -0.00000000000000
  Fermi energy:                                                -0.29194780086820

  Total energy:                                               -15.89466067544848
  Total energy (extrapolated to T->0):                        -15.89466067544848

 ENERGY| Total FORCE_EVAL ( QS ) energy [hartree]            -15.894660675448478

 OPT| **************************************************************************
 OPT| Step number                                                              2
 OPT| Optimization method                                                   BFGS
 OPT| Total energy [hartree]                                      -15.8946606754
 OPT| Effective energy change [hartree]                            -0.0000285362
 OPT| Predicted energy change [hartree]                            -0.0000292514
 OPT| Scaling factor                                                0.0000000000
 OPT| Step size                                                     0.0046786417
 OPT| Trust radius                                                  0.4724315332
 OPT| Decrease in energy                                                     YES
 OPT| Used time [s]                                                        0.010
 OPT|
 OPT| Maximum step size                                             0.0046786417
 OPT| Convergence limit for maximum step size                       0.0030000000
 OPT| Maximum step size is converged                                          NO
 OPT|
 OPT| RMS step size                                                 0.0025718452
 OPT| Convergence limit for RMS step size                           0.0015000000
 OPT| RMS step size is converged                                              NO
 OPT|
 OPT| Maximum gradient                                              0.0000602408
 OPT| Convergence limit for maximum gradient                        0.0004500000
 OPT| Maximum gradient is converged                                          YES
 OPT|
 OPT| RMS gradient                                                  0.0000273254
 OPT| Convergence limit for RMS gradient                            0.0003000000
 OPT| RMS gradient is converged                                              YES
 OPT| **************************************************************************
 OPT| Estimated peak process memory after this step [MiB]                    167

 --------------------------
 OPTIMIZATION STEP:      3
 --------------------------

 Extrapolation method: ASPC

 Number of electrons:                                                         30
 Number of occupied orbitals:                                                 15
 Number of molecular orbitals:                                                36

 Number of orbital functions:                                                 36
 Number of independent orbital functions:                                     36


 SCF WAVEFUNCTION OPTIMIZATION

  Step     Update method      Time    Convergence         Total energy    Change
  ------------------------------------------------------------------------------
     1 TBLite/Diag 0.40E+00    0.0     0.00011117       -15.8946607218 -1.59E+01
     2 TBLite/Diag 0.40E+00    0.0     0.00000112       -15.8946607218 -4.53E-12
     3 TBLite/Diag 0.40E+00    0.0     0.00000073       -15.8946607218 -9.06E-14
     4 TBLite/Diag 0.40E+00    0.0     0.00000029       -15.8946607218 -1.99E-13
     5 TBLite/Diag 0.40E+00    0.0     0.00000001       -15.8946607218  3.55E-15
     6 TBLite/Diag 0.40E+00    0.0     5.8036E-09       -15.8946607218 -3.55E-15
     7 TBLite/Diag 0.40E+00    0.0     1.5129E-09       -15.8946607218  8.88E-15
     8 TBLite/Diag 0.40E+00    0.0     2.1684E-11       -15.8946607218 -5.33E-15

  *** SCF run converged in     8 steps ***


  Core Hamiltonian energy:                                    -16.18760727336222
  Repulsive potential energy:                                   0.29699438409778
  Electrostatic energy:                                         0.00060693151519
  Self-consistent dispersion energy:                            0.00000000000000
  Non-self consistent dispersion energy:                       -0.00465476402654
  Correction for halogen bonding:                               0.00000000000000
  Electronic entropic energy:                                  -0.00000000000000
  Fermi energy:                                                -0.29196263575617

  Total energy:                                               -15.89466072177579
  Total energy (extrapolated to T->0):                        -15.89466072177579

 ENERGY| Total FORCE_EVAL ( QS ) energy [hartree]            -15.894660721775788

 OPT| **************************************************************************
 OPT| Step number                                                              3
 OPT| Optimization method                                                   BFGS
 OPT| Total energy [hartree]                                      -15.8946607218
 OPT| Effective energy change [hartree]                            -0.0000000463
 OPT| Predicted energy change [hartree]                            -0.0000000416
 OPT| Scaling factor                                                0.0000000000
 OPT| Step size                                                     0.0002238820
 OPT| Trust radius                                                  0.4724315332
 OPT| Decrease in energy                                                     YES
 OPT| Used time [s]                                                        0.010
 OPT|
 OPT| Maximum step size                                             0.0002238820
 OPT| Convergence limit for maximum step size                       0.0030000000
 OPT| Maximum step size is converged                                         YES
 OPT|
 OPT| RMS step size                                                 0.0001042430
 OPT| Convergence limit for RMS step size                           0.0015000000
 OPT| RMS step size is converged                                             YES
 OPT|
 OPT| Maximum gradient                                              0.0000256370
 OPT| Convergence limit for maximum gradient                        0.0004500000
 OPT| Maximum gradient is converged                                          YES
 OPT|
 OPT| RMS gradient                                                  0.0000123791
 OPT| Convergence limit for RMS gradient                            0.0003000000
 OPT| RMS gradient is converged                                              YES
 OPT| **************************************************************************
 OPT| Estimated peak process memory after this step [MiB]                    167

 *******************************************************************************
 ***                    GEOMETRY OPTIMIZATION COMPLETED                      ***
 *******************************************************************************

 write_final_structure: Optimization converged, writing XYZ file gladly:
  benzene_GFN1_mol_geoopt-FINAL-1_3.xyz

 write_final_structure: Optimization converged, writing CIF file gladly:
  benzene_GFN1_mol_geoopt-FINAL-1_3.cif

 write_final_structure: Done!

                    Reevaluating energy at the minimum

 Extrapolation method: ASPC

 Number of electrons:                                                         30
 Number of occupied orbitals:                                                 15
 Number of molecular orbitals:                                                36

 Number of orbital functions:                                                 36
 Number of independent orbital functions:                                     36


 SCF WAVEFUNCTION OPTIMIZATION

  Step     Update method      Time    Convergence         Total energy    Change
  ------------------------------------------------------------------------------
     1 TBLite/Diag 0.40E+00    0.0     1.3045E-12       -15.8946607218 -1.59E+01

  *** SCF run converged in     1 steps ***


  Core Hamiltonian energy:                                    -16.18760727336223
  Repulsive potential energy:                                   0.29699438409778
  Electrostatic energy:                                         0.00060693151519
  Self-consistent dispersion energy:                            0.00000000000000
  Non-self consistent dispersion energy:                       -0.00465476402654
  Correction for halogen bonding:                               0.00000000000000
  Electronic entropic energy:                                  -0.00000000000000
  Fermi energy:                                                -0.29196263575617

  Total energy:                                               -15.89466072177579
  Total energy (extrapolated to T->0):                        -15.89466072177579

 ENERGY| Total FORCE_EVAL ( QS ) energy [hartree]            -15.894660721775791

 -------------------------------------------------------------------------------
 -                                                                             -
 -                                DBCSR STATISTICS                             -
 -                                                                             -
 -------------------------------------------------------------------------------
 COUNTER                                    TOTAL       BLAS       SMM       ACC
 flops     2 x     4 x     2                11520       0.0%    100.0%      0.0%     
 flops     4 x     4 x     2                23040       0.0%    100.0%      0.0%     
 flops     2 x     4 x     4                23040       0.0%    100.0%      0.0%     
 flops     4 x     4 x     4                46080       0.0%    100.0%      0.0%     
 flops     2 x    32 x     2                92160       0.0%    100.0%      0.0%     
 flops     4 x    32 x     2               184320       0.0%    100.0%      0.0%     
 flops     2 x    32 x     4               184320       0.0%    100.0%      0.0%     
 flops     2 x     2 x    36               254016       0.0%    100.0%      0.0%     
 flops     4 x    32 x     4               368640       0.0%    100.0%      0.0%     
 flops     4 x     2 x    36               435456       0.0%    100.0%      0.0%     
 flops     2 x     4 x    36               435456       0.0%    100.0%      0.0%     
 flops     4 x     4 x    36              1016064       0.0%    100.0%      0.0%     
 flops inhomo. stacks                           0       0.0%      0.0%      0.0%
 flops total                         3.074112E+06       0.0%    100.0%      0.0%
 flops max/rank                      3.074112E+06       0.0%    100.0%      0.0%
 matmuls inhomo. stacks                         0       0.0%      0.0%      0.0%
 matmuls total                               6156       0.0%    100.0%      0.0%
 number of processed stacks                   248       0.0%    100.0%      0.0%
 average stack size                                     0.0      24.8       0.0
 marketing flops                     2.566080E+06
 -------------------------------------------------------------------------------
 # multiplications                             52
 max memory usage/rank              13.671338E+09
 # max total images/rank                        1
 # max 3D layers                                1
 # MPI messages exchanged                       0
 -------------------------------------------------------------------------------
 -                                                                             -
 -                      DBCSR MESSAGE PASSING PERFORMANCE                      -
 -                                                                             -
 -------------------------------------------------------------------------------
 ROUTINE             CALLS      AVE VOLUME [Bytes]
 MP_Bcast               13                     12.
 MP_Allreduce          283                     11.
 MP_Alltoall          1698                   7062.
 MP_ISend              208                    711.
 MP_IRecv              208                    711.
 -------------------------------------------------------------------------------

 -------------------------------------------------------------------------------
 -                                                                             -
 -                          OFFLOAD MEMPOOL STATISTICS                         -
 -                                                                             -
 -------------------------------------------------------------------------------
 Memory consumption                Number of allocations  Used [MiB]  Size [MiB]
 Device                                                1           0           0
 Host                                                  1           0           0
 -------------------------------------------------------------------------------

 MEMORY| Estimated peak process memory [MiB]                                 167

 -------------------------------------------------------------------------------
 -                                                                             -
 -                         MESSAGE PASSING PERFORMANCE                         -
 -                                                                             -
 -------------------------------------------------------------------------------

 ROUTINE             CALLS      AVE VOLUME [Bytes]
 MP_Group                1
 MP_Bcast               79                    155.
 MP_Allreduce          613                     98.
 MP_Sync                43
 MP_comm_split          42
 -------------------------------------------------------------------------------


 -------------------------------------------------------------------------------
 -                                                                             -
 -                           R E F E R E N C E S                               -
 -                                                                             -
 -------------------------------------------------------------------------------
 
 CP2K version 2026.1 (Development Version), the CP2K developers group (2026).
 CP2K is freely available from https://www.cp2k.org/ .
 
 M. Iannuzzi, J. Wilhelm, F. Stein, A. Bussy, H. Elgabarty, D. Golze, A. Hehn, 
 M. Graml, S. Marek, B. Sertcan Gökmen, C. Schran, H. Forbert, R. Z. 
 Khaliullin, A. Kozhevnikov, M. Taillefumier, R. Meli, V. V. Rybkin, M. Brehm, 
 R. Schade, O. Schütt, J. V. Pototschnig, H. Mirhosseini, A. Knüpfer, D. Marx, 
 M. Krack, J. Hutter, T. D. Kühne.
 J. Phys. Chem. B 130, 1237-1310 (2026).
 The CP2K Program Package Made Simple.
 https://doi.org/10.1021/acs.jpcb.5c05851

 A. Katbashev, M. Stahn, T. Rose, V. Alizadeh, M. Friede, C. Plett, P. 
 Steinbach, S. Ehlert.
 J. Phys. Chem. A 129, 2667-2682 (2025).
 Overview on Building Blocks and Applications of Efficient and Robust Extended 
 Tight Binding.
 https://doi.org/10.1021/acs.jpca.4c08263

 T. D. Kühne, M. Iannuzzi, M. Del Ben, V. V. Rybkin, P. Seewald, F. Stein, T. 
 Laino, R. Z. Khaliullin, O. Schütt, F. Schiffmann, D. Golze, J. Wilhelm, S. 
 Chulkov, M. H. Bani-Hashemian, V. Weber, U. Borstnik, M. Taillefumier, A. S. 
 Jakobovits, A. Lazzaro, H. Pabst, T. Müller, R. Schade, M. Guidon, S. 
 Andermatt, N. Holmberg, G. K. Schenter, A. Hehn, A. Bussy, F. Belleflamme, G. 
 Tabacchi, A. Glöß, M. Lass, I. Bethune, C. J. Mundy, C. Plessl, M. Watkins, 
 J. VandeVondele, M. Krack, J. Hutter.
 J. Chem. Phys. 152, 194103 (2020).
 CP2K: An electronic structure and molecular dynamics software package - 
 Quickstep: Efficient and accurate electronic structure calculations.
 https://doi.org/10.1063/5.0007045

 P. Pracht, E. Caldeweyher, S. Ehlert, S. Grimme.
 ChemRxiv, (2019).
 A Robust Non-Self-Consistent Tight-Binding Quantum Chemistry Method for large 
 Molecules.
 https://doi.org/10.26434/chemrxiv.8326202.v1

 S. Grimme, C. Bannwarth, P. Shushkov.
 J. Chem. Theory Comput. 13, 1989 (2017).
 A Robust and Accurate Tight-Binding Quantum Chemical Method for Structures, 
 Vibrational Frequencies, and Noncovalent Interactions of Large Molecular 
 Systems Parametrized for All spd-Block Elements (Z = 1-86).
 https://doi.org/10.1021/acs.jctc.7b00118

 O. Schuett, P. Messmer, J. Hutter, J. VandeVondele.
 Electronic Structure Calculations on Graphics Processing Units, 173-190 (2016).
 GPU-Accelerated Sparse Matrix-Matrix Multiplication for Linear Scaling Density 
 Functional Theory.
 https://doi.org/10.1002/9781118670712.ch8

 A. Heinecke, G. Henry, M. Hutchinson, H. Pabst.
 Proceedings of Intl. Supercomputing Conference, 981-991 (2016).
 LIBXSMM: Accelerating Small Matrix Multiplications by Runtime Code Generation.
 https://doi.org/10.1109/SC.2016.83

 U. Borstnik, J. VandeVondele, V. Weber, J. Hutter.
 Parallel Comput. 40, 47-58 (2014).
 Sparse matrix multiplication: The distributed block-compressed sparse row 
 library.
 https://doi.org/10.1016/j.parco.2014.03.012

 T. D. Kühne, M. Krack, F. R. Mohamed, M. Parrinello.
 Phys. Rev. Lett. 98, 066401 (2007).
 Efficient and accurate Car-Parrinello-like approach to Born-Oppenheimer 
 molecular dynamics.
 https://doi.org/10.1103/PhysRevLett.98.066401

 M. Frigo, S. G. Johnson.
 Proc. IEEE 93, 216-231 (2005).
 The design and implementation of FFTW3.
 https://doi.org/10.1109/JPROC.2004.840301

 J. Kolafa.
 J. Comput. Chem. 25, 335-342 (2004).
 Time-reversible always stable predictor-corrector method for molecular dynamics 
 of polarizable molecules.
 https://doi.org/10.1002/jcc.10385

 N. D. Mermin.
 Phys. Rev. 137, A1441-A1443 (1965).
 Thermal Properties of the Inhomogeneous Electron Gas.
 https://doi.org/10.1103/PhysRev.137.A1441


 -------------------------------------------------------------------------------
 -                                                                             -
 -                                T I M I N G                                  -
 -                                                                             -
 -------------------------------------------------------------------------------
 SUBROUTINE                       CALLS  ASD         SELF TIME        TOTAL TIME
                                MAXIMUM       AVERAGE  MAXIMUM  AVERAGE  MAXIMUM
 CP2K                                 1  1.0    0.002    0.002    0.050    0.050
 cp_geo_opt                           1  2.0    0.000    0.000    0.044    0.044
 geoopt_bfgs                          1  3.0    0.000    0.000    0.044    0.044
 cp_eval_at                           5  4.0    0.000    0.000    0.041    0.041
 qs_forces                            4  5.0    0.000    0.000    0.038    0.038
 qs_energies                          5  5.8    0.000    0.000    0.033    0.033
 scf_env_do_scf                       5  6.8    0.000    0.000    0.024    0.024
 scf_env_do_scf_inner_loop           34  8.0    0.001    0.001    0.023    0.023
 qs_scf_new_mos                      34  9.0    0.000    0.000    0.020    0.020
 cp_dbcsr_plus_fm_fm_t               42 10.8    0.000    0.000    0.011    0.011
 calculate_dm_sparse                 38  9.9    0.000    0.000    0.010    0.010
 dbcsr_multiply_generic              52 11.9    0.001    0.001    0.010    0.010
 rebuild_ks_matrix                   38  9.7    0.000    0.000    0.006    0.006
 copy_dbcsr_to_fm                    78 10.4    0.000    0.000    0.006    0.006
 build_tblite_ks_matrix              38 10.7    0.006    0.006    0.006    0.006
 dbcsr_complete_redistribute        172 12.1    0.003    0.003    0.006    0.006
 build_tblite_matrices                9  7.0    0.005    0.005    0.005    0.005
 make_m2s                           104 12.9    0.000    0.000    0.005    0.005
 init_scf_run                         5  6.8    0.000    0.000    0.005    0.005
 qs_ks_update_qs_env_forces           4  6.0    0.000    0.000    0.005    0.005
 scf_env_initial_rho_setup            5  7.8    0.000    0.000    0.005    0.005
 wfi_extrapolate                      5  8.8    0.000    0.000    0.004    0.004
 cp_fm_syevd                         42 10.5    0.000    0.000    0.004    0.004
 eigensolver                         34 10.0    0.000    0.000    0.004    0.004
 qs_init_subsys                       1  2.0    0.001    0.001    0.004    0.004
 cp_fm_syevd_base                    42 11.5    0.003    0.003    0.003    0.003
 qs_diis_b_step                      29 10.0    0.000    0.000    0.003    0.003
 copy_fm_to_dbcsr                    94 11.7    0.000    0.000    0.003    0.003
 qs_energies_init_hamiltonians        5  6.8    0.000    0.000    0.003    0.003
 cp_dbcsr_sm_fm_multiply             10 10.4    0.000    0.000    0.002    0.002
 make_images                        104 13.9    0.001    0.001    0.002    0.002
 multiply_cannon                     52 12.9    0.001    0.001    0.002    0.002
 dbcsr_finalize                     674 13.1    0.000    0.000    0.002    0.002
 reorthogonalize_vectors              4  9.8    0.000    0.000    0.002    0.002
 make_basis_lowdin                    4 10.8    0.000    0.000    0.002    0.002
 qs_env_setup                         1  3.0    0.000    0.000    0.001    0.001
 dbcsr_desymmetrize_deep             78 11.4    0.001    0.001    0.001    0.001
 dbcsr_crop_matrix                   84 13.8    0.000    0.000    0.001    0.001
 cp_dbcsr_sm_fm_multiply_core        10 11.4    0.000    0.000    0.001    0.001
 qs_env_rebuild_pw_env               10  6.2    0.000    0.000    0.001    0.001
 pw_env_rebuild                       1  5.0    0.000    0.000    0.001    0.001
 dbcsr_create_new                  1249 13.3    0.001    0.001    0.001    0.001
 qs_ks_update_qs_env                 34  9.0    0.000    0.000    0.001    0.001
 dbcsr_copy_submatrix                84 14.8    0.000    0.000    0.001    0.001
 compute_matrix_w                     5  6.8    0.000    0.000    0.001    0.001
 calculate_w_matrix_1                 4  8.0    0.000    0.000    0.001    0.001
 pw_grid_setup                        1  6.0    0.000    0.000    0.001    0.001
 pw_grid_setup_internal               1  7.0    0.000    0.000    0.001    0.001
 dbcsr_merge_all                    298 14.8    0.001    0.001    0.001    0.001
 -------------------------------------------------------------------------------

 The number of warnings for this run is : 0
 
 -------------------------------------------------------------------------------
  **** **** ******  **  PROGRAM ENDED AT                 2026-05-23 22:46:19.605
 ***** ** ***  *** **   PROGRAM RAN ON                                spark-c86c
 **    ****   ******    PROGRAM RAN BY                                  kuehne88
 ***** **    ** ** **   PROGRAM PROCESS ID                               2222432
  **** **  *******  **  PROGRAM STOPPED IN /home/kuehne88/periodic-gfn2-benchmar
                                           ks/X23b/runs/molecule_geoopt/GFN1/ben
                                           zene_GFN1_mol_geoopt
