 DBCSR| CPU Multiplication driver                                           BLAS (U)
 DBCSR| Multrec recursion limit                                              512 (U)
 DBCSR| Multiplication stack size                                           1000 (D)
 DBCSR| Maximum elements for images                                    UNLIMITED (U)
 DBCSR| Multiplicative factor virtual images                                   1 (U)
 DBCSR| Use multiplication densification                                       T (D)
 DBCSR| Multiplication size stacks                                             3 (U)
 DBCSR| Use memory pool for CPU allocation                                     F (U)
 DBCSR| Number of 3D layers                                               SINGLE (U)
 DBCSR| Use MPI memory allocation                                              F (U)
 DBCSR| Use RMA algorithm                                                      F (U)
 DBCSR| Use Communication thread                                               T (U)
 DBCSR| Communication thread load                                             87 (D)
 DBCSR| MPI: My process id                                                     0
 DBCSR| MPI: Number of processes                                               1
 DBCSR| OMP: Current number of threads                                         1
 DBCSR| OMP: Max number of threads                                             1
 DBCSR| Split modifier for TAS multiplication algorithm                  1.0E+00 (U)


  **** **** ******  **  PROGRAM STARTED AT               2026-07-16 21:42:53.069
 ***** ** ***  *** **   PROGRAM STARTED ON        MacBook-Pro-von-Thomas-3.local
 **    ****   ******    PROGRAM STARTED BY                               tkuehne
 ***** **    ** ** **   PROGRAM PROCESS ID                                 43817
  **** **  *******  **  PROGRAM STARTED IN /private/tmp/cp2k-crossmesh-independe
                                           nt-review/modes/legacy_default

 CP2K| version string:                 CP2K version 2026.1 (Development Version)
 CP2K| source code revision number:                                   28df9380ab
 CP2K| cp2kflags: lsan omp parallel scalapack no_statm_access has_ieee_exception
 CP2K|            s s_dftd3 mctc-lib tblite tblite_gxtb check_diag
 CP2K| is freely available from                            https://www.cp2k.org/
 CP2K| Program compiled at                                   2026-07-16 21:40:31
 CP2K| Program compiled on                                                      
 CP2K| Program compiled for                                                arm64
 CP2K| Data directory path         /private/tmp/cp2k_gxtb_crossmesh_restart/data
 CP2K| Input file name                                                  test.inp

 GLOBAL| Force Environment number                                              1
 GLOBAL| Basis set file name                                      GTH_BASIS_SETS
 GLOBAL| Potential file name                                           POTENTIAL
 GLOBAL| MM Potential file name                                     MM_POTENTIAL
 GLOBAL| Coordinate file name                                      __STD_INPUT__
 GLOBAL| Method name                                                        CP2K
 GLOBAL| Project name                                          H_SYM_RED_RESTART
 GLOBAL| Run type                                                         ENERGY
 GLOBAL| FFT library                                                       FFTW3
 GLOBAL| Diagonalization library                                       ScaLAPACK
 GLOBAL| Cholesky decomposition library                                ScaLAPACK
 GLOBAL| DGEMM library                                                      BLAS
 GLOBAL| Direct generalized diagonalization requested                          F
 GLOBAL| Orthonormality check for eigenvectors enabled                 5.000E-14
 GLOBAL| Matrix multiplication library                                 ScaLAPACK
 GLOBAL| All-to-all communication in single precision                          F
 GLOBAL| FFTs using library dependent lengths                                  F
 GLOBAL| Grid backend                                                       AUTO
 GLOBAL| Global print level                                                  LOW
 GLOBAL| MPI I/O enabled                                                       T
 GLOBAL| Total number of message passing processes                             1
 GLOBAL| Number of distributed systems (nodes)                                 1
 GLOBAL| Number of threads for this process                                    1
 GLOBAL| This output is from process                                           0
 GLOBAL| OpenMP stack size per thread (OMP_STACKSIZE)                    default
 GLOBAL| CPU model name                                                  UNKNOWN
 GLOBAL| CPUID                                                              2000

 MEMORY| system memory details [Kb]
 MEMORY|                        rank 0           min           max       average
 MEMORY| MemTotal                    0             0             0             0
 MEMORY| MemFree                     0             0             0             0
 MEMORY| Buffers                     0             0             0             0
 MEMORY| Cached                      0             0             0             0
 MEMORY| Slab                        0             0             0             0
 MEMORY| SReclaimable                0             0             0             0
 MEMORY| MemLikelyFree               0             0             0             0


 *** WARNING in environment.F:1095 :: FFT library FFTW3 is not available. ***
 *** Trying FFT library FFTSG.                                            ***


 GENERATE|  Preliminary Number of Bonds generated:                             0
 GENERATE|  Achieved consistency in connectivity generation.

 *** WARNING in cryssym.F:203 :: Symmetry library SPGLIB not available ***


 *******************************************************************************
 *******************************************************************************
 **                                                                           **
 **     #####                         ##              ##                      **
 **    ##   ##            ##          ##              ##                      **
 **   ##     ##                       ##            ######                    **
 **   ##     ##  ##   ##  ##   #####  ##  ##   ####   ##    #####    #####    **
 **   ##     ##  ##   ##  ##  ##      ## ##   ##      ##   ##   ##  ##   ##   **
 **   ##  ## ##  ##   ##  ##  ##      ####     ###    ##   ######   ######    **
 **    ##  ###   ##   ##  ##  ##      ## ##      ##   ##   ##       ##        **
 **     #######   #####   ##   #####  ##  ##  ####    ##    #####   ##        **
 **           ##                                                    ##        **
 **                                                                           **
 **                                                ... make the atoms dance   **
 **                                                                           **
 **            Copyright (C) by CP2K developers group (2000-2026)             **
 **                      J. Chem. Phys. 152, 194103 (2020)                    **
 **                                                                           **
 *******************************************************************************


 TOTAL NUMBERS AND MAXIMUM NUMBERS

  Total number of            - Atomic kinds:                                   1
                             - Atoms:                                          8
                             - Shell sets:                                     8
                             - Shells:                                         8
                             - Primitive Cartesian functions:                 32
                             - Cartesian basis functions:                      8
                             - Spherical basis functions:                      8

  Maximum angular momentum of- Orbital basis functions:                        0
                             - Local part of the GTH pseudopotential:          2


 SCF PARAMETERS         Density guess:                                   RESTART
                        --------------------------------------------------------
                        max_scf:                                              20
                        max_scf_history:                                       0
                        max_diis:                                              4
                        --------------------------------------------------------
                        eps_scf:                                        1.00E-08
                        eps_scf_history:                                0.00E+00
                        eps_diis:                                       1.00E-01
                        eps_eigval:                                     1.00E-08
                        --------------------------------------------------------
                        level_shift [a.u.]:                             0.000000
                        --------------------------------------------------------
                        Mixing method:                            BROYDEN_MIXING
                                                charge density mixing in g-space
                        --------------------------------------------------------
                        No outer SCF

 Extrapolation method: initial_guess
 KPOINT_RESTART| Legacy-compatible restart accepted

 Number of electrons:                                                          8
 Number of occupied orbitals:                                                  4
 Number of molecular orbitals:                                                 4

 Number of orbital functions:                                                  8
 Number of independent orbital functions:                                      8


 SCF WAVEFUNCTION OPTIMIZATION

  Step     Update method      Time    Convergence         Total energy    Change
  ------------------------------------------------------------------------------
     1 NoMix/Diag. 0.50E+00    0.1     9.9907E-10        -4.3491664731 -4.35E+00

  *** SCF run converged in     1 steps ***


  Electronic density on regular grids:         -8.0000000013       -0.0000000013
  Core density on regular grids:                8.0000000073        0.0000000073
  Total charge density on r-space grids:        0.0000000060
  Total charge density g-space grids:           0.0000000060

  Overlap energy of the core charge distribution:               0.00000000000000
  Self energy of the core charge distribution:                -11.28379167095513
  Core Hamiltonian energy:                                      3.10470076630487
  Hartree energy:                                               6.20533921149342
  Exchange-correlation energy:                                 -2.37541477996794

  Total energy:                                                -4.34916647312478

 ENERGY| Total FORCE_EVAL ( QS ) energy [hartree]             -4.349166473124775

 -------------------------------------------------------------------------------
 -                                                                             -
 -                                DBCSR STATISTICS                             -
 -                                                                             -
 -------------------------------------------------------------------------------
 COUNTER                                    TOTAL       BLAS       SMM       ACC
 flops inhomo. stacks                           0       0.0%      0.0%      0.0%
 flops total                         0.000000E+00       0.0%      0.0%      0.0%
 flops max/rank                      0.000000E+00       0.0%      0.0%      0.0%
 matmuls inhomo. stacks                         0       0.0%      0.0%      0.0%
 matmuls total                                  0       0.0%      0.0%      0.0%
 number of processed stacks                     0       0.0%      0.0%      0.0%
 average stack size                                     0.0       0.0       0.0
 marketing flops                     0.000000E+00
 -------------------------------------------------------------------------------
 -                                                                             -
 -                      DBCSR MESSAGE PASSING PERFORMANCE                      -
 -                                                                             -
 -------------------------------------------------------------------------------
 ROUTINE             CALLS      AVE VOLUME [Bytes]
 MP_Bcast                1                     12.
 MP_Allreduce           19                     21.
 MP_Alltoall          1233                    780.
 -------------------------------------------------------------------------------

 -------------------------------------------------------------------------------
 -                                                                             -
 -                                GRID STATISTICS                              -
 -                                                                             -
 -------------------------------------------------------------------------------
 LP    KERNEL             BACKEND                              COUNT     PERCENT
 0     collocate ortho    CPU                                  16140      66.64%
 0     integrate ortho    CPU                                   8070      33.32%
 0     collocate general  CPU                                      8       0.03%
 -------------------------------------------------------------------------------

 -------------------------------------------------------------------------------
 -                                                                             -
 -                          OFFLOAD MEMPOOL STATISTICS                         -
 -                                                                             -
 -------------------------------------------------------------------------------
 Memory consumption                Number of allocations  Used [MiB]  Size [MiB]
 Host                                                  6           1  6971907782391
 -------------------------------------------------------------------------------

 MEMORY| Estimated peak process memory [MiB]                                   0

 -------------------------------------------------------------------------------
 -                                                                             -
 -                         MESSAGE PASSING PERFORMANCE                         -
 -                                                                             -
 -------------------------------------------------------------------------------

 ROUTINE             CALLS      AVE VOLUME [Bytes]
 MP_Group                4
 MP_Bcast              535                    144.
 MP_Allreduce          766                     10.
 MP_Sync                 4
 MP_Wait                80
 MP_ISend              112                     79.
 MP_IRecv              112                     79.
 -------------------------------------------------------------------------------


 -------------------------------------------------------------------------------
 -                                                                             -
 -                           R E F E R E N C E S                               -
 -                                                                             -
 -------------------------------------------------------------------------------
 
 CP2K version 2026.1 (Development Version), the CP2K developers group (2026).
 CP2K is freely available from https://www.cp2k.org/ .
 
 M. Iannuzzi, J. Wilhelm, F. Stein, A. Bussy, H. Elgabarty, D. Golze, A. Hehn, 
 M. Graml, S. Marek, B. Sertcan Gökmen, C. Schran, H. Forbert, R. Z. 
 Khaliullin, A. Kozhevnikov, M. Taillefumier, R. Meli, V. V. Rybkin, M. Brehm, 
 R. Schade, O. Schütt, J. V. Pototschnig, H. Mirhosseini, A. Knüpfer, D. Marx, 
 M. Krack, J. Hutter, T. D. Kühne.
 J. Phys. Chem. B 130, 1237-1310 (2026).
 The CP2K Program Package Made Simple.
 https://doi.org/10.1021/acs.jpcb.5c05851

 T. D. Kühne, M. Iannuzzi, M. Del Ben, V. V. Rybkin, P. Seewald, F. Stein, T. 
 Laino, R. Z. Khaliullin, O. Schütt, F. Schiffmann, D. Golze, J. Wilhelm, S. 
 Chulkov, M. H. Bani-Hashemian, V. Weber, U. Borstnik, M. Taillefumier, A. S. 
 Jakobovits, A. Lazzaro, H. Pabst, T. Müller, R. Schade, M. Guidon, S. 
 Andermatt, N. Holmberg, G. K. Schenter, A. Hehn, A. Bussy, F. Belleflamme, G. 
 Tabacchi, A. Glöß, M. Lass, I. Bethune, C. J. Mundy, C. Plessl, M. Watkins, 
 J. VandeVondele, M. Krack, J. Hutter.
 J. Chem. Phys. 152, 194103 (2020).
 CP2K: An electronic structure and molecular dynamics software package - 
 Quickstep: Efficient and accurate electronic structure calculations.
 https://doi.org/10.1063/5.0007045

 O. Schuett, P. Messmer, J. Hutter, J. VandeVondele.
 Electronic Structure Calculations on Graphics Processing Units, 173-190 (2016).
 GPU-Accelerated Sparse Matrix-Matrix Multiplication for Linear Scaling Density 
 Functional Theory.
 https://doi.org/10.1002/9781118670712.ch8

 U. Borstnik, J. VandeVondele, V. Weber, J. Hutter.
 Parallel Comput. 40, 47-58 (2014).
 Sparse matrix multiplication: The distributed block-compressed sparse row 
 library.
 https://doi.org/10.1016/j.parco.2014.03.012

 J. VandeVondele, M. Krack, F. Mohamed, M. Parrinello, T. Chassaing, J. Hutter.
 Comput. Phys. Commun. 167, 103-128 (2005).
 QUICKSTEP: Fast and accurate density functional calculations using a mixed 
 Gaussian and plane waves approach.
 https://doi.org/10.1016/j.cpc.2004.12.014

 M. Krack.
 Theor. Chem. Acc. 114, 145-152 (2005).
 Pseudopotentials for H to Kr optimized for gradient-corrected 
 exchange-correlation functionals.
 https://doi.org/10.1007/s00214-005-0655-y

 M. Frigo, S. G. Johnson.
 Proc. IEEE 93, 216-231 (2005).
 The design and implementation of FFTW3.
 https://doi.org/10.1109/JPROC.2004.840301

 C. Hartwigsen, S. Goedecker, J. Hutter.
 Phys. Rev. B 58, 3641-3662 (1998).
 Relativistic separable dual-space Gaussian pseudopotentials from H to Rn.
 https://doi.org/10.1103/PhysRevB.58.3641

 G. Lippert, J. Hutter, M. Parrinello.
 Mol. Phys. 92, 477-487 (1997).
 A hybrid Gaussian and plane wave density functional scheme.
 https://doi.org/10.1080/002689797170220

 S. Goedecker, M. Teter, J. Hutter.
 Phys. Rev. B 54, 1703-1710 (1996).
 Separable dual-space Gaussian pseudopotentials.
 https://doi.org/10.1103/PhysRevB.54.1703

 C.-L. Fu, K.-M. Ho.
 Phys. Rev. B 28, 5480-5486 (1983).
 First-principles calculation of the equilibrium ground-state properties of 
 transition metals: Applications to Nb and Mo.
 https://doi.org/10.1103/PhysRevB.28.5480

 T. G. Worlton, J. L. Warren.
 Comput. Phys. Commun. 3, 88-117 (1972).
 Group-theoretical analysis of lattice vibrations.
 https://doi.org/10.1016/0010-4655(72)90058-6


 -------------------------------------------------------------------------------
 -                                                                             -
 -                                T I M I N G                                  -
 -                                                                             -
 -------------------------------------------------------------------------------
 SUBROUTINE                       CALLS  ASD         SELF TIME        TOTAL TIME
                                MAXIMUM       AVERAGE  MAXIMUM  AVERAGE  MAXIMUM
 CP2K                                 1  1.0    0.011    0.011    0.608    0.608
 qs_energies                          1  2.0    0.003    0.003    0.560    0.560
 qs_rho_update_rho_low                2  5.0    0.000    0.000    0.338    0.338
 calculate_rho_elec                   2  6.0    0.000    0.000    0.338    0.338
 scf_env_do_scf                       1  3.0    0.002    0.002    0.299    0.299
 scf_env_do_scf_inner_loop            1  4.0    0.000    0.000    0.297    0.297
 grid_collocate_task_list             2  7.0    0.293    0.293    0.293    0.293
 init_scf_run                         1  3.0    0.000    0.000    0.197    0.197
 scf_env_initial_rho_setup            1  4.0    0.000    0.000    0.196    0.196
 qs_ks_update_qs_env                  1  5.0    0.000    0.000    0.128    0.128
 rebuild_ks_matrix                    1  6.0    0.000    0.000    0.127    0.127
 qs_ks_build_kohn_sham_matrix         1  7.0    0.001    0.001    0.127    0.127
 sum_up_and_integrate                 1  8.0    0.000    0.000    0.118    0.118
 integrate_v_rspace                   1  9.0    0.000    0.000    0.118    0.118
 grid_integrate_task_list             1 10.0    0.116    0.116    0.116    0.116
 qs_energies_init_hamiltonians        1  3.0    0.001    0.001    0.046    0.046
 density_rs2pw                        2  7.0    0.000    0.000    0.045    0.045
 pw_axpy                             10  8.1    0.041    0.041    0.041    0.041
 build_core_hamiltonian_matrix        1  4.0    0.001    0.001    0.031    0.031
 cp_dbcsr_alloc_block_from_nbl     1015  5.0    0.027    0.027    0.030    0.030
 qs_init_subsys                       1  2.0    0.006    0.006    0.018    0.018
 qs_scf_new_mos_kp                    1  5.0    0.000    0.000    0.014    0.014
 do_general_diag_kp                   1  6.0    0.001    0.001    0.014    0.014
 qs_env_update_s_mstruct              1  4.0    0.000    0.000    0.013    0.013
 -------------------------------------------------------------------------------

 The number of warnings for this run is : 2
 
 -------------------------------------------------------------------------------
  **** **** ******  **  PROGRAM ENDED AT                 2026-07-16 21:42:53.770
 ***** ** ***  *** **   PROGRAM RAN ON            MacBook-Pro-von-Thomas-3.local
 **    ****   ******    PROGRAM RAN BY                                   tkuehne
 ***** **    ** ** **   PROGRAM PROCESS ID                                 43817
  **** **  *******  **  PROGRAM STOPPED IN /private/tmp/cp2k-crossmesh-independe
                                           nt-review/modes/legacy_default
