 DBCSR| CPU Multiplication driver                                           XSMM (U)
 DBCSR| Multrec recursion limit                                              512 (U)
 DBCSR| Multiplication stack size                                           1000 (D)
 DBCSR| Maximum elements for images                                    UNLIMITED (U)
 DBCSR| Multiplicative factor virtual images                                   1 (U)
 DBCSR| Use multiplication densification                                       T (D)
 DBCSR| Multiplication size stacks                                             3 (U)
 DBCSR| Use memory pool for CPU allocation                                     F (U)
 DBCSR| Number of 3D layers                                               SINGLE (U)
 DBCSR| Use MPI memory allocation                                              F (U)
 DBCSR| Use RMA algorithm                                                      F (U)
 DBCSR| Use Communication thread                                               T (U)
 DBCSR| Communication thread load                                             87 (D)
 DBCSR| MPI: My process id                                                     0
 DBCSR| MPI: Number of processes                                               1
 DBCSR| OMP: Current number of threads                                         1
 DBCSR| OMP: Max number of threads                                             1
 DBCSR| Split modifier for TAS multiplication algorithm                  1.0E+00 (U)


  **** **** ******  **  PROGRAM STARTED AT               2026-05-23 22:46:20.779
 ***** ** ***  *** **   PROGRAM STARTED ON                            spark-c86c
 **    ****   ******    PROGRAM STARTED BY                              kuehne88
 ***** **    ** ** **   PROGRAM PROCESS ID                               2229603
  **** **  *******  **  PROGRAM STARTED IN /home/kuehne88/periodic-gfn2-benchmar
                                           ks/X23b/runs/molecule_geoopt/GFN2/suc
                                           cinic_acid_GFN2_mol_geoopt

 CP2K| version string:                 CP2K version 2026.1 (Development Version)
 CP2K| source code revision number:                                   0622d442e4
 CP2K| cp2kflags: omp fftw3 libxc parallel scalapack mpi_f08 xsmm spglib libdftd
 CP2K|            4 dftd4_v3 mctc-lib tblite
 CP2K| is freely available from                            https://www.cp2k.org/
 CP2K| Program compiled at                                   2026-05-23 22:05:08
 CP2K| Program compiled on                                            spark-c86c
 CP2K| Program compiled for                                              aarch64
 CP2K| Data directory path    /home/kuehne88/cp2k-master-tblite-20260523/install
 CP2K| Input file name                         succinic_acid_GFN2_mol_geoopt.inp

 GLOBAL| Force Environment number                                              1
 GLOBAL| Basis set file name                                           BASIS_SET
 GLOBAL| Potential file name                                           POTENTIAL
 GLOBAL| MM Potential file name                                     MM_POTENTIAL
 GLOBAL| Coordinate file name                                      __STD_INPUT__
 GLOBAL| Method name                                                        CP2K
 GLOBAL| Project name                              succinic_acid_GFN2_mol_geoopt
 GLOBAL| Run type                                                        GEO_OPT
 GLOBAL| FFT library                                                       FFTW3
 GLOBAL| Diagonalization library                                       ScaLAPACK
 GLOBAL| Cholesky decomposition library                                ScaLAPACK
 GLOBAL| DGEMM library                                                      BLAS
 GLOBAL| Direct generalized diagonalization requested                          F
 GLOBAL| Orthonormality check for eigenvectors                          DISABLED
 GLOBAL| Matrix multiplication library                                 ScaLAPACK
 GLOBAL| All-to-all communication in single precision                          F
 GLOBAL| FFTs using library dependent lengths                                  F
 GLOBAL| Grid backend                                                       AUTO
 GLOBAL| Global print level                                                  LOW
 GLOBAL| MPI I/O enabled                                                       T
 GLOBAL| Total number of message passing processes                             1
 GLOBAL| Number of distributed systems (nodes)                                 1
 GLOBAL| Number of threads for this process                                    1
 GLOBAL| This output is from process                                           0
 GLOBAL| OpenMP stack size per thread (OMP_STACKSIZE)                    default
 GLOBAL| CPU model name                                                  UNKNOWN
 GLOBAL| CPUID                                                              2200
 GLOBAL| Compiled for CPUID                                                 2000

 *** HINT in environment.F:970 :: The compiler target flags (arm_arch64)   ***
 *** used to build this binary cannot exploit all extensions of this CPU   ***
 *** model (arm_sve256). Consider compiler target flags as part of FCFLAGS ***
 *** and CFLAGS (ARCH file).                                               ***


 MEMORY| system memory details [Kb]
 MEMORY|                        rank 0           min           max       average
 MEMORY| MemTotal            125508532     125508532     125508532     125508532
 MEMORY| MemFree             106001040     106001040     106001040     106001040
 MEMORY| Buffers                866204        866204        866204        866204
 MEMORY| Cached               13216548      13216548      13216548      13216548
 MEMORY| Slab                  1565152       1565152       1565152       1565152
 MEMORY| SReclaimable           888664        888664        888664        888664
 MEMORY| MemLikelyFree       120972456     120972456     120972456     120972456


 GENERATE|  Preliminary Number of Bonds generated:                             0
 GENERATE|  Achieved consistency in connectivity generation.


                  #####   #####        #     #   #     #       #          
                 #     # #     #      #    ##### #     #   # #####  ####  
                 #     # #           #       #   ###   #       #   #    # 
                 #     #  #####     #        #   #  #  #   #   #   ###### 
                 #   # #       #   #         #   #   # #   #   #   #      
                 #    #  #     #  #          #   #  #  # # #   #    #   # 
                  #### #  #####  #           #   ###   ##  #   #     ###  

                                   GFN2-xTB  
                                 Version 0.0                       
                            Johann V. Pototschnig                  



 TOTAL NUMBERS AND MAXIMUM NUMBERS

  Total number of            - Atomic kinds:                                   3
                             - Atoms:                                         14
                             - Shell sets:                                    22
                             - Shells:                                        22
                             - Primitive Cartesian functions:                 82
                             - Cartesian basis functions:                     38
                             - Spherical basis functions:                     38

  Maximum angular momentum of the orbital basis functions:                     1


 SCF PARAMETERS         Density guess:                                     MOPAC
                        --------------------------------------------------------
                        max_scf:                                             300
                        max_scf_history:                                       0
                        max_diis:                                              4
                        --------------------------------------------------------
                        eps_scf:                                        1.00E-09
                        eps_scf_history:                                0.00E+00
                        eps_diis:                                       1.00E-01
                        eps_eigval:                                     1.00E-05
                        --------------------------------------------------------
                        level_shift [a.u.]:                             0.000000
                        added MOs                                        15    0
                        --------------------------------------------------------
                        Mixing method:                           DIRECT_P_MIXING
                        --------------------------------------------------------
                        Smear method:                                FERMI_DIRAC
                        Electronic temperature [K]:                        300.0
                        Electronic temperature [a.u.]:                  9.50E-04
                        Accuracy threshold:                             1.00E-06
                        --------------------------------------------------------
                        No outer SCF

 BFGS| Use rational function optimization for step estimation:                NO
 BFGS| Use model Hessian for initial guess:                                  YES
 BFGS| Restart Hessian:                                                       NO
 BFGS| Trust radius:                                                       0.472

 *******************************************************************************
 ***                     STARTING GEOMETRY OPTIMIZATION                      ***
 ***                                   BFGS                                  ***
 *******************************************************************************

 Extrapolation method: initial_guess

 Number of electrons:                                                         46
 Number of occupied orbitals:                                                 23
 Number of molecular orbitals:                                                38

 Number of orbital functions:                                                 38
 Number of independent orbital functions:                                     38


 SCF WAVEFUNCTION OPTIMIZATION

  Step     Update method      Time    Convergence         Total energy    Change
  ------------------------------------------------------------------------------
     1 TBLite/Diag 0.40E+00    0.0     0.71362849       -27.4704062480 -2.75E+01
     2 TBLite/Diag 0.40E+00    0.0     0.30842012       -27.8691143022 -3.99E-01
     3 TBLite/Diag 0.40E+00    0.0     0.10191986       -27.8935413931 -2.44E-02
     4 TBLite/Diag 0.40E+00    0.0     0.05182412       -27.8984017276 -4.86E-03
     5 TBLite/Diag 0.40E+00    0.0     0.02444670       -27.8998030149 -1.40E-03
     6 TBLite/Diag 0.40E+00    0.0     0.00557900       -27.8999993973 -1.96E-04
     7 TBLite/Diag 0.40E+00    0.0     0.00103697       -27.9000008161 -1.42E-06
     8 TBLite/Diag 0.40E+00    0.0     0.00099738       -27.9000015143 -6.98E-07
     9 TBLite/Diag 0.40E+00    0.0     0.00050889       -27.9000024347 -9.20E-07
    10 TBLite/Diag 0.40E+00    0.0     0.00007638       -27.9000024551 -2.03E-08
    11 TBLite/Diag 0.40E+00    0.0     0.00002375       -27.9000024559 -8.19E-10
    12 TBLite/Diag 0.40E+00    0.0     0.00000757       -27.9000024561 -2.28E-10
    13 TBLite/Diag 0.40E+00    0.0     0.00000033       -27.9000024561 -2.03E-13
    14 TBLite/Diag 0.40E+00    0.0     0.00000018       -27.9000024561 -1.17E-13
    15 TBLite/Diag 0.40E+00    0.0     0.00000001       -27.9000024561 -2.84E-14
    16 TBLite/Diag 0.40E+00    0.0     1.9135E-09       -27.9000024561  1.42E-14
    17 TBLite/Diag 0.40E+00    0.0     3.4093E-10       -27.9000024561  1.78E-14

  *** SCF run converged in    17 steps ***


  Core Hamiltonian energy:                                    -28.20601098095904
  Repulsive potential energy:                                   0.21159807495434
  Electrostatic energy:                                         0.10231796048063
  Self-consistent dispersion energy:                           -0.00789663550148
  Non-self consistent dispersion energy:                       -0.00001087508028
  Correction for halogen bonding:                               0.00000000000000
  Electronic entropic energy:                                  -0.00000000000000
  Fermi energy:                                                -0.28146173672957

  Total energy:                                               -27.90000245610583
  Total energy (extrapolated to T->0):                        -27.90000245610583

 ENERGY| Total FORCE_EVAL ( QS ) energy [hartree]            -27.900002456105835

 OPT| **************************************************************************
 OPT| Step number                                                              0
 OPT| Optimization method                                                   BFGS
 OPT| Total energy [hartree]                                      -27.9000024561
 OPT| Used time [s]                                                        0.023
 OPT| **************************************************************************
 OPT| Estimated peak process memory [MiB]                                    163

 --------------------------
 OPTIMIZATION STEP:      1
 --------------------------

 Extrapolation method: ASPC

 Number of electrons:                                                         46
 Number of occupied orbitals:                                                 23
 Number of molecular orbitals:                                                38

 Number of orbital functions:                                                 38
 Number of independent orbital functions:                                     38


 SCF WAVEFUNCTION OPTIMIZATION

  Step     Update method      Time    Convergence         Total energy    Change
  ------------------------------------------------------------------------------
     1 TBLite/Diag 0.40E+00    0.0     0.04785604       -27.9082282558 -2.79E+01
     2 TBLite/Diag 0.40E+00    0.0     0.00815012       -27.9086813371 -4.53E-04
     3 TBLite/Diag 0.40E+00    0.0     0.00118779       -27.9086864863 -5.15E-06
     4 TBLite/Diag 0.40E+00    0.0     0.00054564       -27.9086870772 -5.91E-07
     5 TBLite/Diag 0.40E+00    0.0     0.00018654       -27.9086872622 -1.85E-07
     6 TBLite/Diag 0.40E+00    0.0     0.00007500       -27.9086872704 -8.14E-09
     7 TBLite/Diag 0.40E+00    0.0     0.00002469       -27.9086872714 -1.05E-09
     8 TBLite/Diag 0.40E+00    0.0     0.00001026       -27.9086872720 -6.15E-10
     9 TBLite/Diag 0.40E+00    0.0     0.00000104       -27.9086872720 -4.26E-12
    10 TBLite/Diag 0.40E+00    0.0     0.00000053       -27.9086872720 -7.71E-13
    11 TBLite/Diag 0.40E+00    0.0     0.00000010       -27.9086872720 -1.42E-14
    12 TBLite/Diag 0.40E+00    0.0     0.00000005       -27.9086872720  7.11E-15
    13 TBLite/Diag 0.40E+00    0.0     3.2127E-09       -27.9086872720 -2.49E-14
    14 TBLite/Diag 0.40E+00    0.0     1.6563E-09       -27.9086872720  2.49E-14
    15 TBLite/Diag 0.40E+00    0.0     5.2097E-10       -27.9086872720 -1.07E-14

  *** SCF run converged in    15 steps ***


  Core Hamiltonian energy:                                    -28.23162585643835
  Repulsive potential energy:                                   0.23302162570268
  Electrostatic energy:                                         0.09784013007910
  Self-consistent dispersion energy:                           -0.00791234101194
  Non-self consistent dispersion energy:                       -0.00001083037929
  Correction for halogen bonding:                               0.00000000000000
  Electronic entropic energy:                                  -0.00000000000000
  Fermi energy:                                                -0.27495531377477

  Total energy:                                               -27.90868727204781
  Total energy (extrapolated to T->0):                        -27.90868727204781

 ENERGY| Total FORCE_EVAL ( QS ) energy [hartree]            -27.908687272047807

 OPT| **************************************************************************
 OPT| Step number                                                              1
 OPT| Optimization method                                                   BFGS
 OPT| Total energy [hartree]                                      -27.9086872720
 OPT| Effective energy change [hartree]                            -0.0086848159
 OPT| Predicted energy change [hartree]                            -0.0063383970
 OPT| Scaling factor                                                0.0000000000
 OPT| Step size                                                     0.0462863185
 OPT| Trust radius                                                  0.4724315332
 OPT| Decrease in energy                                                     YES
 OPT| Used time [s]                                                        0.020
 OPT|
 OPT| Maximum step size                                             0.0462863185
 OPT| Convergence limit for maximum step size                       0.0030000000
 OPT| Maximum step size is converged                                          NO
 OPT|
 OPT| RMS step size                                                 0.0206901182
 OPT| Convergence limit for RMS step size                           0.0015000000
 OPT| RMS step size is converged                                              NO
 OPT|
 OPT| Maximum gradient                                              0.0208454726
 OPT| Convergence limit for maximum gradient                        0.0004500000
 OPT| Maximum gradient is converged                                           NO
 OPT|
 OPT| RMS gradient                                                  0.0089348048
 OPT| Convergence limit for RMS gradient                            0.0003000000
 OPT| RMS gradient is converged                                               NO
 OPT| **************************************************************************
 OPT| Estimated peak process memory after this step [MiB]                    163

 --------------------------
 OPTIMIZATION STEP:      2
 --------------------------

 Extrapolation method: ASPC

 Number of electrons:                                                         46
 Number of occupied orbitals:                                                 23
 Number of molecular orbitals:                                                38

 Number of orbital functions:                                                 38
 Number of independent orbital functions:                                     38


 SCF WAVEFUNCTION OPTIMIZATION

  Step     Update method      Time    Convergence         Total energy    Change
  ------------------------------------------------------------------------------
     1 TBLite/Diag 0.40E+00    0.0     0.03385290       -27.9097085731 -2.79E+01
     2 TBLite/Diag 0.40E+00    0.0     0.00864758       -27.9100023493 -2.94E-04
     3 TBLite/Diag 0.40E+00    0.0     0.00121842       -27.9100094592 -7.11E-06
     4 TBLite/Diag 0.40E+00    0.0     0.00082317       -27.9100097768 -3.18E-07
     5 TBLite/Diag 0.40E+00    0.0     0.00048633       -27.9100107054 -9.29E-07
     6 TBLite/Diag 0.40E+00    0.0     0.00007696       -27.9100107374 -3.19E-08
     7 TBLite/Diag 0.40E+00    0.0     0.00003882       -27.9100107442 -6.82E-09
     8 TBLite/Diag 0.40E+00    0.0     0.00001433       -27.9100107449 -7.33E-10
     9 TBLite/Diag 0.40E+00    0.0     0.00000154       -27.9100107449 -6.17E-12
    10 TBLite/Diag 0.40E+00    0.0     0.00000028       -27.9100107449 -2.10E-13
    11 TBLite/Diag 0.40E+00    0.0     0.00000010       -27.9100107449 -1.78E-14
    12 TBLite/Diag 0.40E+00    0.0     0.00000006       -27.9100107449 -2.13E-14
    13 TBLite/Diag 0.40E+00    0.0     7.0023E-09       -27.9100107449 -7.11E-15
    14 TBLite/Diag 0.40E+00    0.0     9.4199E-10       -27.9100107449  3.55E-15

  *** SCF run converged in    14 steps ***


  Core Hamiltonian energy:                                    -28.24912925085169
  Repulsive potential energy:                                   0.25207979812068
  Electrostatic energy:                                         0.09497644803689
  Self-consistent dispersion energy:                           -0.00792712035357
  Non-self consistent dispersion energy:                       -0.00001061986727
  Correction for halogen bonding:                               0.00000000000000
  Electronic entropic energy:                                  -0.00000000000000
  Fermi energy:                                                -0.27182326852359

  Total energy:                                               -27.91001074491497
  Total energy (extrapolated to T->0):                        -27.91001074491497

 ENERGY| Total FORCE_EVAL ( QS ) energy [hartree]            -27.910010744914967

 OPT| **************************************************************************
 OPT| Step number                                                              2
 OPT| Optimization method                                                   BFGS
 OPT| Total energy [hartree]                                      -27.9100107449
 OPT| Effective energy change [hartree]                            -0.0013234729
 OPT| Predicted energy change [hartree]                            -0.0021200417
 OPT| Scaling factor                                                0.0000000000
 OPT| Step size                                                     0.0529457692
 OPT| Trust radius                                                  0.4724315332
 OPT| Decrease in energy                                                     YES
 OPT| Used time [s]                                                        0.019
 OPT|
 OPT| Maximum step size                                             0.0529457692
 OPT| Convergence limit for maximum step size                       0.0030000000
 OPT| Maximum step size is converged                                          NO
 OPT|
 OPT| RMS step size                                                 0.0181477242
 OPT| Convergence limit for RMS step size                           0.0015000000
 OPT| RMS step size is converged                                              NO
 OPT|
 OPT| Maximum gradient                                              0.0080004223
 OPT| Convergence limit for maximum gradient                        0.0004500000
 OPT| Maximum gradient is converged                                           NO
 OPT|
 OPT| RMS gradient                                                  0.0037973250
 OPT| Convergence limit for RMS gradient                            0.0003000000
 OPT| RMS gradient is converged                                               NO
 OPT| **************************************************************************
 OPT| Estimated peak process memory after this step [MiB]                    164

 --------------------------
 OPTIMIZATION STEP:      3
 --------------------------

 Extrapolation method: ASPC

 Number of electrons:                                                         46
 Number of occupied orbitals:                                                 23
 Number of molecular orbitals:                                                38

 Number of orbital functions:                                                 38
 Number of independent orbital functions:                                     38


 SCF WAVEFUNCTION OPTIMIZATION

  Step     Update method      Time    Convergence         Total energy    Change
  ------------------------------------------------------------------------------
     1 TBLite/Diag 0.40E+00    0.0     0.02128520       -27.9103652597 -2.79E+01
     2 TBLite/Diag 0.40E+00    0.0     0.00188458       -27.9103784540 -1.32E-05
     3 TBLite/Diag 0.40E+00    0.0     0.00080666       -27.9103785864 -1.32E-07
     4 TBLite/Diag 0.40E+00    0.0     0.00042889       -27.9103793187 -7.32E-07
     5 TBLite/Diag 0.40E+00    0.0     0.00011137       -27.9103793547 -3.60E-08
     6 TBLite/Diag 0.40E+00    0.0     0.00004166       -27.9103793619 -7.26E-09
     7 TBLite/Diag 0.40E+00    0.0     0.00000664       -27.9103793622 -3.09E-10
     8 TBLite/Diag 0.40E+00    0.0     0.00000191       -27.9103793623 -1.81E-11
     9 TBLite/Diag 0.40E+00    0.0     0.00000097       -27.9103793623 -1.70E-12
    10 TBLite/Diag 0.40E+00    0.0     0.00000012       -27.9103793623 -4.26E-14
    11 TBLite/Diag 0.40E+00    0.0     0.00000006       -27.9103793623 -1.78E-14
    12 TBLite/Diag 0.40E+00    0.0     0.00000001       -27.9103793623 -1.42E-14
    13 TBLite/Diag 0.40E+00    0.0     3.7516E-09       -27.9103793623  1.42E-14
    14 TBLite/Diag 0.40E+00    0.0     1.0833E-09       -27.9103793623  7.11E-15
    15 TBLite/Diag 0.40E+00    0.0     3.4164E-10       -27.9103793623 -3.55E-15

  *** SCF run converged in    15 steps ***


  Core Hamiltonian energy:                                    -28.24479392650268
  Repulsive potential energy:                                   0.24690483576631
  Electrostatic energy:                                         0.09544290243326
  Self-consistent dispersion energy:                           -0.00792269042052
  Non-self consistent dispersion energy:                       -0.00001048353076
  Correction for halogen bonding:                               0.00000000000000
  Electronic entropic energy:                                  -0.00000000000000
  Fermi energy:                                                -0.27356278136329

  Total energy:                                               -27.91037936225439
  Total energy (extrapolated to T->0):                        -27.91037936225439

 ENERGY| Total FORCE_EVAL ( QS ) energy [hartree]            -27.910379362254389

 OPT| **************************************************************************
 OPT| Step number                                                              3
 OPT| Optimization method                                                   BFGS
 OPT| Total energy [hartree]                                      -27.9103793623
 OPT| Effective energy change [hartree]                            -0.0003686173
 OPT| Predicted energy change [hartree]                            -0.0004410962
 OPT| Scaling factor                                                0.0000000000
 OPT| Step size                                                     0.0216762381
 OPT| Trust radius                                                  0.4724315332
 OPT| Decrease in energy                                                     YES
 OPT| Used time [s]                                                        0.021
 OPT|
 OPT| Maximum step size                                             0.0216762381
 OPT| Convergence limit for maximum step size                       0.0030000000
 OPT| Maximum step size is converged                                          NO
 OPT|
 OPT| RMS step size                                                 0.0086873742
 OPT| Convergence limit for RMS step size                           0.0015000000
 OPT| RMS step size is converged                                              NO
 OPT|
 OPT| Maximum gradient                                              0.0024084411
 OPT| Convergence limit for maximum gradient                        0.0004500000
 OPT| Maximum gradient is converged                                           NO
 OPT|
 OPT| RMS gradient                                                  0.0009970965
 OPT| Convergence limit for RMS gradient                            0.0003000000
 OPT| RMS gradient is converged                                               NO
 OPT| **************************************************************************
 OPT| Estimated peak process memory after this step [MiB]                    164

 --------------------------
 OPTIMIZATION STEP:      4
 --------------------------

 Extrapolation method: ASPC

 Number of electrons:                                                         46
 Number of occupied orbitals:                                                 23
 Number of molecular orbitals:                                                38

 Number of orbital functions:                                                 38
 Number of independent orbital functions:                                     38


 SCF WAVEFUNCTION OPTIMIZATION

  Step     Update method      Time    Convergence         Total energy    Change
  ------------------------------------------------------------------------------
     1 TBLite/Diag 0.40E+00    0.0     0.00832725       -27.9104107187 -2.79E+01
     2 TBLite/Diag 0.40E+00    0.0     0.00028228       -27.9104112239 -5.05E-07
     3 TBLite/Diag 0.40E+00    0.0     0.00021828       -27.9104111906  3.33E-08
     4 TBLite/Diag 0.40E+00    0.0     0.00015788       -27.9104112758 -8.51E-08
     5 TBLite/Diag 0.40E+00    0.0     0.00003074       -27.9104112790 -3.22E-09
     6 TBLite/Diag 0.40E+00    0.0     0.00000737       -27.9104112792 -2.00E-10
     7 TBLite/Diag 0.40E+00    0.0     0.00000184       -27.9104112792 -1.78E-11
     8 TBLite/Diag 0.40E+00    0.0     0.00000122       -27.9104112792 -2.34E-12
     9 TBLite/Diag 0.40E+00    0.0     0.00000015       -27.9104112792 -1.07E-14
    10 TBLite/Diag 0.40E+00    0.0     0.00000006       -27.9104112792 -7.11E-15
    11 TBLite/Diag 0.40E+00    0.0     0.00000002       -27.9104112792 -7.11E-15
    12 TBLite/Diag 0.40E+00    0.0     2.0009E-09       -27.9104112792 -1.07E-14
    13 TBLite/Diag 0.40E+00    0.0     7.7874E-10       -27.9104112792 -1.07E-14

  *** SCF run converged in    13 steps ***


  Core Hamiltonian energy:                                    -28.24384761621817
  Repulsive potential energy:                                   0.24574153651815
  Electrostatic energy:                                         0.09562745156123
  Self-consistent dispersion energy:                           -0.00792213771581
  Non-self consistent dispersion energy:                       -0.00001051334976
  Correction for halogen bonding:                               0.00000000000000
  Electronic entropic energy:                                  -0.00000000000000
  Fermi energy:                                                -0.27424081777977

  Total energy:                                               -27.91041127920436
  Total energy (extrapolated to T->0):                        -27.91041127920436

 ENERGY| Total FORCE_EVAL ( QS ) energy [hartree]            -27.910411279204361

 OPT| **************************************************************************
 OPT| Step number                                                              4
 OPT| Optimization method                                                   BFGS
 OPT| Total energy [hartree]                                      -27.9104112792
 OPT| Effective energy change [hartree]                            -0.0000319169
 OPT| Predicted energy change [hartree]                            -0.0000517038
 OPT| Scaling factor                                                0.0000000000
 OPT| Step size                                                     0.0072218859
 OPT| Trust radius                                                  0.4724315332
 OPT| Decrease in energy                                                     YES
 OPT| Used time [s]                                                        0.019
 OPT|
 OPT| Maximum step size                                             0.0072218859
 OPT| Convergence limit for maximum step size                       0.0030000000
 OPT| Maximum step size is converged                                          NO
 OPT|
 OPT| RMS step size                                                 0.0035088489
 OPT| Convergence limit for RMS step size                           0.0015000000
 OPT| RMS step size is converged                                              NO
 OPT|
 OPT| Maximum gradient                                              0.0016659594
 OPT| Convergence limit for maximum gradient                        0.0004500000
 OPT| Maximum gradient is converged                                           NO
 OPT|
 OPT| RMS gradient                                                  0.0006959258
 OPT| Convergence limit for RMS gradient                            0.0003000000
 OPT| RMS gradient is converged                                               NO
 OPT| **************************************************************************
 OPT| Estimated peak process memory after this step [MiB]                    164

 --------------------------
 OPTIMIZATION STEP:      5
 --------------------------

 Extrapolation method: ASPC

 Number of electrons:                                                         46
 Number of occupied orbitals:                                                 23
 Number of molecular orbitals:                                                38

 Number of orbital functions:                                                 38
 Number of independent orbital functions:                                     38


 SCF WAVEFUNCTION OPTIMIZATION

  Step     Update method      Time    Convergence         Total energy    Change
  ------------------------------------------------------------------------------
     1 TBLite/Diag 0.40E+00    0.0     0.00794381       -27.9104274769 -2.79E+01
     2 TBLite/Diag 0.40E+00    0.0     0.00036832       -27.9104278653 -3.88E-07
     3 TBLite/Diag 0.40E+00    0.0     0.00016664       -27.9104278388  2.64E-08
     4 TBLite/Diag 0.40E+00    0.0     0.00012333       -27.9104278931 -5.43E-08
     5 TBLite/Diag 0.40E+00    0.0     0.00002648       -27.9104278960 -2.88E-09
     6 TBLite/Diag 0.40E+00    0.0     0.00000399       -27.9104278960 -6.04E-11
     7 TBLite/Diag 0.40E+00    0.0     0.00000193       -27.9104278960 -1.47E-11
     8 TBLite/Diag 0.40E+00    0.0     0.00000044       -27.9104278960 -6.93E-13
     9 TBLite/Diag 0.40E+00    0.0     0.00000009       -27.9104278960 -4.62E-14
    10 TBLite/Diag 0.40E+00    0.0     0.00000004       -27.9104278960  1.78E-14
    11 TBLite/Diag 0.40E+00    0.0     8.8317E-09       -27.9104278960  0.00E+00
    12 TBLite/Diag 0.40E+00    0.0     1.4702E-09       -27.9104278960  1.42E-14
    13 TBLite/Diag 0.40E+00    0.0     7.9768E-10       -27.9104278960 -1.42E-14

  *** SCF run converged in    13 steps ***


  Core Hamiltonian energy:                                    -28.24435331881605
  Repulsive potential energy:                                   0.24626905028529
  Electrostatic energy:                                         0.09558941948250
  Self-consistent dispersion energy:                           -0.00792252757815
  Non-self consistent dispersion energy:                       -0.00001051940798
  Correction for halogen bonding:                               0.00000000000000
  Electronic entropic energy:                                  -0.00000000000000
  Fermi energy:                                                -0.27424283215538

  Total energy:                                               -27.91042789603438
  Total energy (extrapolated to T->0):                        -27.91042789603438

 ENERGY| Total FORCE_EVAL ( QS ) energy [hartree]            -27.910427896034381

 OPT| **************************************************************************
 OPT| Step number                                                              5
 OPT| Optimization method                                                   BFGS
 OPT| Total energy [hartree]                                      -27.9104278960
 OPT| Effective energy change [hartree]                            -0.0000166168
 OPT| Predicted energy change [hartree]                            -0.0000211333
 OPT| Scaling factor                                                0.0000000000
 OPT| Step size                                                     0.0051019108
 OPT| Trust radius                                                  0.4724315332
 OPT| Decrease in energy                                                     YES
 OPT| Used time [s]                                                        0.019
 OPT|
 OPT| Maximum step size                                             0.0051019108
 OPT| Convergence limit for maximum step size                       0.0030000000
 OPT| Maximum step size is converged                                          NO
 OPT|
 OPT| RMS step size                                                 0.0022901468
 OPT| Convergence limit for RMS step size                           0.0015000000
 OPT| RMS step size is converged                                              NO
 OPT|
 OPT| Maximum gradient                                              0.0009538968
 OPT| Convergence limit for maximum gradient                        0.0004500000
 OPT| Maximum gradient is converged                                           NO
 OPT|
 OPT| RMS gradient                                                  0.0003738919
 OPT| Convergence limit for RMS gradient                            0.0003000000
 OPT| RMS gradient is converged                                               NO
 OPT| **************************************************************************
 OPT| Estimated peak process memory after this step [MiB]                    164

 --------------------------
 OPTIMIZATION STEP:      6
 --------------------------

 Extrapolation method: ASPC

 Number of electrons:                                                         46
 Number of occupied orbitals:                                                 23
 Number of molecular orbitals:                                                38

 Number of orbital functions:                                                 38
 Number of independent orbital functions:                                     38


 SCF WAVEFUNCTION OPTIMIZATION

  Step     Update method      Time    Convergence         Total energy    Change
  ------------------------------------------------------------------------------
     1 TBLite/Diag 0.40E+00    0.0     0.00230790       -27.9104351984 -2.79E+01
     2 TBLite/Diag 0.40E+00    0.0     0.00037167       -27.9104358698 -6.71E-07
     3 TBLite/Diag 0.40E+00    0.0     0.00007527       -27.9104358781 -8.23E-09
     4 TBLite/Diag 0.40E+00    0.0     0.00006105       -27.9104358791 -9.90E-10
     5 TBLite/Diag 0.40E+00    0.0     0.00003233       -27.9104358840 -4.97E-09
     6 TBLite/Diag 0.40E+00    0.0     0.00000253       -27.9104358840 -1.15E-11
     7 TBLite/Diag 0.40E+00    0.0     0.00000067       -27.9104358840 -1.91E-12
     8 TBLite/Diag 0.40E+00    0.0     0.00000026       -27.9104358840 -1.53E-13
     9 TBLite/Diag 0.40E+00    0.0     0.00000002       -27.9104358840  3.55E-15
    10 TBLite/Diag 0.40E+00    0.0     9.3018E-09       -27.9104358840  7.11E-15
    11 TBLite/Diag 0.40E+00    0.0     2.9927E-09       -27.9104358840 -7.11E-15
    12 TBLite/Diag 0.40E+00    0.0     1.2905E-09       -27.9104358840  1.42E-14
    13 TBLite/Diag 0.40E+00    0.0     4.0480E-10       -27.9104358840 -1.42E-14

  *** SCF run converged in    13 steps ***


  Core Hamiltonian energy:                                    -28.24467616993778
  Repulsive potential energy:                                   0.24667306741529
  Electrostatic energy:                                         0.09550093951817
  Self-consistent dispersion energy:                           -0.00792322180611
  Non-self consistent dispersion energy:                       -0.00001049923222
  Correction for halogen bonding:                               0.00000000000000
  Electronic entropic energy:                                  -0.00000000000000
  Fermi energy:                                                -0.27424262228624

  Total energy:                                               -27.91043588404265
  Total energy (extrapolated to T->0):                        -27.91043588404265

 ENERGY| Total FORCE_EVAL ( QS ) energy [hartree]            -27.910435884042649

 OPT| **************************************************************************
 OPT| Step number                                                              6
 OPT| Optimization method                                                   BFGS
 OPT| Total energy [hartree]                                      -27.9104358840
 OPT| Effective energy change [hartree]                            -0.0000079880
 OPT| Predicted energy change [hartree]                            -0.0000067914
 OPT| Scaling factor                                                0.0000000000
 OPT| Step size                                                     0.0020611322
 OPT| Trust radius                                                  0.4724315332
 OPT| Decrease in energy                                                     YES
 OPT| Used time [s]                                                        0.019
 OPT|
 OPT| Maximum step size                                             0.0020611322
 OPT| Convergence limit for maximum step size                       0.0030000000
 OPT| Maximum step size is converged                                         YES
 OPT|
 OPT| RMS step size                                                 0.0013046256
 OPT| Convergence limit for RMS step size                           0.0015000000
 OPT| RMS step size is converged                                             YES
 OPT|
 OPT| Maximum gradient                                              0.0003812105
 OPT| Convergence limit for maximum gradient                        0.0004500000
 OPT| Maximum gradient is converged                                          YES
 OPT|
 OPT| RMS gradient                                                  0.0001624914
 OPT| Convergence limit for RMS gradient                            0.0003000000
 OPT| RMS gradient is converged                                              YES
 OPT| **************************************************************************
 OPT| Estimated peak process memory after this step [MiB]                    164

 *******************************************************************************
 ***                    GEOMETRY OPTIMIZATION COMPLETED                      ***
 *******************************************************************************

 write_final_structure: Optimization converged, writing XYZ file gladly:
  succinic_acid_GFN2_mol_geoopt-FINAL-1_6.xyz

 write_final_structure: Optimization converged, writing CIF file gladly:
  succinic_acid_GFN2_mol_geoopt-FINAL-1_6.cif

 write_final_structure: Done!

                    Reevaluating energy at the minimum

 Extrapolation method: ASPC

 Number of electrons:                                                         46
 Number of occupied orbitals:                                                 23
 Number of molecular orbitals:                                                38

 Number of orbital functions:                                                 38
 Number of independent orbital functions:                                     38


 SCF WAVEFUNCTION OPTIMIZATION

  Step     Update method      Time    Convergence         Total energy    Change
  ------------------------------------------------------------------------------
     1 TBLite/Diag 0.40E+00    0.0     2.7096E-10       -27.9104358840 -2.79E+01

  *** SCF run converged in     1 steps ***


  Core Hamiltonian energy:                                    -28.24467616988635
  Repulsive potential energy:                                   0.24667306741529
  Electrostatic energy:                                         0.09550093946713
  Self-consistent dispersion energy:                           -0.00792322180651
  Non-self consistent dispersion energy:                       -0.00001049923222
  Correction for halogen bonding:                               0.00000000000000
  Electronic entropic energy:                                  -0.00000000000000
  Fermi energy:                                                -0.27424262224168

  Total energy:                                               -27.91043588404266
  Total energy (extrapolated to T->0):                        -27.91043588404266

 ENERGY| Total FORCE_EVAL ( QS ) energy [hartree]            -27.910435884042656

 -------------------------------------------------------------------------------
 -                                                                             -
 -                                DBCSR STATISTICS                             -
 -                                                                             -
 -------------------------------------------------------------------------------
 COUNTER                                    TOTAL       BLAS       SMM       ACC
 flops     1 x     6 x     1                10800       0.0%    100.0%      0.0%     
 flops     1 x    32 x     1                57600       0.0%    100.0%      0.0%     
 flops     1 x     6 x     4                57600       0.0%    100.0%      0.0%     
 flops     4 x     6 x     1                57600       0.0%    100.0%      0.0%     
 flops     1 x     1 x    38               183540       0.0%    100.0%      0.0%     
 flops     1 x    32 x     4               307200       0.0%    100.0%      0.0%     
 flops     4 x    32 x     1               307200       0.0%    100.0%      0.0%     
 flops     4 x     6 x     4               307200       0.0%    100.0%      0.0%     
 flops     1 x     4 x    38               839040       0.0%    100.0%      0.0%     
 flops     4 x     1 x    38               839040       0.0%    100.0%      0.0%     
 flops     4 x    32 x     4              1638400       0.0%    100.0%      0.0%     
 flops     4 x     4 x    38              5034240       0.0%    100.0%      0.0%     
 flops inhomo. stacks                           0       0.0%      0.0%      0.0%
 flops total                         9.639460E+06       0.0%    100.0%      0.0%
 flops max/rank                      9.639460E+06       0.0%    100.0%      0.0%
 matmuls inhomo. stacks                         0       0.0%      0.0%      0.0%
 matmuls total                              21875       0.0%    100.0%      0.0%
 number of processed stacks                   660       0.0%    100.0%      0.0%
 average stack size                                     0.0      33.1       0.0
 marketing flops                    10.382360E+06
 -------------------------------------------------------------------------------
 # multiplications                            140
 max memory usage/rank              13.670662E+09
 # max total images/rank                        1
 # max 3D layers                                1
 # MPI messages exchanged                       0
 -------------------------------------------------------------------------------
 -                                                                             -
 -                      DBCSR MESSAGE PASSING PERFORMANCE                      -
 -                                                                             -
 -------------------------------------------------------------------------------
 ROUTINE             CALLS      AVE VOLUME [Bytes]
 MP_Bcast               13                     12.
 MP_Allreduce          693                      9.
 MP_Alltoall          4789                   8247.
 MP_ISend              560                    860.
 MP_IRecv              560                    860.
 -------------------------------------------------------------------------------

 -------------------------------------------------------------------------------
 -                                                                             -
 -                          OFFLOAD MEMPOOL STATISTICS                         -
 -                                                                             -
 -------------------------------------------------------------------------------
 Memory consumption                Number of allocations  Used [MiB]  Size [MiB]
 Device                                                1           0           0
 Host                                                  1           0           0
 -------------------------------------------------------------------------------

 MEMORY| Estimated peak process memory [MiB]                                 164

 -------------------------------------------------------------------------------
 -                                                                             -
 -                         MESSAGE PASSING PERFORMANCE                         -
 -                                                                             -
 -------------------------------------------------------------------------------

 ROUTINE             CALLS      AVE VOLUME [Bytes]
 MP_Group                1
 MP_Bcast              222                    160.
 MP_Allreduce         3445                    108.
 MP_Sync               116
 MP_comm_split         115
 -------------------------------------------------------------------------------


 -------------------------------------------------------------------------------
 -                                                                             -
 -                           R E F E R E N C E S                               -
 -                                                                             -
 -------------------------------------------------------------------------------
 
 CP2K version 2026.1 (Development Version), the CP2K developers group (2026).
 CP2K is freely available from https://www.cp2k.org/ .
 
 M. Iannuzzi, J. Wilhelm, F. Stein, A. Bussy, H. Elgabarty, D. Golze, A. Hehn, 
 M. Graml, S. Marek, B. Sertcan Gökmen, C. Schran, H. Forbert, R. Z. 
 Khaliullin, A. Kozhevnikov, M. Taillefumier, R. Meli, V. V. Rybkin, M. Brehm, 
 R. Schade, O. Schütt, J. V. Pototschnig, H. Mirhosseini, A. Knüpfer, D. Marx, 
 M. Krack, J. Hutter, T. D. Kühne.
 J. Phys. Chem. B 130, 1237-1310 (2026).
 The CP2K Program Package Made Simple.
 https://doi.org/10.1021/acs.jpcb.5c05851

 A. Katbashev, M. Stahn, T. Rose, V. Alizadeh, M. Friede, C. Plett, P. 
 Steinbach, S. Ehlert.
 J. Phys. Chem. A 129, 2667-2682 (2025).
 Overview on Building Blocks and Applications of Efficient and Robust Extended 
 Tight Binding.
 https://doi.org/10.1021/acs.jpca.4c08263

 T. D. Kühne, M. Iannuzzi, M. Del Ben, V. V. Rybkin, P. Seewald, F. Stein, T. 
 Laino, R. Z. Khaliullin, O. Schütt, F. Schiffmann, D. Golze, J. Wilhelm, S. 
 Chulkov, M. H. Bani-Hashemian, V. Weber, U. Borstnik, M. Taillefumier, A. S. 
 Jakobovits, A. Lazzaro, H. Pabst, T. Müller, R. Schade, M. Guidon, S. 
 Andermatt, N. Holmberg, G. K. Schenter, A. Hehn, A. Bussy, F. Belleflamme, G. 
 Tabacchi, A. Glöß, M. Lass, I. Bethune, C. J. Mundy, C. Plessl, M. Watkins, 
 J. VandeVondele, M. Krack, J. Hutter.
 J. Chem. Phys. 152, 194103 (2020).
 CP2K: An electronic structure and molecular dynamics software package - 
 Quickstep: Efficient and accurate electronic structure calculations.
 https://doi.org/10.1063/5.0007045

 P. Pracht, E. Caldeweyher, S. Ehlert, S. Grimme.
 ChemRxiv, (2019).
 A Robust Non-Self-Consistent Tight-Binding Quantum Chemistry Method for large 
 Molecules.
 https://doi.org/10.26434/chemrxiv.8326202.v1

 S. Grimme, C. Bannwarth, P. Shushkov.
 J. Chem. Theory Comput. 13, 1989 (2017).
 A Robust and Accurate Tight-Binding Quantum Chemical Method for Structures, 
 Vibrational Frequencies, and Noncovalent Interactions of Large Molecular 
 Systems Parametrized for All spd-Block Elements (Z = 1-86).
 https://doi.org/10.1021/acs.jctc.7b00118

 O. Schuett, P. Messmer, J. Hutter, J. VandeVondele.
 Electronic Structure Calculations on Graphics Processing Units, 173-190 (2016).
 GPU-Accelerated Sparse Matrix-Matrix Multiplication for Linear Scaling Density 
 Functional Theory.
 https://doi.org/10.1002/9781118670712.ch8

 A. Heinecke, G. Henry, M. Hutchinson, H. Pabst.
 Proceedings of Intl. Supercomputing Conference, 981-991 (2016).
 LIBXSMM: Accelerating Small Matrix Multiplications by Runtime Code Generation.
 https://doi.org/10.1109/SC.2016.83

 U. Borstnik, J. VandeVondele, V. Weber, J. Hutter.
 Parallel Comput. 40, 47-58 (2014).
 Sparse matrix multiplication: The distributed block-compressed sparse row 
 library.
 https://doi.org/10.1016/j.parco.2014.03.012

 T. D. Kühne, M. Krack, F. R. Mohamed, M. Parrinello.
 Phys. Rev. Lett. 98, 066401 (2007).
 Efficient and accurate Car-Parrinello-like approach to Born-Oppenheimer 
 molecular dynamics.
 https://doi.org/10.1103/PhysRevLett.98.066401

 M. Frigo, S. G. Johnson.
 Proc. IEEE 93, 216-231 (2005).
 The design and implementation of FFTW3.
 https://doi.org/10.1109/JPROC.2004.840301

 J. Kolafa.
 J. Comput. Chem. 25, 335-342 (2004).
 Time-reversible always stable predictor-corrector method for molecular dynamics 
 of polarizable molecules.
 https://doi.org/10.1002/jcc.10385

 N. D. Mermin.
 Phys. Rev. 137, A1441-A1443 (1965).
 Thermal Properties of the Inhomogeneous Electron Gas.
 https://doi.org/10.1103/PhysRev.137.A1441


 -------------------------------------------------------------------------------
 -                                                                             -
 -                                T I M I N G                                  -
 -                                                                             -
 -------------------------------------------------------------------------------
 SUBROUTINE                       CALLS  ASD         SELF TIME        TOTAL TIME
                                MAXIMUM       AVERAGE  MAXIMUM  AVERAGE  MAXIMUM
 CP2K                                 1  1.0    0.002    0.002    0.149    0.149
 cp_geo_opt                           1  2.0    0.000    0.000    0.144    0.144
 geoopt_bfgs                          1  3.0    0.001    0.001    0.144    0.144
 cp_eval_at                           8  4.0    0.000    0.000    0.139    0.139
 qs_forces                            7  5.0    0.000    0.000    0.135    0.135
 qs_energies                          8  5.9    0.000    0.000    0.125    0.125
 scf_env_do_scf                       8  6.9    0.000    0.000    0.103    0.103
 scf_env_do_scf_inner_loop          101  8.0    0.011    0.011    0.103    0.103
 qs_scf_new_mos                     101  9.0    0.000    0.000    0.067    0.067
 cp_dbcsr_plus_fm_fm_t              115 10.9    0.000    0.000    0.032    0.032
 calculate_dm_sparse                108 10.0    0.000    0.000    0.031    0.031
 dbcsr_multiply_generic             140 11.9    0.001    0.001    0.027    0.027
 rebuild_ks_matrix                  108  9.8    0.000    0.000    0.026    0.026
 build_tblite_ks_matrix             108 10.8    0.025    0.025    0.026    0.026
 qs_ks_update_qs_env                101  9.0    0.000    0.000    0.021    0.021
 copy_dbcsr_to_fm                   227 10.5    0.001    0.001    0.019    0.019
 dbcsr_complete_redistribute        482 12.2    0.011    0.011    0.018    0.018
 eigensolver                        101 10.0    0.001    0.001    0.016    0.016
 make_m2s                           280 12.9    0.001    0.001    0.015    0.015
 cp_fm_syevd                        115 10.7    0.000    0.000    0.015    0.015
 build_tblite_matrices               15  7.0    0.006    0.006    0.014    0.014
 qs_diis_b_step                      93 10.0    0.000    0.000    0.012    0.012
 init_scf_run                         8  6.9    0.000    0.000    0.011    0.011
 cp_fm_syevd_base                   115 11.7    0.011    0.011    0.011    0.011
 scf_env_initial_rho_setup            8  7.9    0.000    0.000    0.010    0.010
 wfi_extrapolate                      8  8.9    0.000    0.000    0.010    0.010
 copy_fm_to_dbcsr                   255 11.8    0.000    0.000    0.009    0.009
 qs_energies_init_hamiltonians        8  6.9    0.000    0.000    0.008    0.008
 tb_get_multipole                    15  8.0    0.005    0.005    0.007    0.007
 make_images                        280 13.9    0.002    0.002    0.006    0.006
 qs_ks_update_qs_env_forces           7  6.0    0.000    0.000    0.006    0.006
 cp_dbcsr_sm_fm_multiply             25 10.4    0.000    0.000    0.006    0.006
 multiply_cannon                    140 12.9    0.002    0.002    0.006    0.006
 dbcsr_finalize                    2550 12.3    0.001    0.001    0.006    0.006
 dbcsr_desymmetrize_deep            227 11.5    0.002    0.002    0.005    0.005
 dbcsr_crop_matrix                  230 13.9    0.001    0.001    0.004    0.004
 dbcsr_create_new                  3661 13.1    0.003    0.003    0.004    0.004
 cp_dbcsr_sm_fm_multiply_core        25 11.4    0.000    0.000    0.003    0.003
 reorthogonalize_vectors              7  9.9    0.000    0.000    0.003    0.003
 make_basis_lowdin                    7 10.9    0.000    0.000    0.003    0.003
 dbcsr_copy_submatrix               230 14.9    0.001    0.001    0.003    0.003
 parallel_gemm_fm_gemm              243 10.7    0.000    0.000    0.003    0.003
 cp_fm_gemm                         243 11.7    0.003    0.003    0.003    0.003
 dbcsr_merge_all                    827 14.9    0.002    0.002    0.003    0.003
 -------------------------------------------------------------------------------

 The number of warnings for this run is : 0
 
 -------------------------------------------------------------------------------
  **** **** ******  **  PROGRAM ENDED AT                 2026-05-23 22:46:21.197
 ***** ** ***  *** **   PROGRAM RAN ON                                spark-c86c
 **    ****   ******    PROGRAM RAN BY                                  kuehne88
 ***** **    ** ** **   PROGRAM PROCESS ID                               2229603
  **** **  *******  **  PROGRAM STOPPED IN /home/kuehne88/periodic-gfn2-benchmar
                                           ks/X23b/runs/molecule_geoopt/GFN2/suc
                                           cinic_acid_GFN2_mol_geoopt
