 DBCSR| CPU Multiplication driver                                           BLAS (U)
 DBCSR| Multrec recursion limit                                              512 (U)
 DBCSR| Multiplication stack size                                           1000 (D)
 DBCSR| Maximum elements for images                                    UNLIMITED (U)
 DBCSR| Multiplicative factor virtual images                                   1 (U)
 DBCSR| Use multiplication densification                                       T (D)
 DBCSR| Multiplication size stacks                                             3 (U)
 DBCSR| Use memory pool for CPU allocation                                     F (U)
 DBCSR| Number of 3D layers                                               SINGLE (U)
 DBCSR| Use MPI memory allocation                                              F (U)
 DBCSR| Use RMA algorithm                                                      F (U)
 DBCSR| Use Communication thread                                               T (U)
 DBCSR| Communication thread load                                             87 (D)
 DBCSR| MPI: My process id                                                     0
 DBCSR| MPI: Number of processes                                               4
 DBCSR| OMP: Current number of threads                                         1
 DBCSR| OMP: Max number of threads                                             1
 DBCSR| Split modifier for TAS multiplication algorithm                  1.0E+00 (U)


  **** **** ******  **  PROGRAM STARTED AT               2026-07-16 09:56:43.609
 ***** ** ***  *** **   PROGRAM STARTED ON                                 terok
 **    ****   ******    PROGRAM STARTED BY                              kuehne88
 ***** **    ** ** **   PROGRAM PROCESS ID                               1647120
  **** **  *******  **  PROGRAM STARTED IN /home/kuehne88/work/gxtb-partial-pbc-
                                           20260716T0948/runs/gxtb_1d_x_k211_for
                                           ce_stress_spglib

 CP2K| version string:                 CP2K version 2026.1 (Development Version)
 CP2K| source code revision number:                                   28df9380ab
 CP2K| cp2kflags: omp fftw3 libxc parallel scalapack spglib s_dftd3 mctc-lib tbl
 CP2K|            ite tblite_gxtb
 CP2K| is freely available from                            https://www.cp2k.org/
 CP2K| Program compiled at                                   2026-07-14 21:43:32
 CP2K| Program compiled on                                                 terok
 CP2K| Program compiled for                                               x86_64
 CP2K| Data directory path    /home/kuehne88/work/codex-gxtb-post5582-clean-2026
 CP2K| Input file name                                                 input.inp

 GLOBAL| Force Environment number                                              1
 GLOBAL| Basis set file name                                           BASIS_SET
 GLOBAL| Potential file name                                           POTENTIAL
 GLOBAL| MM Potential file name                                     MM_POTENTIAL
 GLOBAL| Coordinate file name                                      __STD_INPUT__
 GLOBAL| Method name                                                        CP2K
 GLOBAL| Project name                                 Ar2_chain_gxtb_x_kp_spglib
 GLOBAL| Run type                                                          DEBUG
 GLOBAL| FFT library                                                       FFTW3
 GLOBAL| Diagonalization library                                       ScaLAPACK
 GLOBAL| Cholesky decomposition library                                ScaLAPACK
 GLOBAL| DGEMM library                                                      BLAS
 GLOBAL| Direct generalized diagonalization requested                          F
 GLOBAL| Orthonormality check for eigenvectors                          DISABLED
 GLOBAL| Matrix multiplication library                                 ScaLAPACK
 GLOBAL| All-to-all communication in single precision                          F
 GLOBAL| FFTs using library dependent lengths                                  F
 GLOBAL| Grid backend                                                       AUTO
 GLOBAL| Global print level                                               MEDIUM
 GLOBAL| MPI I/O enabled                                                       T
 GLOBAL| Total number of message passing processes                             4
 GLOBAL| Number of distributed systems (nodes)                                 1
 GLOBAL| Number of threads for this process                                    1
 GLOBAL| This output is from process                                           0
 GLOBAL| OpenMP stack size per thread (OMP_STACKSIZE)                    default
 GLOBAL| CPU model name                                       AMD EPYC Processor
 GLOBAL| CPUID                                                              1002

 MEMORY| system memory details [Kb]
 MEMORY|                        rank 0           min           max       average
 MEMORY| MemTotal            528104804     528104804     528104804     528104804
 MEMORY| MemFree             385392448     385390432     385392448     385391188
 MEMORY| Buffers                    20            20            20            20
 MEMORY| Cached              122674364     122674364     122674364     122674364
 MEMORY| Slab                  9533888       9533888       9533888       9533888
 MEMORY| SReclaimable          7144036       7144036       7144036       7144036
 MEMORY| MemLikelyFree       515210868     515208852     515210868     515209608


 *** Fundamental physical constants (SI units) ***

 *** Literature: B. J. Mohr and B. N. Taylor,
 ***             CODATA recommended values of the fundamental physical
 ***             constants: 2006, Web Version 5.1
 ***             http://physics.nist.gov/constants

 Speed of light in vacuum [m/s]                             2.99792458000000E+08
 Magnetic constant or permeability of vacuum [N/A**2]       1.25663706143592E-06
 Electric constant or permittivity of vacuum [F/m]          8.85418781762039E-12
 Planck constant (h) [J*s]                                  6.62606896000000E-34
 Planck constant (h-bar) [J*s]                              1.05457162825177E-34
 Elementary charge [C]                                      1.60217648700000E-19
 Electron mass [kg]                                         9.10938215000000E-31
 Electron g factor [ ]                                     -2.00231930436220E+00
 Proton mass [kg]                                           1.67262163700000E-27
 Fine-structure constant                                    7.29735253760000E-03
 Rydberg constant [1/m]                                     1.09737315685270E+07
 Avogadro constant [1/mol]                                  6.02214179000000E+23
 Boltzmann constant [J/K]                                   1.38065040000000E-23
 Atomic mass unit [kg]                                      1.66053878200000E-27
 Bohr radius [m]                                            5.29177208590000E-11

 *** Conversion factors ***

 [u] -> [a.u.]                                              1.82288848426455E+03
 [Angstrom] -> [Bohr] = [a.u.]                              1.88972613288564E+00
 [a.u.] = [Bohr] -> [Angstrom]                              5.29177208590000E-01
 [a.u.] -> [s]                                              2.41888432650478E-17
 [a.u.] -> [fs]                                             2.41888432650478E-02
 [a.u.] -> [J]                                              4.35974393937059E-18
 [a.u.] -> [N]                                              8.23872205491840E-08
 [a.u.] -> [K]                                              3.15774647902944E+05
 [a.u.] -> [kJ/mol]                                         2.62549961709828E+03
 [a.u.] -> [kcal/mol]                                       6.27509468713739E+02
 [a.u.] -> [Pa]                                             2.94210107994716E+13
 [a.u.] -> [bar]                                            2.94210107994716E+08
 [a.u.] -> [atm]                                            2.90362800883016E+08
 [a.u.] -> [eV]                                             2.72113838565563E+01
 [a.u.] -> [Hz]                                             6.57968392072181E+15
 [a.u.] -> [1/cm] (wave numbers)                            2.19474631370540E+05
 [a.u./Bohr**2] -> [1/cm]                                   5.14048714338585E+03
 

 CELL| Volume [angstrom^3]:                                          1704.240000
 CELL| Vector a [angstrom]:       5.260     0.000     0.000   |a| =     5.260000
 CELL| Vector b [angstrom]:       0.000    18.000     0.000   |b| =    18.000000
 CELL| Vector c [angstrom]:       0.000     0.000    18.000   |c| =    18.000000
 CELL| Angle (b,c), alpha [degree]:                                    90.000000
 CELL| Angle (a,c), beta  [degree]:                                    90.000000
 CELL| Angle (a,b), gamma [degree]:                                    90.000000
 CELL| Numerically orthorhombic:                                             YES
 CELL| Periodicity                                                             X

 CELL_REF| Volume [angstrom^3]:                                      1704.240000
 CELL_REF| Vector a [angstrom     5.260     0.000     0.000   |a| =     5.260000
 CELL_REF| Vector b [angstrom     0.000    18.000     0.000   |b| =    18.000000
 CELL_REF| Vector c [angstrom     0.000     0.000    18.000   |c| =    18.000000
 CELL_REF| Angle (b,c), alpha [degree]:                                90.000000
 CELL_REF| Angle (a,c), beta  [degree]:                                90.000000
 CELL_REF| Angle (a,b), gamma [degree]:                                90.000000
 CELL_REF| Numerically orthorhombic:                                         YES
 CELL_REF| Periodicity                                                         X

 GENERATE|  Preliminary Number of Bonds generated:                             0
 GENERATE|  Achieved consistency in connectivity generation.


                  #####   #####        #     #   #     #       #          
                 #     # #     #      #    ##### #     #   # #####  ####  
                 #     # #           #       #   ###   #       #   #    # 
                 #     #  #####     #        #   #  #  #   #   #   ###### 
                 #   # #       #   #         #   #   # #   #   #   #      
                 #    #  #     #  #          #   #  #  # # #   #    #   # 
                  #### #  #####  #           #   ###   ##  #   #     ###  

                                     g-xTB   
                                 Version 0.0                       
                            Johann V. Pototschnig                  

                tblite provider: SAVE
                tblite source revision: 257ba442684c39454175e5192c8a2342b4c6380f
                g-xTB support: enabled

 xTB| Parameter file                                             xTB1_parameters
 xTB| Basis expansion STO-NG                                                   6
 xTB| Basis expansion STO-NG for Hydrogen                                      4
 xTB| Repulsive pair potential accuracy                               0.1000E-09
 xTB| Repulsive enhancement factor                                      0.000000
 xTB| Halogen interaction potential                                            T
 xTB| Halogen interaction potential cutoff radius                         20.000
 xTB| Nonbonded interactions                                                   F
 xTB| vdW potential type:                                              DFTD3(BJ)
 xTB| D3 Dispersion: Parameter                                         dftd3.dat
 xTB| Huckel constants ks kp kd                        1.850     2.250     2.000
 xTB| Huckel constants ksp k2sh                                  2.080     2.850
 xTB| Mataga-Nishimoto exponent                                            2.000
 xTB| Repulsion potential exponent                                         1.500
 xTB| Coordination number scaling kcn(s) kcn(p) kc     0.006    -0.003    -0.005
 xTB| Electronegativity scaling                                           -0.007
 xTB| Halogen potential scaling kxr kx2                          1.300     0.440
 xTB| SCC mixer:                                                       AUTO
 xTB| tblite accuracy:                                                 1.000E+00
 xTB| tblite SCC mixer damping:                                            0.400
 xTB| tblite SCC mixer iterations:                                           250
 xTB| tblite SCC mixer memory:                                               250
 xTB| tblite SCC mixer solver:                                         GVD
 xTB| tblite SCC mixer omega0:                                         1.000E-02
 xTB| tblite SCC mixer min weight:                                     1.000E+00
 xTB| tblite SCC mixer max weight:                                     1.000E+05
 xTB| tblite SCC mixer weight factor:                                  1.000E-02




 ATOMIC KIND INFORMATION

  1. Atomic kind: Ar                                    Number of atoms:       2

     Orbital Basis Set                                                 Ar_STO-5G

       Number of orbital shell sets:                                           3
       Number of orbital shells:                                               3
       Number of primitive Cartesian functions:                               12
       Number of Cartesian basis functions:                                   10
       Number of spherical basis functions:                                    9
       Norm type:                                                              3

       Normalised Cartesian orbitals:

                        Set   Shell   Orbital            Exponent    Coefficient

                          1       1    1s               16.931104       0.069445
                                                         2.293011      -1.016928
                                                         1.777506       0.617592
                                                         0.473525       0.321216
                                                         0.172864       0.057224

                          2       1    2px               3.241555      -0.321785
                                                         1.120495       0.520051
                                                         0.440449       0.245570
                                                         0.234944       0.039337
                                                         0.125495       0.021069
                          2       1    2py               3.241555      -0.321785
                                                         1.120495       0.520051
                                                         0.440449       0.245570
                                                         0.234944       0.039337
                                                         0.125495       0.021069
                          2       1    2pz               3.241555      -0.321785
                                                         1.120495       0.520051
                                                         0.440449       0.245570
                                                         0.234944       0.039337
                                                         0.125495       0.021069

                          3       1    3dx2              1.767057       1.271209
                                                         0.372274       0.250064
                          3       1    3dxy              1.767057       2.201798
                                                         0.372274       0.433124
                          3       1    3dxz              1.767057       2.201798
                                                         0.372274       0.433124
                          3       1    3dy2              1.767057       1.271209
                                                         0.372274       0.250064
                          3       1    3dyz              1.767057       2.201798
                                                         0.372274       0.433124
                          3       1    3dz2              1.767057       1.271209
                                                         0.372274       0.250064

     AE Potential information for                                          Argon

       Description:                                       Bare Coulomb Potential
                                                             Valence charge only

       Gaussian exponent of the core charge distribution:               2.082466
       Electronic configuration (s p d ...):                       2   6   0   0


 MOLECULE KIND INFORMATION


 All atoms are their own molecule, skipping detailed information


 TOTAL NUMBERS AND MAXIMUM NUMBERS

  Total number of            - Atomic kinds:                                   1
                             - Atoms:                                          2
                             - Shell sets:                                     6
                             - Shells:                                         6
                             - Primitive Cartesian functions:                 24
                             - Cartesian basis functions:                     20
                             - Spherical basis functions:                     18

  Maximum angular momentum of the orbital basis functions:                     2


 MODULE QUICKSTEP: ATOMIC COORDINATES IN ANGSTROM

   Atom Kind Element         X             Y             Z       Z(eff)     Mass
      1    1 Ar   18      0.594380      9.018000      9.666000   8.0000  39.9480
      2    1 Ar   18      3.224380      9.414000      9.252000   8.0000  39.9480



 SCF PARAMETERS         Density guess:                                     MOPAC
                        --------------------------------------------------------
                        max_scf:                                             300
                        max_scf_history:                                       0
                        max_diis:                                              4
                        --------------------------------------------------------
                        eps_scf:                                        1.00E-10
                        eps_scf_history:                                0.00E+00
                        eps_diis:                                       1.00E-01
                        eps_eigval:                                     1.00E-05
                        --------------------------------------------------------
                        level_shift [a.u.]:                             0.000000
                        added MOs                                        10    0
                        --------------------------------------------------------
                        Mixing method:                           DIRECT_P_MIXING
                        --------------------------------------------------------
                        Smear method:                                FERMI_DIRAC
                        Electronic temperature [K]:                        300.0
                        Electronic temperature [a.u.]:                  9.50E-04
                        Accuracy threshold:                             1.00E-06
                        --------------------------------------------------------
                        No outer SCF

 PW_GRID| Information for grid number                                          1
 PW_GRID| Grid distributed over                                     4 processors
 PW_GRID| Real space group dimensions                                     4    1
 PW_GRID| the grid is blocked:                                                NO
 PW_GRID| Cutoff [a.u.]                                                      1.0
 PW_GRID| spherical cutoff:                                                   NO
 PW_GRID|   Bounds   1             -3       2                Points:           6
 PW_GRID|   Bounds   2             -7       7                Points:          15
 PW_GRID|   Bounds   3             -7       7                Points:          15
 PW_GRID| Volume element (a.u.^3)   8.519         Volume (a.u.^3)     11500.7817
 PW_GRID| Grid span                                                    FULLSPACE
 PW_GRID|   Distribution                         Average         Max         Min
 PW_GRID|   G-Vectors                              337.5         342         336
 PW_GRID|   G-Rays                                  56.2          57          56
 PW_GRID|   Real Space Points                      337.5         450         225

 POISSON| Solver                                                        PERIODIC
 POISSON| Periodicity                                                        XYZ

 RS_GRID| Information for grid number                                          1
 RS_GRID|   Bounds   1             -3       2                Points:           6
 RS_GRID|   Bounds   2             -7       7                Points:          15
 RS_GRID|   Bounds   3             -7       7                Points:          15
 RS_GRID| Real space fully replicated
 RS_GRID| Group size                                                           1

 *******************************************************************************
  **                     Special K-Point Generation by SPGLIB                 **
 *******************************************************************************
 *******************************************************************************
  **                              Finished SPGLIB                             **
 *******************************************************************************

 Crystal Symmetry Information
       International Symbol:                                              P2_1/m
       Point Group Symbol:                                                   2/m
       Schoenflies Symbol:                                                 C2h^2
       Number of Symmetry Operations:                                          4

 K-point Symmetry Information
       Number of Special K-points:                                             1
                   Wavevector Basis                                       Weight
          1  -0.25000   0.00000   0.00000                                      2

       K-point Mesh:                                               2     1     1
                   Wavevector Basis                   Special Points    Rotation
          1  -0.25000   0.00000   0.00000              1           1           1
          2   0.25000   0.00000   0.00000              1           1          -1

       Atom Transformation Table
          Rot=    1     1    2
          Rot=    2     2    1
          Rot=    3     2    1
          Rot=    4     1    2

 *******************************************************************************
                                    Kpoints
 *******************************************************************************
 BRILLOUIN| K-point scheme                                        Monkhorst-Pack
 BRILLOUIN| K-Point grid                                             2    1    1
 BRILLOUIN| K-point symmetry accuracy                               0.100000E-05
 BRILLOUIN| K-Point point group symmetrization                                ON
 BRILLOUIN| Symmetry backend                                             SPGLIB
 BRILLOUIN| Symmetry reduction method                                    SPGLIB
 BRILLOUIN| Wavefunction type                                            COMPLEX
 BRILLOUIN| List of Kpoints [2 Pi/Bohr]                                        1
 BRILLOUIN| Number           Weight            X              Y              Z
 BRILLOUIN|     1           1.00000       -0.25000        0.00000        0.00000
 *******************************************************************************

 KPOINTS| Number of kpoint groups                                              1
 KPOINTS| Size of each kpoint group                                            4
 KPOINTS| Number of kpoints per group                                          1

 *******************************************************************************
  **                     Special K-Point Generation by SPGLIB                 **
 *******************************************************************************
 *******************************************************************************
  **                              Finished SPGLIB                             **
 *******************************************************************************

 Crystal Symmetry Information
       International Symbol:                                              P2_1/m
       Point Group Symbol:                                                   2/m
       Schoenflies Symbol:                                                 C2h^2
       Number of Symmetry Operations:                                          4

 K-point Symmetry Information
       Number of Special K-points:                                             1
                   Wavevector Basis                                       Weight
          1  -0.25000   0.00000   0.00000                                      2

       K-point Mesh:                                               2     1     1
                   Wavevector Basis                   Special Points    Rotation
          1  -0.25000   0.00000   0.00000              1           1           1
          2   0.25000   0.00000   0.00000              1           1          -1

       Atom Transformation Table
          Rot=    1     1    2
          Rot=    2     2    1
          Rot=    3     2    1
          Rot=    4     1    2

 KPOINTS| Number of kpoint groups                                              1
 KPOINTS| Size of each kpoint group                                            4
 KPOINTS| Number of kpoints per group                                          1

 Extrapolation method: initial_guess

 Number of electrons:                                                         16
 Number of occupied orbitals:                                                  8
 Number of molecular orbitals:                                                18

 Number of orbital functions:                                                 18
 Number of independent orbital functions:                                     18


 SCF WAVEFUNCTION OPTIMIZATION

  Step     Update method      Time    Convergence         Total energy    Change
  ------------------------------------------------------------------------------
     1 GXTB-Raw    0.10E+01    0.0     2.03466602     -1055.1706856608 -1.06E+03
     2 GXTB-Simple 0.20E+00    0.0     0.01533751     -1055.1745442601 -3.86E-03
     3 GXTB-Simple 0.20E+00    0.0     0.00975473     -1055.1763683150 -1.82E-03
     4 GXTB-FDIIS  0.10E+01    0.0     0.03375167     -1055.1789005788 -2.53E-03
     5 GXTB-FDIIS  0.10E+01    0.0     0.00087218     -1055.1789037164 -3.14E-06
     6 GXTB-FDIIS  0.10E+01    0.0     0.00032750     -1055.1789040742 -3.58E-07
     7 GXTB-FDIIS  0.10E+01    0.0     0.00012858     -1055.1789041065 -3.23E-08
     8 GXTB-FDIIS  0.10E+01    0.0     0.00000665     -1055.1789041066 -7.55E-11
     9 GXTB-FDIIS  0.10E+01    0.0     0.00000016     -1055.1789041066 -2.27E-13
    10 GXTB-FDIIS  0.10E+01    0.0     0.00000006     -1055.1789041066  0.00E+00
    11 GXTB-FDIIS  0.10E+01    0.0     2.7733E-10     -1055.1789041066  2.27E-13
    12 GXTB-FDIIS  0.10E+01    0.0     1.3502E-11     -1055.1789041066 -2.27E-13

  *** SCF run converged in    12 steps ***


  Core Hamiltonian energy:                                     -4.63181595984615
  Repulsive potential energy:                                   0.01865061841572
  Electrostatic energy:                                         0.01646828791792
  Self-consistent dispersion energy:                           -0.00164658667882
  Non-self consistent dispersion energy:                       -0.00004522706065
  Correction for halogen bonding:                               0.00000000000000
  Electronic entropic energy:                                  -0.00000000000000
  Fermi energy:                                                -0.49644947699534

  Total energy:                                             -1055.17890410661016
  Total energy (extrapolated to T->0):                      -1055.17890410661016


 MULLIKEN POPULATION ANALYSIS

  # Atom   Element   Kind        Atomic population                    Net charge
       1     Ar         1                 8.000000                      0.000000
       2     Ar         1                 8.000000                      0.000000
 # Total charge                          16.000000                      0.000000


 ENERGY| Total FORCE_EVAL ( QS ) energy [hartree]          -1055.178904106610162

 *******************************************************************************
  **                     Special K-Point Generation by SPGLIB                 **
 *******************************************************************************
 *******************************************************************************
  **                              Finished SPGLIB                             **
 *******************************************************************************

 Crystal Symmetry Information
       International Symbol:                                              P2_1/m
       Point Group Symbol:                                                   2/m
       Schoenflies Symbol:                                                 C2h^2
       Number of Symmetry Operations:                                          4

 K-point Symmetry Information
       Number of Special K-points:                                             1
                   Wavevector Basis                                       Weight
          1  -0.25000   0.00000   0.00000                                      2

       K-point Mesh:                                               2     1     1
                   Wavevector Basis                   Special Points    Rotation
          1  -0.25000   0.00000   0.00000              1           1           1
          2   0.25000   0.00000   0.00000              1           1          -1

       Atom Transformation Table
          Rot=    1     1    2
          Rot=    2     2    1
          Rot=    3     2    1
          Rot=    4     1    2

 KPOINTS| Number of kpoint groups                                              1
 KPOINTS| Size of each kpoint group                                            4
 KPOINTS| Number of kpoints per group                                          1

 -------------------------------------------------------------------------------
 ----                             MULTIGRID INFO                            ----
 -------------------------------------------------------------------------------
 total grid count     :           624              cutoff [a.u.]            1.00

 PW_GRID| Information for grid number                                          2
 PW_GRID| Grid distributed over                                     4 processors
 PW_GRID| Real space group dimensions                                     4    1
 PW_GRID| the grid is blocked:                                                NO
 PW_GRID| Cutoff [a.u.]                                                      1.0
 PW_GRID| spherical cutoff:                                                   NO
 PW_GRID|   Bounds   1             -3       2                Points:           6
 PW_GRID|   Bounds   2             -7       7                Points:          15
 PW_GRID|   Bounds   3             -7       7                Points:          15
 PW_GRID| Volume element (a.u.^3)   8.519         Volume (a.u.^3)     11500.8974
 PW_GRID| Grid span                                                    FULLSPACE
 PW_GRID|   Distribution                         Average         Max         Min
 PW_GRID|   G-Vectors                              337.5         342         336
 PW_GRID|   G-Rays                                  56.2          57          56
 PW_GRID|   Real Space Points                      337.5         450         225

 POISSON| Solver                                                        PERIODIC
 POISSON| Periodicity                                                        XYZ

 RS_GRID| Information for grid number                                          2
 RS_GRID|   Bounds   1             -3       2                Points:           6
 RS_GRID|   Bounds   2             -7       7                Points:          15
 RS_GRID|   Bounds   3             -7       7                Points:          15
 RS_GRID| Real space fully replicated
 RS_GRID| Group size                                                           1

 Extrapolation method: initial_guess

 Number of electrons:                                                         16
 Number of occupied orbitals:                                                  8
 Number of molecular orbitals:                                                18

 Number of orbital functions:                                                 18
 Number of independent orbital functions:                                     18


 SCF WAVEFUNCTION OPTIMIZATION

  Step     Update method      Time    Convergence         Total energy    Change
  ------------------------------------------------------------------------------
     1 GXTB-Raw    0.10E+01    0.0     2.03466752     -1055.1706857239 -1.06E+03
     2 GXTB-Simple 0.20E+00    0.0     0.01533645     -1055.1745437569 -3.86E-03
     3 GXTB-Simple 0.20E+00    0.0     0.00975407     -1055.1763675507 -1.82E-03
     4 GXTB-FDIIS  0.10E+01    0.0     0.03374947     -1055.1788994622 -2.53E-03
     5 GXTB-FDIIS  0.10E+01    0.0     0.00087214     -1055.1789025995 -3.14E-06
     6 GXTB-FDIIS  0.10E+01    0.0     0.00032748     -1055.1789029572 -3.58E-07
     7 GXTB-FDIIS  0.10E+01    0.0     0.00012857     -1055.1789029896 -3.23E-08
     8 GXTB-FDIIS  0.10E+01    0.0     0.00000664     -1055.1789029896 -7.53E-11
     9 GXTB-FDIIS  0.10E+01    0.0     0.00000016     -1055.1789029896  0.00E+00
    10 GXTB-FDIIS  0.10E+01    0.0     0.00000006     -1055.1789029896  0.00E+00
    11 GXTB-FDIIS  0.10E+01    0.0     2.7727E-10     -1055.1789029896  0.00E+00
    12 GXTB-FDIIS  0.10E+01    0.0     1.3498E-11     -1055.1789029896  0.00E+00

  *** SCF run converged in    12 steps ***


  Core Hamiltonian energy:                                     -4.63181953283102
  Repulsive potential energy:                                   0.01864852126420
  Electrostatic energy:                                         0.01646848314580
  Self-consistent dispersion energy:                           -0.00164662576843
  Non-self consistent dispersion energy:                       -0.00004522686740
  Correction for halogen bonding:                               0.00000000000000
  Electronic entropic energy:                                  -0.00000000000000
  Fermi energy:                                                -0.49644943965362

  Total energy:                                             -1055.17890298964971
  Total energy (extrapolated to T->0):                      -1055.17890298964971


 MULLIKEN POPULATION ANALYSIS

  # Atom   Element   Kind        Atomic population                    Net charge
       1     Ar         1                 8.000000                     -0.000000
       2     Ar         1                 8.000000                     -0.000000
 # Total charge                          16.000000                     -0.000000


 ENERGY| Total FORCE_EVAL ( QS ) energy [hartree]          -1055.178902989649714

 *******************************************************************************
  **                     Special K-Point Generation by SPGLIB                 **
 *******************************************************************************
 *******************************************************************************
  **                              Finished SPGLIB                             **
 *******************************************************************************

 Crystal Symmetry Information
       International Symbol:                                              P2_1/m
       Point Group Symbol:                                                   2/m
       Schoenflies Symbol:                                                 C2h^2
       Number of Symmetry Operations:                                          4

 K-point Symmetry Information
       Number of Special K-points:                                             1
                   Wavevector Basis                                       Weight
          1  -0.25000   0.00000   0.00000                                      2

       K-point Mesh:                                               2     1     1
                   Wavevector Basis                   Special Points    Rotation
          1  -0.25000   0.00000   0.00000              1           1           1
          2   0.25000   0.00000   0.00000              1           1          -1

       Atom Transformation Table
          Rot=    1     1    2
          Rot=    2     2    1
          Rot=    3     2    1
          Rot=    4     1    2

 KPOINTS| Number of kpoint groups                                              1
 KPOINTS| Size of each kpoint group                                            4
 KPOINTS| Number of kpoints per group                                          1

 -------------------------------------------------------------------------------
 ----                             MULTIGRID INFO                            ----
 -------------------------------------------------------------------------------
 total grid count     :           624              cutoff [a.u.]            1.00

 PW_GRID| Information for grid number                                          3
 PW_GRID| Grid distributed over                                     4 processors
 PW_GRID| Real space group dimensions                                     4    1
 PW_GRID| the grid is blocked:                                                NO
 PW_GRID| Cutoff [a.u.]                                                      1.0
 PW_GRID| spherical cutoff:                                                   NO
 PW_GRID|   Bounds   1             -3       2                Points:           6
 PW_GRID|   Bounds   2             -7       7                Points:          15
 PW_GRID|   Bounds   3             -7       7                Points:          15
 PW_GRID| Volume element (a.u.^3)   8.519         Volume (a.u.^3)     11500.6660
 PW_GRID| Grid span                                                    FULLSPACE
 PW_GRID|   Distribution                         Average         Max         Min
 PW_GRID|   G-Vectors                              337.5         342         336
 PW_GRID|   G-Rays                                  56.2          57          56
 PW_GRID|   Real Space Points                      337.5         450         225

 POISSON| Solver                                                        PERIODIC
 POISSON| Periodicity                                                        XYZ

 RS_GRID| Information for grid number                                          3
 RS_GRID|   Bounds   1             -3       2                Points:           6
 RS_GRID|   Bounds   2             -7       7                Points:          15
 RS_GRID|   Bounds   3             -7       7                Points:          15
 RS_GRID| Real space fully replicated
 RS_GRID| Group size                                                           1

 Extrapolation method: initial_guess

 Number of electrons:                                                         16
 Number of occupied orbitals:                                                  8
 Number of molecular orbitals:                                                18

 Number of orbital functions:                                                 18
 Number of independent orbital functions:                                     18


 SCF WAVEFUNCTION OPTIMIZATION

  Step     Update method      Time    Convergence         Total energy    Change
  ------------------------------------------------------------------------------
     1 GXTB-Raw    0.10E+01    0.0     2.03466452     -1055.1706855973 -1.06E+03
     2 GXTB-Simple 0.20E+00    0.0     0.01533856     -1055.1745447631 -3.86E-03
     3 GXTB-Simple 0.20E+00    0.0     0.00975539     -1055.1763690791 -1.82E-03
     4 GXTB-FDIIS  0.10E+01    0.0     0.03375387     -1055.1789016951 -2.53E-03
     5 GXTB-FDIIS  0.10E+01    0.0     0.00087222     -1055.1789048332 -3.14E-06
     6 GXTB-FDIIS  0.10E+01    0.0     0.00032752     -1055.1789051910 -3.58E-07
     7 GXTB-FDIIS  0.10E+01    0.0     0.00012859     -1055.1789052233 -3.23E-08
     8 GXTB-FDIIS  0.10E+01    0.0     0.00000665     -1055.1789052234 -7.57E-11
     9 GXTB-FDIIS  0.10E+01    0.0     0.00000016     -1055.1789052234  0.00E+00
    10 GXTB-FDIIS  0.10E+01    0.0     0.00000006     -1055.1789052234  0.00E+00
    11 GXTB-FDIIS  0.10E+01    0.0     2.7738E-10     -1055.1789052234  2.27E-13
    12 GXTB-FDIIS  0.10E+01    0.0     1.3506E-11     -1055.1789052234 -2.27E-13

  *** SCF run converged in    12 steps ***


  Core Hamiltonian energy:                                     -4.63181238663629
  Repulsive potential energy:                                   0.01865271578993
  Electrostatic energy:                                         0.01646809266183
  Self-consistent dispersion energy:                           -0.00164654758783
  Non-self consistent dispersion energy:                       -0.00004522725384
  Correction for halogen bonding:                               0.00000000000000
  Electronic entropic energy:                                  -0.00000000000000
  Fermi energy:                                                -0.49644951435599

  Total energy:                                             -1055.17890522338098
  Total energy (extrapolated to T->0):                      -1055.17890522338098


 MULLIKEN POPULATION ANALYSIS

  # Atom   Element   Kind        Atomic population                    Net charge
       1     Ar         1                 8.000000                     -0.000000
       2     Ar         1                 8.000000                      0.000000
 # Total charge                          16.000000                     -0.000000


 ENERGY| Total FORCE_EVAL ( QS ) energy [hartree]          -1055.178905223380980

 *******************************************************************************
  **                     Special K-Point Generation by SPGLIB                 **
 *******************************************************************************
 *******************************************************************************
  **                              Finished SPGLIB                             **
 *******************************************************************************

 Crystal Symmetry Information
       International Symbol:                                              P2_1/m
       Point Group Symbol:                                                   2/m
       Schoenflies Symbol:                                                 C2h^2
       Number of Symmetry Operations:                                          4

 K-point Symmetry Information
       Number of Special K-points:                                             1
                   Wavevector Basis                                       Weight
          1  -0.25000   0.00000   0.00000                                      2

       K-point Mesh:                                               2     1     1
                   Wavevector Basis                   Special Points    Rotation
          1  -0.25000   0.00000   0.00000              1           1           1
          2   0.25000   0.00000   0.00000              1           1          -1

       Atom Transformation Table
          Rot=    1     1    2
          Rot=    2     2    1
          Rot=    3     2    1
          Rot=    4     1    2

 KPOINTS| Number of kpoint groups                                              1
 KPOINTS| Size of each kpoint group                                            4
 KPOINTS| Number of kpoints per group                                          1

 -------------------------------------------------------------------------------
 ----                             MULTIGRID INFO                            ----
 -------------------------------------------------------------------------------
 total grid count     :           624              cutoff [a.u.]            1.00

 PW_GRID| Information for grid number                                          4
 PW_GRID| Grid distributed over                                     4 processors
 PW_GRID| Real space group dimensions                                     4    1
 PW_GRID| the grid is blocked:                                                NO
 PW_GRID| Cutoff [a.u.]                                                      1.0
 PW_GRID| spherical cutoff:                                                   NO
 PW_GRID|   Bounds   1             -3       2                Points:           6
 PW_GRID|   Bounds   2             -7       7                Points:          15
 PW_GRID|   Bounds   3             -7       7                Points:          15
 PW_GRID| Volume element (a.u.^3)   8.519         Volume (a.u.^3)     11500.8155
 PW_GRID| Grid span                                                    FULLSPACE
 PW_GRID|   Distribution                         Average         Max         Min
 PW_GRID|   G-Vectors                              337.5         342         336
 PW_GRID|   G-Rays                                  56.2          57          56
 PW_GRID|   Real Space Points                      337.5         450         225

 POISSON| Solver                                                        PERIODIC
 POISSON| Periodicity                                                        XYZ

 RS_GRID| Information for grid number                                          4
 RS_GRID|   Bounds   1             -3       2                Points:           6
 RS_GRID|   Bounds   2             -7       7                Points:          15
 RS_GRID|   Bounds   3             -7       7                Points:          15
 RS_GRID| Real space fully replicated
 RS_GRID| Group size                                                           1

 Extrapolation method: initial_guess

 Number of electrons:                                                         16
 Number of occupied orbitals:                                                  8
 Number of molecular orbitals:                                                18

 Number of orbital functions:                                                 18
 Number of independent orbital functions:                                     18


 SCF WAVEFUNCTION OPTIMIZATION

  Step     Update method      Time    Convergence         Total energy    Change
  ------------------------------------------------------------------------------
     1 GXTB-Raw    0.10E+01    0.0     2.03466603     -1055.1706856896 -1.06E+03
     2 GXTB-Simple 0.20E+00    0.0     0.01533749     -1055.1745442845 -3.86E-03
     3 GXTB-Simple 0.20E+00    0.0     0.00975472     -1055.1763683374 -1.82E-03
     4 GXTB-FDIIS  0.10E+01    0.0     0.03375164     -1055.1789005986 -2.53E-03
     5 GXTB-FDIIS  0.10E+01    0.0     0.00087218     -1055.1789037363 -3.14E-06
     6 GXTB-FDIIS  0.10E+01    0.0     0.00032750     -1055.1789040940 -3.58E-07
     7 GXTB-FDIIS  0.10E+01    0.0     0.00012858     -1055.1789041264 -3.23E-08
     8 GXTB-FDIIS  0.10E+01    0.0     0.00000665     -1055.1789041264 -7.55E-11
     9 GXTB-FDIIS  0.10E+01    0.0     0.00000016     -1055.1789041264  0.00E+00
    10 GXTB-FDIIS  0.10E+01    0.0     0.00000006     -1055.1789041264 -2.27E-13
    11 GXTB-FDIIS  0.10E+01    0.0     2.7733E-10     -1055.1789041264  2.27E-13
    12 GXTB-FDIIS  0.10E+01    0.0     1.3502E-11     -1055.1789041264 -2.27E-13

  *** SCF run converged in    12 steps ***


  Core Hamiltonian energy:                                     -4.63181598361209
  Repulsive potential energy:                                   0.01865060452119
  Electrostatic energy:                                         0.01646828949000
  Self-consistent dispersion energy:                           -0.00164658699688
  Non-self consistent dispersion energy:                       -0.00004522704457
  Correction for halogen bonding:                               0.00000000000000
  Electronic entropic energy:                                  -0.00000000000000
  Fermi energy:                                                -0.49644948030313

  Total energy:                                             -1055.17890412643146
  Total energy (extrapolated to T->0):                      -1055.17890412643146


 MULLIKEN POPULATION ANALYSIS

  # Atom   Element   Kind        Atomic population                    Net charge
       1     Ar         1                 8.000000                      0.000000
       2     Ar         1                 8.000000                      0.000000
 # Total charge                          16.000000                      0.000000


 ENERGY| Total FORCE_EVAL ( QS ) energy [hartree]          -1055.178904126431462

 *******************************************************************************
  **                     Special K-Point Generation by SPGLIB                 **
 *******************************************************************************
 *******************************************************************************
  **                              Finished SPGLIB                             **
 *******************************************************************************

 Crystal Symmetry Information
       International Symbol:                                              P2_1/m
       Point Group Symbol:                                                   2/m
       Schoenflies Symbol:                                                 C2h^2
       Number of Symmetry Operations:                                          4

 K-point Symmetry Information
       Number of Special K-points:                                             1
                   Wavevector Basis                                       Weight
          1  -0.25000   0.00000   0.00000                                      2

       K-point Mesh:                                               2     1     1
                   Wavevector Basis                   Special Points    Rotation
          1  -0.25000   0.00000   0.00000              1           1           1
          2   0.25000   0.00000   0.00000              1           1          -1

       Atom Transformation Table
          Rot=    1     1    2
          Rot=    2     2    1
          Rot=    3     2    1
          Rot=    4     1    2

 KPOINTS| Number of kpoint groups                                              1
 KPOINTS| Size of each kpoint group                                            4
 KPOINTS| Number of kpoints per group                                          1

 -------------------------------------------------------------------------------
 ----                             MULTIGRID INFO                            ----
 -------------------------------------------------------------------------------
 total grid count     :           624              cutoff [a.u.]            1.00

 PW_GRID| Information for grid number                                          5
 PW_GRID| Grid distributed over                                     4 processors
 PW_GRID| Real space group dimensions                                     4    1
 PW_GRID| the grid is blocked:                                                NO
 PW_GRID| Cutoff [a.u.]                                                      1.0
 PW_GRID| spherical cutoff:                                                   NO
 PW_GRID|   Bounds   1             -3       2                Points:           6
 PW_GRID|   Bounds   2             -7       7                Points:          15
 PW_GRID|   Bounds   3             -7       7                Points:          15
 PW_GRID| Volume element (a.u.^3)   8.519         Volume (a.u.^3)     11500.7479
 PW_GRID| Grid span                                                    FULLSPACE
 PW_GRID|   Distribution                         Average         Max         Min
 PW_GRID|   G-Vectors                              337.5         342         336
 PW_GRID|   G-Rays                                  56.2          57          56
 PW_GRID|   Real Space Points                      337.5         450         225

 POISSON| Solver                                                        PERIODIC
 POISSON| Periodicity                                                        XYZ

 RS_GRID| Information for grid number                                          5
 RS_GRID|   Bounds   1             -3       2                Points:           6
 RS_GRID|   Bounds   2             -7       7                Points:          15
 RS_GRID|   Bounds   3             -7       7                Points:          15
 RS_GRID| Real space fully replicated
 RS_GRID| Group size                                                           1

 Extrapolation method: initial_guess

 Number of electrons:                                                         16
 Number of occupied orbitals:                                                  8
 Number of molecular orbitals:                                                18

 Number of orbital functions:                                                 18
 Number of independent orbital functions:                                     18


 SCF WAVEFUNCTION OPTIMIZATION

  Step     Update method      Time    Convergence         Total energy    Change
  ------------------------------------------------------------------------------
     1 GXTB-Raw    0.10E+01    0.0     2.03466600     -1055.1706856319 -1.06E+03
     2 GXTB-Simple 0.20E+00    0.0     0.01533752     -1055.1745442357 -3.86E-03
     3 GXTB-Simple 0.20E+00    0.0     0.00975474     -1055.1763682926 -1.82E-03
     4 GXTB-FDIIS  0.10E+01    0.0     0.03375170     -1055.1789005589 -2.53E-03
     5 GXTB-FDIIS  0.10E+01    0.0     0.00087218     -1055.1789036966 -3.14E-06
     6 GXTB-FDIIS  0.10E+01    0.0     0.00032750     -1055.1789040544 -3.58E-07
     7 GXTB-FDIIS  0.10E+01    0.0     0.00012858     -1055.1789040867 -3.23E-08
     8 GXTB-FDIIS  0.10E+01    0.0     0.00000665     -1055.1789040868 -7.55E-11
     9 GXTB-FDIIS  0.10E+01    0.0     0.00000016     -1055.1789040868  2.27E-13
    10 GXTB-FDIIS  0.10E+01    0.0     0.00000006     -1055.1789040868 -4.55E-13
    11 GXTB-FDIIS  0.10E+01    0.0     2.7733E-10     -1055.1789040868  2.27E-13
    12 GXTB-FDIIS  0.10E+01    0.0     1.3502E-11     -1055.1789040868  0.00E+00

  *** SCF run converged in    12 steps ***


  Core Hamiltonian energy:                                     -4.63181593608027
  Repulsive potential energy:                                   0.01865063231022
  Electrostatic energy:                                         0.01646828634585
  Self-consistent dispersion energy:                           -0.00164658636076
  Non-self consistent dispersion energy:                       -0.00004522707674
  Correction for halogen bonding:                               0.00000000000000
  Electronic entropic energy:                                  -0.00000000000000
  Fermi energy:                                                -0.49644947368755

  Total energy:                                             -1055.17890408678886
  Total energy (extrapolated to T->0):                      -1055.17890408678886


 MULLIKEN POPULATION ANALYSIS

  # Atom   Element   Kind        Atomic population                    Net charge
       1     Ar         1                 8.000000                      0.000000
       2     Ar         1                 8.000000                      0.000000
 # Total charge                          16.000000                      0.000000


 ENERGY| Total FORCE_EVAL ( QS ) energy [hartree]          -1055.178904086788862

 *******************************************************************************
  **                     Special K-Point Generation by SPGLIB                 **
 *******************************************************************************
 *******************************************************************************
  **                              Finished SPGLIB                             **
 *******************************************************************************

 Crystal Symmetry Information
       International Symbol:                                              P2_1/m
       Point Group Symbol:                                                   2/m
       Schoenflies Symbol:                                                 C2h^2
       Number of Symmetry Operations:                                          4

 K-point Symmetry Information
       Number of Special K-points:                                             1
                   Wavevector Basis                                       Weight
          1  -0.25000   0.00000   0.00000                                      2

       K-point Mesh:                                               2     1     1
                   Wavevector Basis                   Special Points    Rotation
          1  -0.25000   0.00000   0.00000              1           1           1
          2   0.25000   0.00000   0.00000              1           1          -1

       Atom Transformation Table
          Rot=    1     1    2
          Rot=    2     2    1
          Rot=    3     2    1
          Rot=    4     1    2

 KPOINTS| Number of kpoint groups                                              1
 KPOINTS| Size of each kpoint group                                            4
 KPOINTS| Number of kpoints per group                                          1

 -------------------------------------------------------------------------------
 ----                             MULTIGRID INFO                            ----
 -------------------------------------------------------------------------------
 total grid count     :           624              cutoff [a.u.]            1.00

 PW_GRID| Information for grid number                                          6
 PW_GRID| Grid distributed over                                     4 processors
 PW_GRID| Real space group dimensions                                     4    1
 PW_GRID| the grid is blocked:                                                NO
 PW_GRID| Cutoff [a.u.]                                                      1.0
 PW_GRID| spherical cutoff:                                                   NO
 PW_GRID|   Bounds   1             -3       2                Points:           6
 PW_GRID|   Bounds   2             -7       7                Points:          15
 PW_GRID|   Bounds   3             -7       7                Points:          15
 PW_GRID| Volume element (a.u.^3)   8.519         Volume (a.u.^3)     11500.8155
 PW_GRID| Grid span                                                    FULLSPACE
 PW_GRID|   Distribution                         Average         Max         Min
 PW_GRID|   G-Vectors                              337.5         342         336
 PW_GRID|   G-Rays                                  56.2          57          56
 PW_GRID|   Real Space Points                      337.5         450         225

 POISSON| Solver                                                        PERIODIC
 POISSON| Periodicity                                                        XYZ

 RS_GRID| Information for grid number                                          6
 RS_GRID|   Bounds   1             -3       2                Points:           6
 RS_GRID|   Bounds   2             -7       7                Points:          15
 RS_GRID|   Bounds   3             -7       7                Points:          15
 RS_GRID| Real space fully replicated
 RS_GRID| Group size                                                           1

 Extrapolation method: initial_guess

 Number of electrons:                                                         16
 Number of occupied orbitals:                                                  8
 Number of molecular orbitals:                                                18

 Number of orbital functions:                                                 18
 Number of independent orbital functions:                                     18


 SCF WAVEFUNCTION OPTIMIZATION

  Step     Update method      Time    Convergence         Total energy    Change
  ------------------------------------------------------------------------------
     1 GXTB-Raw    0.10E+01    0.0     2.03466603     -1055.1706856923 -1.06E+03
     2 GXTB-Simple 0.20E+00    0.0     0.01533749     -1055.1745442867 -3.86E-03
     3 GXTB-Simple 0.20E+00    0.0     0.00975472     -1055.1763683395 -1.82E-03
     4 GXTB-FDIIS  0.10E+01    0.0     0.03375164     -1055.1789006004 -2.53E-03
     5 GXTB-FDIIS  0.10E+01    0.0     0.00087218     -1055.1789037381 -3.14E-06
     6 GXTB-FDIIS  0.10E+01    0.0     0.00032750     -1055.1789040959 -3.58E-07
     7 GXTB-FDIIS  0.10E+01    0.0     0.00012858     -1055.1789041282 -3.23E-08
     8 GXTB-FDIIS  0.10E+01    0.0     0.00000665     -1055.1789041283 -7.55E-11
     9 GXTB-FDIIS  0.10E+01    0.0     0.00000016     -1055.1789041283  2.27E-13
    10 GXTB-FDIIS  0.10E+01    0.0     0.00000006     -1055.1789041283  0.00E+00
    11 GXTB-FDIIS  0.10E+01    0.0     2.7733E-10     -1055.1789041283 -2.27E-13
    12 GXTB-FDIIS  0.10E+01    0.0     1.3502E-11     -1055.1789041283  0.00E+00

  *** SCF run converged in    12 steps ***


  Core Hamiltonian energy:                                     -4.63181598582173
  Repulsive potential energy:                                   0.01865060322934
  Electrostatic energy:                                         0.01646828963616
  Self-consistent dispersion energy:                           -0.00164658702645
  Non-self consistent dispersion energy:                       -0.00004522704307
  Correction for halogen bonding:                               0.00000000000000
  Electronic entropic energy:                                  -0.00000000000000
  Fermi energy:                                                -0.49644948060024

  Total energy:                                             -1055.17890412827433
  Total energy (extrapolated to T->0):                      -1055.17890412827433


 MULLIKEN POPULATION ANALYSIS

  # Atom   Element   Kind        Atomic population                    Net charge
       1     Ar         1                 8.000000                      0.000000
       2     Ar         1                 8.000000                      0.000000
 # Total charge                          16.000000                      0.000000


 ENERGY| Total FORCE_EVAL ( QS ) energy [hartree]          -1055.178904128274326

 *******************************************************************************
  **                     Special K-Point Generation by SPGLIB                 **
 *******************************************************************************
 *******************************************************************************
  **                              Finished SPGLIB                             **
 *******************************************************************************

 Crystal Symmetry Information
       International Symbol:                                              P2_1/m
       Point Group Symbol:                                                   2/m
       Schoenflies Symbol:                                                 C2h^2
       Number of Symmetry Operations:                                          4

 K-point Symmetry Information
       Number of Special K-points:                                             1
                   Wavevector Basis                                       Weight
          1  -0.25000   0.00000   0.00000                                      2

       K-point Mesh:                                               2     1     1
                   Wavevector Basis                   Special Points    Rotation
          1  -0.25000   0.00000   0.00000              1           1           1
          2   0.25000   0.00000   0.00000              1           1          -1

       Atom Transformation Table
          Rot=    1     1    2
          Rot=    2     2    1
          Rot=    3     2    1
          Rot=    4     1    2

 KPOINTS| Number of kpoint groups                                              1
 KPOINTS| Size of each kpoint group                                            4
 KPOINTS| Number of kpoints per group                                          1

 -------------------------------------------------------------------------------
 ----                             MULTIGRID INFO                            ----
 -------------------------------------------------------------------------------
 total grid count     :           624              cutoff [a.u.]            1.00

 PW_GRID| Information for grid number                                          7
 PW_GRID| Grid distributed over                                     4 processors
 PW_GRID| Real space group dimensions                                     4    1
 PW_GRID| the grid is blocked:                                                NO
 PW_GRID| Cutoff [a.u.]                                                      1.0
 PW_GRID| spherical cutoff:                                                   NO
 PW_GRID|   Bounds   1             -3       2                Points:           6
 PW_GRID|   Bounds   2             -7       7                Points:          15
 PW_GRID|   Bounds   3             -7       7                Points:          15
 PW_GRID| Volume element (a.u.^3)   8.519         Volume (a.u.^3)     11500.7479
 PW_GRID| Grid span                                                    FULLSPACE
 PW_GRID|   Distribution                         Average         Max         Min
 PW_GRID|   G-Vectors                              337.5         342         336
 PW_GRID|   G-Rays                                  56.2          57          56
 PW_GRID|   Real Space Points                      337.5         450         225

 POISSON| Solver                                                        PERIODIC
 POISSON| Periodicity                                                        XYZ

 RS_GRID| Information for grid number                                          7
 RS_GRID|   Bounds   1             -3       2                Points:           6
 RS_GRID|   Bounds   2             -7       7                Points:          15
 RS_GRID|   Bounds   3             -7       7                Points:          15
 RS_GRID| Real space fully replicated
 RS_GRID| Group size                                                           1

 Extrapolation method: initial_guess

 Number of electrons:                                                         16
 Number of occupied orbitals:                                                  8
 Number of molecular orbitals:                                                18

 Number of orbital functions:                                                 18
 Number of independent orbital functions:                                     18


 SCF WAVEFUNCTION OPTIMIZATION

  Step     Update method      Time    Convergence         Total energy    Change
  ------------------------------------------------------------------------------
     1 GXTB-Raw    0.10E+01    0.0     2.03466600     -1055.1706856293 -1.06E+03
     2 GXTB-Simple 0.20E+00    0.0     0.01533752     -1055.1745442335 -3.86E-03
     3 GXTB-Simple 0.20E+00    0.0     0.00975474     -1055.1763682905 -1.82E-03
     4 GXTB-FDIIS  0.10E+01    0.0     0.03375170     -1055.1789005571 -2.53E-03
     5 GXTB-FDIIS  0.10E+01    0.0     0.00087218     -1055.1789036948 -3.14E-06
     6 GXTB-FDIIS  0.10E+01    0.0     0.00032750     -1055.1789040525 -3.58E-07
     7 GXTB-FDIIS  0.10E+01    0.0     0.00012858     -1055.1789040849 -3.23E-08
     8 GXTB-FDIIS  0.10E+01    0.0     0.00000665     -1055.1789040849 -7.53E-11
     9 GXTB-FDIIS  0.10E+01    0.0     0.00000016     -1055.1789040849  0.00E+00
    10 GXTB-FDIIS  0.10E+01    0.0     0.00000006     -1055.1789040849  0.00E+00
    11 GXTB-FDIIS  0.10E+01    0.0     2.7733E-10     -1055.1789040849  0.00E+00
    12 GXTB-FDIIS  0.10E+01    0.0     1.3502E-11     -1055.1789040849  0.00E+00

  *** SCF run converged in    12 steps ***


  Core Hamiltonian energy:                                     -4.63181593387064
  Repulsive potential energy:                                   0.01865063360207
  Electrostatic energy:                                         0.01646828619969
  Self-consistent dispersion energy:                           -0.00164658633119
  Non-self consistent dispersion energy:                       -0.00004522707824
  Correction for halogen bonding:                               0.00000000000000
  Electronic entropic energy:                                  -0.00000000000000
  Fermi energy:                                                -0.49644947339044

  Total energy:                                             -1055.17890408494600
  Total energy (extrapolated to T->0):                      -1055.17890408494600


 MULLIKEN POPULATION ANALYSIS

  # Atom   Element   Kind        Atomic population                    Net charge
       1     Ar         1                 8.000000                     -0.000000
       2     Ar         1                 8.000000                     -0.000000
 # Total charge                          16.000000                     -0.000000


 ENERGY| Total FORCE_EVAL ( QS ) energy [hartree]          -1055.178904084945998

 *******************************************************************************
  **                     Special K-Point Generation by SPGLIB                 **
 *******************************************************************************
 *******************************************************************************
  **                              Finished SPGLIB                             **
 *******************************************************************************

 Crystal Symmetry Information
       International Symbol:                                              P2_1/m
       Point Group Symbol:                                                   2/m
       Schoenflies Symbol:                                                 C2h^2
       Number of Symmetry Operations:                                          4

 K-point Symmetry Information
       Number of Special K-points:                                             1
                   Wavevector Basis                                       Weight
          1  -0.25000   0.00000   0.00000                                      2

       K-point Mesh:                                               2     1     1
                   Wavevector Basis                   Special Points    Rotation
          1  -0.25000   0.00000   0.00000              1           1           1
          2   0.25000   0.00000   0.00000              1           1          -1

       Atom Transformation Table
          Rot=    1     1    2
          Rot=    2     2    1
          Rot=    3     2    1
          Rot=    4     1    2

 KPOINTS| Number of kpoint groups                                              1
 KPOINTS| Size of each kpoint group                                            4
 KPOINTS| Number of kpoints per group                                          1

 -------------------------------------------------------------------------------
 ----                             MULTIGRID INFO                            ----
 -------------------------------------------------------------------------------
 total grid count     :           624              cutoff [a.u.]            1.00

 PW_GRID| Information for grid number                                          8
 PW_GRID| Grid distributed over                                     4 processors
 PW_GRID| Real space group dimensions                                     4    1
 PW_GRID| the grid is blocked:                                                NO
 PW_GRID| Cutoff [a.u.]                                                      1.0
 PW_GRID| spherical cutoff:                                                   NO
 PW_GRID|   Bounds   1             -3       2                Points:           6
 PW_GRID|   Bounds   2             -7       7                Points:          15
 PW_GRID|   Bounds   3             -7       7                Points:          15
 PW_GRID| Volume element (a.u.^3)   8.519         Volume (a.u.^3)     11500.7817
 PW_GRID| Grid span                                                    FULLSPACE
 PW_GRID|   Distribution                         Average         Max         Min
 PW_GRID|   G-Vectors                              337.5         342         336
 PW_GRID|   G-Rays                                  56.2          57          56
 PW_GRID|   Real Space Points                      337.5         450         225

 POISSON| Solver                                                        PERIODIC
 POISSON| Periodicity                                                        XYZ

 RS_GRID| Information for grid number                                          8
 RS_GRID|   Bounds   1             -3       2                Points:           6
 RS_GRID|   Bounds   2             -7       7                Points:          15
 RS_GRID|   Bounds   3             -7       7                Points:          15
 RS_GRID| Real space fully replicated
 RS_GRID| Group size                                                           1

 Extrapolation method: initial_guess

 Number of electrons:                                                         16
 Number of occupied orbitals:                                                  8
 Number of molecular orbitals:                                                18

 Number of orbital functions:                                                 18
 Number of independent orbital functions:                                     18


 SCF WAVEFUNCTION OPTIMIZATION

  Step     Update method      Time    Convergence         Total energy    Change
  ------------------------------------------------------------------------------
     1 GXTB-Raw    0.10E+01    0.0     2.03466602     -1055.1706856608 -1.06E+03
     2 GXTB-Simple 0.20E+00    0.0     0.01533751     -1055.1745442601 -3.86E-03
     3 GXTB-Simple 0.20E+00    0.0     0.00975473     -1055.1763683150 -1.82E-03
     4 GXTB-FDIIS  0.10E+01    0.0     0.03375167     -1055.1789005788 -2.53E-03
     5 GXTB-FDIIS  0.10E+01    0.0     0.00087218     -1055.1789037164 -3.14E-06
     6 GXTB-FDIIS  0.10E+01    0.0     0.00032750     -1055.1789040742 -3.58E-07
     7 GXTB-FDIIS  0.10E+01    0.0     0.00012858     -1055.1789041065 -3.23E-08
     8 GXTB-FDIIS  0.10E+01    0.0     0.00000665     -1055.1789041066 -7.55E-11
     9 GXTB-FDIIS  0.10E+01    0.0     0.00000016     -1055.1789041066 -2.27E-13
    10 GXTB-FDIIS  0.10E+01    0.0     0.00000006     -1055.1789041066  0.00E+00
    11 GXTB-FDIIS  0.10E+01    0.0     2.7733E-10     -1055.1789041066  2.27E-13
    12 GXTB-FDIIS  0.10E+01    0.0     1.3502E-11     -1055.1789041066 -2.27E-13

  *** SCF run converged in    12 steps ***


  Core Hamiltonian energy:                                     -4.63181595984615
  Repulsive potential energy:                                   0.01865061841572
  Electrostatic energy:                                         0.01646828791792
  Self-consistent dispersion energy:                           -0.00164658667882
  Non-self consistent dispersion energy:                       -0.00004522706065
  Correction for halogen bonding:                               0.00000000000000
  Electronic entropic energy:                                  -0.00000000000000
  Fermi energy:                                                -0.49644947699534

  Total energy:                                             -1055.17890410661016
  Total energy (extrapolated to T->0):                      -1055.17890410661016


 MULLIKEN POPULATION ANALYSIS

  # Atom   Element   Kind        Atomic population                    Net charge
       1     Ar         1                 8.000000                      0.000000
       2     Ar         1                 8.000000                      0.000000
 # Total charge                          16.000000                      0.000000


 ENERGY| Total FORCE_EVAL ( QS ) energy [hartree]          -1055.178904106610162
 DEBUG| Numerical pv_virial [a.u.]
 DEBUG|                  -0.111015991118      0.000000000000      0.000000000000
 DEBUG|                   0.000000000000      0.006742229201      0.000000000000
 DEBUG|                   0.000000000000      0.000000000000      0.007369080565

 DEBUG| Analytical pv_virial [a.u.]
 DEBUG|                  -0.111015982356      0.000000000000      0.000000000000
 DEBUG|                   0.000000000000      0.006742203040      0.000000000000
 DEBUG|                   0.000000000000      0.000000000000      0.007369060703

 DEBUG| Difference pv_virial [a.u.]
 DEBUG|                  -0.000000008763      0.000000000000      0.000000000000
 DEBUG|                   0.000000000000      0.000000026161      0.000000000000
 DEBUG|                   0.000000000000      0.000000000000      0.000000019863
 DEBUG| Sum of differences                                        0.000000054786
 DEBUG| Periodic-subspace sum of differences                      0.000000008763

 DEBUG| Relative error pv_virial
 DEBUG| Threshold value for error check [a.u.]                    1.00000000E-05
 DEBUG|                           0.00 %                 - %                 - %
 DEBUG|                              - %                 - %                 - %
 DEBUG|                              - %                 - %                 - %
 DEBUG| Maximum accepted error                                            0.50 %


 MODULE DEBUG: ATOMIC COORDINATES IN ANGSTROM

   Atom Kind Element         X             Y             Z       Z(eff)     Mass
      1    1 Ar   18      0.594380      9.018000      9.666000   8.0000  39.9480
      2    1 Ar   18      3.224380      9.414000      9.252000   8.0000  39.9480


 *******************************************************************************
  **                     Special K-Point Generation by SPGLIB                 **
 *******************************************************************************
 *******************************************************************************
  **                              Finished SPGLIB                             **
 *******************************************************************************

 Crystal Symmetry Information
[...]
     9 GXTB-FDIIS  0.10E+01    0.0     0.00000016     -1055.1789031647  0.00E+00
    10 GXTB-FDIIS  0.10E+01    0.0     0.00000006     -1055.1789031647  0.00E+00
    11 GXTB-FDIIS  0.10E+01    0.0     2.7737E-10     -1055.1789031647  0.00E+00
    12 GXTB-FDIIS  0.10E+01    0.0     1.3503E-11     -1055.1789031647 -2.27E-13

  *** SCF run converged in    12 steps ***


  Core Hamiltonian energy:                                     -4.63181483053407
  Repulsive potential energy:                                   0.01865127866222
  Electrostatic energy:                                         0.01646821321378
  Self-consistent dispersion energy:                           -0.00164657156537
  Non-self consistent dispersion energy:                       -0.00004522782503
  Correction for halogen bonding:                               0.00000000000000
  Electronic entropic energy:                                  -0.00000000000000
  Fermi energy:                                                -0.49644932636727

  Total energy:                                             -1055.17890316474040
  Total energy (extrapolated to T->0):                      -1055.17890316474040


 MULLIKEN POPULATION ANALYSIS

  # Atom   Element   Kind        Atomic population                    Net charge
       1     Ar         1                 8.000000                      0.000000
       2     Ar         1                 8.000000                     -0.000000
 # Total charge                          16.000000                     -0.000000


 ENERGY| Total FORCE_EVAL ( QS ) energy [hartree]          -1055.178903164740404


 MODULE DEBUG: ATOMIC COORDINATES IN ANGSTROM

   Atom Kind Element         X             Y             Z       Z(eff)     Mass
      1    1 Ar   18      0.594380      9.018000      9.666000   8.0000  39.9480
      2    1 Ar   18      3.224380      9.414000      9.251947   8.0000  39.9480


 *******************************************************************************
  **                     Special K-Point Generation by SPGLIB                 **
 *******************************************************************************
 *******************************************************************************
  **                              Finished SPGLIB                             **
 *******************************************************************************

 Crystal Symmetry Information
       International Symbol:                                              P2_1/m
       Point Group Symbol:                                                   2/m
       Schoenflies Symbol:                                                 C2h^2
       Number of Symmetry Operations:                                          4

 K-point Symmetry Information
       Number of Special K-points:                                             1
                   Wavevector Basis                                       Weight
          1  -0.25000   0.00000   0.00000                                      2

       K-point Mesh:                                               2     1     1
                   Wavevector Basis                   Special Points    Rotation
          1  -0.25000   0.00000   0.00000              1           1           1
          2   0.25000   0.00000   0.00000              1           1          -1

       Atom Transformation Table
          Rot=    1     1    2
          Rot=    2     2    1
          Rot=    3     2    1
          Rot=    4     1    2

 KPOINTS| Number of kpoint groups                                              1
 KPOINTS| Size of each kpoint group                                            4
 KPOINTS| Number of kpoints per group                                          1

 Extrapolation method: initial_guess

 Number of electrons:                                                         16
 Number of occupied orbitals:                                                  8
 Number of molecular orbitals:                                                18

 Number of orbital functions:                                                 18
 Number of independent orbital functions:                                     18


 SCF WAVEFUNCTION OPTIMIZATION

  Step     Update method      Time    Convergence         Total energy    Change
  ------------------------------------------------------------------------------
     1 GXTB-Raw    0.10E+01    0.0     2.03466674     -1055.1706870309 -1.06E+03
     2 GXTB-Simple 0.20E+00    0.0     0.01533692     -1055.1745454184 -3.86E-03
     3 GXTB-Simple 0.20E+00    0.0     0.00975437     -1055.1763693796 -1.82E-03
     4 GXTB-FDIIS  0.10E+01    0.0     0.03375046     -1055.1789015209 -2.53E-03
     5 GXTB-FDIIS  0.10E+01    0.0     0.00087215     -1055.1789046584 -3.14E-06
     6 GXTB-FDIIS  0.10E+01    0.0     0.00032748     -1055.1789050162 -3.58E-07
     7 GXTB-FDIIS  0.10E+01    0.0     0.00012858     -1055.1789050485 -3.23E-08
     8 GXTB-FDIIS  0.10E+01    0.0     0.00000664     -1055.1789050486 -7.55E-11
     9 GXTB-FDIIS  0.10E+01    0.0     0.00000016     -1055.1789050486 -2.27E-13
    10 GXTB-FDIIS  0.10E+01    0.0     0.00000006     -1055.1789050486  2.27E-13
    11 GXTB-FDIIS  0.10E+01    0.0     2.7728E-10     -1055.1789050486  0.00E+00
    12 GXTB-FDIIS  0.10E+01    0.0     1.3500E-11     -1055.1789050486  0.00E+00

  *** SCF run converged in    12 steps ***


  Core Hamiltonian energy:                                     -4.63181708927751
  Repulsive potential energy:                                   0.01864995810899
  Electrostatic energy:                                         0.01646836262558
  Self-consistent dispersion energy:                           -0.00164660179396
  Non-self consistent dispersion energy:                       -0.00004522629618
  Correction for halogen bonding:                               0.00000000000000
  Electronic entropic energy:                                  -0.00000000000000
  Fermi energy:                                                -0.49644962764369

  Total energy:                                             -1055.17890504857564
  Total energy (extrapolated to T->0):                      -1055.17890504857564


 MULLIKEN POPULATION ANALYSIS

  # Atom   Element   Kind        Atomic population                    Net charge
       1     Ar         1                 8.000000                      0.000000
       2     Ar         1                 8.000000                      0.000000
 # Total charge                          16.000000                      0.000000


 ENERGY| Total FORCE_EVAL ( QS ) energy [hartree]          -1055.178905048575643

 DEBUG| Atom    E(z + 0.0001)    E(z - 0.0001)     f(numerical)    f(analytical)
 DEBUG|    2   -1055.17890316   -1055.17890505      -0.00941918      -0.00941918

 DEBUG| Atom  Coordinate   f(numerical)   f(analytical)   Difference   Error [%]
 DEBUG|    2      x         -0.00000000     -0.00000000  -0.00000000           -
 DEBUG|    2      y          0.00900965      0.00900965  -0.00000000        0.00
 DEBUG|    2      z         -0.00941918     -0.00941918  -0.00000000       -0.00

 DEBUG|======================== BEGIN OF SUMMARY ===============================
 DEBUG| Atom  Coordinate   f(numerical)   f(analytical)   Difference   Error [%]
 DEBUG|    1      x         -0.00000000      0.00000000   0.00000000           -
 DEBUG|    1      y         -0.00900965     -0.00900965   0.00000000        0.00
 DEBUG|    1      z          0.00941918      0.00941918   0.00000000       -0.00
 DEBUG|    2      x         -0.00000000     -0.00000000  -0.00000000           -
 DEBUG|    2      y          0.00900965      0.00900965  -0.00000000        0.00
 DEBUG|    2      z         -0.00941918     -0.00941918  -0.00000000       -0.00
 DEBUG| Sum of differences:                               0.00000000        0.00
 DEBUG|======================== END OF SUMMARY =================================

 -------------------------------------------------------------------------------
 -                                                                             -
 -                                DBCSR STATISTICS                             -
 -                                                                             -
 -------------------------------------------------------------------------------
 COUNTER                                    TOTAL       BLAS       SMM       ACC
 flops inhomo. stacks                           0       0.0%      0.0%      0.0%
 flops total                         0.000000E+00       0.0%      0.0%      0.0%
 flops max/rank                      0.000000E+00       0.0%      0.0%      0.0%
 matmuls inhomo. stacks                         0       0.0%      0.0%      0.0%
 matmuls total                                  0       0.0%      0.0%      0.0%
 number of processed stacks                     0       0.0%      0.0%      0.0%
 average stack size                                     0.0       0.0       0.0
 marketing flops                     0.000000E+00
 -------------------------------------------------------------------------------
 -                                                                             -
 -                      DBCSR MESSAGE PASSING PERFORMANCE                      -
 -                                                                             -
 -------------------------------------------------------------------------------
 ROUTINE             CALLS      AVE VOLUME [Bytes]
 MP_Bcast                1                     12.
 MP_Allreduce           19                     21.
 MP_Alltoall         21434                    427.
 -------------------------------------------------------------------------------

 -------------------------------------------------------------------------------
 -                                                                             -
 -                          OFFLOAD MEMPOOL STATISTICS                         -
 -                                                                             -
 -------------------------------------------------------------------------------
 Memory consumption                Number of allocations  Used [MiB]  Size [MiB]
 Host                                                  1           0           0
 -------------------------------------------------------------------------------

 MEMORY| Estimated peak process memory [MiB]                                 195

 -------------------------------------------------------------------------------
 ----                             MULTIGRID INFO                            ----
 -------------------------------------------------------------------------------
 total grid count     :           624              cutoff [a.u.]            1.00

 -------------------------------------------------------------------------------
 -                                                                             -
 -                         MESSAGE PASSING PERFORMANCE                         -
 -                                                                             -
 -------------------------------------------------------------------------------

 ROUTINE             CALLS      AVE VOLUME [Bytes]
 MP_Group               30
 MP_Bcast            22272                     11.
 MP_Allreduce        62633                    222.
 MP_Sync                 8
 MP_Wait             18350
 MP_comm_split          44
 MP_ISend            25690                    123.
 MP_IRecv            25690                    123.
 -------------------------------------------------------------------------------


 -------------------------------------------------------------------------------
 -                                                                             -
 -                           R E F E R E N C E S                               -
 -                                                                             -
 -------------------------------------------------------------------------------
 
 CP2K version 2026.1 (Development Version), the CP2K developers group (2026).
 CP2K is freely available from https://www.cp2k.org/ .
 
 M. Iannuzzi, J. Wilhelm, F. Stein, A. Bussy, H. Elgabarty, D. Golze, A. Hehn, 
 M. Graml, S. Marek, B. Sertcan Gökmen, C. Schran, H. Forbert, R. Z. 
 Khaliullin, A. Kozhevnikov, M. Taillefumier, R. Meli, V. V. Rybkin, M. Brehm, 
 R. Schade, O. Schütt, J. V. Pototschnig, H. Mirhosseini, A. Knüpfer, D. Marx, 
 M. Krack, J. Hutter, T. D. Kühne.
 J. Phys. Chem. B 130, 1237-1310 (2026).
 The CP2K Program Package Made Simple.
 https://doi.org/10.1021/acs.jpcb.5c05851

 A. Katbashev, M. Stahn, T. Rose, V. Alizadeh, M. Friede, C. Plett, P. 
 Steinbach, S. Ehlert.
 J. Phys. Chem. A 129, 2667-2682 (2025).
 Overview on Building Blocks and Applications of Efficient and Robust Extended 
 Tight Binding.
 https://doi.org/10.1021/acs.jpca.4c08263

 T. D. Kühne, M. Iannuzzi, M. Del Ben, V. V. Rybkin, P. Seewald, F. Stein, T. 
 Laino, R. Z. Khaliullin, O. Schütt, F. Schiffmann, D. Golze, J. Wilhelm, S. 
 Chulkov, M. H. Bani-Hashemian, V. Weber, U. Borstnik, M. Taillefumier, A. S. 
 Jakobovits, A. Lazzaro, H. Pabst, T. Müller, R. Schade, M. Guidon, S. 
 Andermatt, N. Holmberg, G. K. Schenter, A. Hehn, A. Bussy, F. Belleflamme, G. 
 Tabacchi, A. Glöß, M. Lass, I. Bethune, C. J. Mundy, C. Plessl, M. Watkins, 
 J. VandeVondele, M. Krack, J. Hutter.
 J. Chem. Phys. 152, 194103 (2020).
 CP2K: An electronic structure and molecular dynamics software package - 
 Quickstep: Efficient and accurate electronic structure calculations.
 https://doi.org/10.1063/5.0007045

 P. Pracht, E. Caldeweyher, S. Ehlert, S. Grimme.
 ChemRxiv, (2019).
 A Robust Non-Self-Consistent Tight-Binding Quantum Chemistry Method for large 
 Molecules.
 https://doi.org/10.26434/chemrxiv.8326202.v1

 A. Togo, I. Tanaka.
 arXiv, 1808.01590 (2018).
 Spglib : a software library for crystal symmetry search.

 S. Grimme, C. Bannwarth, P. Shushkov.
 J. Chem. Theory Comput. 13, 1989 (2017).
 A Robust and Accurate Tight-Binding Quantum Chemical Method for Structures, 
 Vibrational Frequencies, and Noncovalent Interactions of Large Molecular 
 Systems Parametrized for All spd-Block Elements (Z = 1-86).
 https://doi.org/10.1021/acs.jctc.7b00118

 O. Schuett, P. Messmer, J. Hutter, J. VandeVondele.
 Electronic Structure Calculations on Graphics Processing Units, 173-190 (2016).
 GPU-Accelerated Sparse Matrix-Matrix Multiplication for Linear Scaling Density 
 Functional Theory.
 https://doi.org/10.1002/9781118670712.ch8

 U. Borstnik, J. VandeVondele, V. Weber, J. Hutter.
 Parallel Comput. 40, 47-58 (2014).
 Sparse matrix multiplication: The distributed block-compressed sparse row 
 library.
 https://doi.org/10.1016/j.parco.2014.03.012

 M. Frigo, S. G. Johnson.
 Proc. IEEE 93, 216-231 (2005).
 The design and implementation of FFTW3.
 https://doi.org/10.1109/JPROC.2004.840301

 N. D. Mermin.
 Phys. Rev. 137, A1441-A1443 (1965).
 Thermal Properties of the Inhomogeneous Electron Gas.
 https://doi.org/10.1103/PhysRev.137.A1441


 -------------------------------------------------------------------------------
 -                                                                             -
 -                                T I M I N G                                  -
 -                                                                             -
 -------------------------------------------------------------------------------
 SUBROUTINE                       CALLS  ASD         SELF TIME        TOTAL TIME
                                MAXIMUM       AVERAGE  MAXIMUM  AVERAGE  MAXIMUM
 CP2K                                 1  1.0    0.006    0.006    1.535    1.535
 qs_energies                         21  2.1    0.001    0.001    1.444    1.444
 scf_env_do_scf                      21  3.1    0.000    0.000    1.228    1.229
 scf_env_do_scf_inner_loop          252  4.1    0.163    0.173    1.228    1.228
 qs_scf_new_mos_kp                  252  5.1    0.001    0.001    0.579    0.584
 do_general_diag_kp                 252  6.1    0.052    0.054    0.578    0.583
 qs_ks_update_qs_env                271  4.9    0.001    0.001    0.337    0.341
 rebuild_ks_matrix                  273  5.9    0.000    0.000    0.333    0.337
 build_tblite_ks_matrix             273  6.9    0.184    0.193    0.333    0.336
 copy_dbcsr_to_fm                  1050  7.0    0.007    0.007    0.175    0.179
 build_tblite_matrices               23  4.0    0.066    0.068    0.171    0.172
 qs_forces                            2  2.0    0.000    0.000    0.167    0.167
 qs_energies_init_hamiltonians       21  3.1    0.000    0.000    0.166    0.167
 dbcsr_complete_redistribute       1562  8.3    0.031    0.032    0.141    0.142
 cp_fm_start_copy_general          3670  6.9    0.026    0.042    0.107    0.123
 cp_cfm_geeig                       252  7.1    0.001    0.001    0.116    0.116
 kpoint_density_transform           256  7.1    0.005    0.005    0.112    0.113
 mp_sum_dv                        42546  6.6    0.080    0.096    0.080    0.096
 symtrans_phase                    1120  6.5    0.006    0.006    0.095    0.095
 cp_cfm_heevd                       252  8.1    0.000    0.000    0.083    0.083
 cp_cfm_heevd_base                  252  9.1    0.082    0.083    0.082    0.083
 mp_sum_dm                         9704  6.5    0.053    0.079    0.053    0.079
 dbcsr_desymmetrize_deep           2100  7.5    0.017    0.018    0.071    0.078
 dbcsr_dot                         7461  6.6    0.017    0.018    0.053    0.068
 dbcsr_replicate                   1560  7.1    0.015    0.015    0.059    0.062
 dbcsr_iterator_start             76770  7.2    0.046    0.047    0.057    0.059
 dbcsr_finalize                   26898  7.0    0.014    0.014    0.053    0.054
 mp_bcast_iv                      14681  7.9    0.040    0.051    0.040    0.051
 dbcsr_iterator_stop              76770  7.2    0.038    0.039    0.048    0.048
 kpoint_initialize                   23  2.0    0.000    0.001    0.046    0.048
 crys_sym_gen                        23  3.0    0.046    0.047    0.046    0.047
 kpoint_density_matrices            254  7.1    0.002    0.002    0.044    0.045
 mp_allgather_i                    7340  7.9    0.025    0.043    0.025    0.043
 copy_fm_to_dbcsr                   512  8.1    0.002    0.002    0.042    0.043
 parallel_gemm_fm_gemm             1016  8.1    0.001    0.001    0.042    0.043
 mp_sum_d                          7842  7.3    0.024    0.042    0.024    0.042
 cp_fm_gemm                        1016  9.1    0.042    0.042    0.042    0.042
 dbcsr_create_new                 22020  7.3    0.030    0.030    0.040    0.041
 evaluate_core_matrix_traces        525  5.5    0.001    0.001    0.035    0.038
 calculate_ptrace_kp                525  6.5    0.002    0.002    0.034    0.037
 mp_cart_sub                       2102  9.0    0.033    0.033    0.033    0.033
 cp_dbcsr_alloc_block_from_nbl     7979  5.8    0.014    0.015    0.028    0.032
 mp_cart_create                    1081  8.8    0.028    0.032    0.028    0.032
 -------------------------------------------------------------------------------

 The number of warnings for this run is : 0
 
 -------------------------------------------------------------------------------
  **** **** ******  **  PROGRAM ENDED AT                 2026-07-16 09:56:48.552
 ***** ** ***  *** **   PROGRAM RAN ON                                     terok
 **    ****   ******    PROGRAM RAN BY                                  kuehne88
 ***** **    ** ** **   PROGRAM PROCESS ID                               1647120
  **** **  *******  **  PROGRAM STOPPED IN /home/kuehne88/work/gxtb-partial-pbc-
                                           20260716T0948/runs/gxtb_1d_x_k211_for
                                           ce_stress_spglib
