 DBCSR| CPU Multiplication driver                                           BLAS (U)
 DBCSR| Multrec recursion limit                                              512 (U)
 DBCSR| Multiplication stack size                                           1000 (D)
 DBCSR| Maximum elements for images                                    UNLIMITED (U)
 DBCSR| Multiplicative factor virtual images                                   1 (U)
 DBCSR| Use multiplication densification                                       T (D)
 DBCSR| Multiplication size stacks                                             3 (U)
 DBCSR| Use memory pool for CPU allocation                                     F (U)
 DBCSR| Number of 3D layers                                               SINGLE (U)
 DBCSR| Use MPI memory allocation                                              F (U)
 DBCSR| Use RMA algorithm                                                      F (U)
 DBCSR| Use Communication thread                                               T (U)
 DBCSR| Communication thread load                                             87 (D)
 DBCSR| MPI: My process id                                                     0
 DBCSR| MPI: Number of processes                                               1
 DBCSR| OMP: Current number of threads                                         1
 DBCSR| OMP: Max number of threads                                             1
 DBCSR| Split modifier for TAS multiplication algorithm                  1.0E+00 (U)


  **** **** ******  **  PROGRAM STARTED AT               2026-07-18 21:56:08.888
 ***** ** ***  *** **   PROGRAM STARTED ON        MacBook-Pro-von-Thomas-3.local
 **    ****   ******    PROGRAM STARTED BY                               tkuehne
 ***** **    ** ** **   PROGRAM PROCESS ID                                 71377
  **** **  *******  **  PROGRAM STARTED IN        /Users/tkuehne/Documents/g-xTB

 CP2K| version string:                 CP2K version 2026.2 (Development Version)
 CP2K| source code revision number:                                   8520b2e592
 CP2K| cp2kflags: omp parallel scalapack no_statm_access spglib s_dftd3 mctc-lib
 CP2K|             tblite tblite_gxtb
 CP2K| is freely available from                            https://www.cp2k.org/
 CP2K| Program compiled at                                   2026-07-18 20:56:43
 CP2K| Program compiled on                                                      
 CP2K| Program compiled for                                                arm64
 CP2K| Data directory path                            /usr/local/share/cp2k/data
 CP2K| Input file name        /private/tmp/gxtb-accuracy-ab-20260718/native-acc0

 GLOBAL| Force Environment number                                              1
 GLOBAL| Basis set file name                                           BASIS_SET
 GLOBAL| Potential file name                                           POTENTIAL
 GLOBAL| MM Potential file name                                     MM_POTENTIAL
 GLOBAL| Coordinate file name                                      __STD_INPUT__
 GLOBAL| Method name                                                        CP2K
 GLOBAL| Project name                                        accuracy001_k111_IV
 GLOBAL| Run type                                                         ENERGY
 GLOBAL| FFT library                                                       FFTW3
 GLOBAL| Diagonalization library                                       ScaLAPACK
 GLOBAL| Cholesky decomposition library                                ScaLAPACK
 GLOBAL| DGEMM library                                                      BLAS
 GLOBAL| Direct generalized diagonalization requested                          F
 GLOBAL| Orthonormality check for eigenvectors                          DISABLED
 GLOBAL| Matrix multiplication library                                 ScaLAPACK
 GLOBAL| All-to-all communication in single precision                          F
 GLOBAL| FFTs using library dependent lengths                                  F
 GLOBAL| Grid backend                                                       AUTO
 GLOBAL| Global print level                                                  LOW
 GLOBAL| MPI I/O enabled                                                       T
 GLOBAL| Total number of message passing processes                             1
 GLOBAL| Number of distributed systems (nodes)                                 1
 GLOBAL| Number of threads for this process                                    1
 GLOBAL| This output is from process                                           0
 GLOBAL| OpenMP stack size per thread (OMP_STACKSIZE)                    default
 GLOBAL| CPU model name                                                  UNKNOWN
 GLOBAL| CPUID                                                              2000

 MEMORY| system memory details [Kb]
 MEMORY|                        rank 0           min           max       average
 MEMORY| MemTotal                    0             0             0             0
 MEMORY| MemFree                     0             0             0             0
 MEMORY| Buffers                     0             0             0             0
 MEMORY| Cached                      0             0             0             0
 MEMORY| Slab                        0             0             0             0
 MEMORY| SReclaimable                0             0             0             0
 MEMORY| MemLikelyFree               0             0             0             0


 *** WARNING in environment.F:1098 :: FFT library FFTW3 is not available. ***
 *** Trying FFT library FFTSG.                                            ***


 GENERATE|  Preliminary Number of Bonds generated:                             0
 GENERATE|  Achieved consistency in connectivity generation.


                  #####   #####        #     #   #     #       #          
                 #     # #     #      #    ##### #     #   # #####  ####  
                 #     # #           #       #   ###   #       #   #    # 
                 #     #  #####     #        #   #  #  #   #   #   ###### 
                 #   # #       #   #         #   #   # #   #   #   #      
                 #    #  #     #  #          #   #  #  # # #   #    #   # 
                  #### #  #####  #           #   ###   ##  #   #     ###  

                                     g-xTB   
                                 Version 0.0                       
                            Johann V. Pototschnig                  

                tblite provider: SAVE
                tblite source revision: unknown
                g-xTB support: enabled


 TOTAL NUMBERS AND MAXIMUM NUMBERS

  Total number of            - Atomic kinds:                                   2
                             - Atoms:                                         48
                             - Shell sets:                                    64
                             - Shells:                                        64
                             - Primitive Cartesian functions:                448
                             - Cartesian basis functions:                     96
                             - Spherical basis functions:                     96

  Maximum angular momentum of the orbital basis functions:                     1


 SCF PARAMETERS         Density guess:                                     MOPAC
                        --------------------------------------------------------
                        max_scf:                                             300
                        max_scf_history:                                       0
                        max_diis:                                              4
                        --------------------------------------------------------
                        eps_scf:                                        1.00E-09
                        eps_scf_history:                                0.00E+00
                        eps_diis:                                       1.00E-01
                        eps_eigval:                                     1.00E-05
                        --------------------------------------------------------
                        level_shift [a.u.]:                             0.000000
                        added MOs                                        32    0
                        --------------------------------------------------------
                        Mixing method:                           DIRECT_P_MIXING
                        --------------------------------------------------------
                        No outer SCF

 Extrapolation method: initial_guess

 Number of electrons:                                                        128
 Number of occupied orbitals:                                                 64
 Number of molecular orbitals:                                                96

 Number of orbital functions:                                                 96
 Number of independent orbital functions:                                     96


 SCF WAVEFUNCTION OPTIMIZATION

  Step     Update method      Time    Convergence         Total energy    Change
  ------------------------------------------------------------------------------
     1 GXTB-Raw    0.10E+01    0.0     0.75785778     -1224.6514804596 -1.22E+03
     2 GXTB-Simple 0.20E+00    0.0     0.03498325     -1224.7773356863 -1.26E-01
     3 GXTB-Simple 0.20E+00    0.0     0.02497676     -1224.8465417167 -6.92E-02
     4 GXTB-FDIIS  0.10E+01    0.0     0.10474640     -1224.9365053753 -9.00E-02
     5 GXTB-FDIIS  0.10E+01    0.0     0.00797841     -1224.9375083603 -1.00E-03
     6 GXTB-FDIIS  0.10E+01    0.0     0.00148432     -1224.9375155329 -7.17E-06
     7 GXTB-FDIIS  0.10E+01    0.0     0.00013137     -1224.9375156082 -7.53E-08
     8 GXTB-FDIIS  0.10E+01    0.0     0.00002296     -1224.9375156108 -2.58E-09
     9 GXTB-FDIIS  0.10E+01    0.0     0.00000499     -1224.9375156109 -1.17E-10
    10 GXTB-FDIIS  0.10E+01    0.0     0.00000068     -1224.9375156109 -1.59E-12
    11 GXTB-FDIIS  0.10E+01    0.0     0.00000010     -1224.9375156109  0.00E+00
    12 GXTB-FDIIS  0.10E+01    0.0     6.0296E-09     -1224.9375156109  0.00E+00
    13 GXTB-FDIIS  0.10E+01    0.0     1.4572E-09     -1224.9375156109  0.00E+00
    14 GXTB-FDIIS  0.10E+01    0.0     4.0402E-10     -1224.9375156109  0.00E+00

  *** SCF run converged in    14 steps ***


  Core Hamiltonian energy:                                   -100.10468250215423
  Repulsive potential energy:                                   4.75772418993215
  Electrostatic energy:                                         2.76684137343153
  Self-consistent dispersion energy:                           -0.08981702852074
  Non-self consistent dispersion energy:                        0.01937772448305
  Correction for halogen bonding:                               0.00000000000000

  Total energy:                                             -1224.93751561086856

 ENERGY| Total FORCE_EVAL ( QS ) energy [hartree]          -1224.937515610868559

 -------------------------------------------------------------------------------
 -                                                                             -
 -                                DBCSR STATISTICS                             -
 -                                                                             -
 -------------------------------------------------------------------------------
 COUNTER                                    TOTAL       BLAS       SMM       ACC
 flops     1 x     1 x    96              1419264     100.0%      0.0%      0.0%     
 flops     4 x     1 x    96              2752512     100.0%      0.0%      0.0%     
 flops     1 x     4 x    96              2752512     100.0%      0.0%      0.0%     
 flops     4 x     4 x    96              5849088     100.0%      0.0%      0.0%     
 flops inhomo. stacks                           0       0.0%      0.0%      0.0%
 flops total                        12.773376E+06     100.0%      0.0%      0.0%
 flops max/rank                     12.773376E+06     100.0%      0.0%      0.0%
 matmuls inhomo. stacks                         0       0.0%      0.0%      0.0%
 matmuls total                              16464     100.0%      0.0%      0.0%
 number of processed stacks                    56     100.0%      0.0%      0.0%
 average stack size                                   294.0       0.0       0.0
 marketing flops                    16.515072E+06
 -------------------------------------------------------------------------------
 # multiplications                             14
 max memory usage/rank               0.000000E+00
 # max total images/rank                        1
 # max 3D layers                                1
 # MPI messages exchanged                       0
 -------------------------------------------------------------------------------
 -                                                                             -
 -                      DBCSR MESSAGE PASSING PERFORMANCE                      -
 -                                                                             -
 -------------------------------------------------------------------------------
 ROUTINE             CALLS      AVE VOLUME [Bytes]
 MP_Bcast                5                     12.
 MP_Allreduce           97                     12.
 MP_Alltoall           404                  55094.
 MP_ISend               56                   2880.
 MP_IRecv               56                   2880.
 -------------------------------------------------------------------------------

 -------------------------------------------------------------------------------
 -                                                                             -
 -                          OFFLOAD MEMPOOL STATISTICS                         -
 -                                                                             -
 -------------------------------------------------------------------------------
 Memory consumption                Number of allocations  Used [MiB]  Size [MiB]
 Host                                                  1           0           0
 -------------------------------------------------------------------------------

 MEMORY| Estimated peak process memory [MiB]                                   0

 -------------------------------------------------------------------------------
 -                                                                             -
 -                         MESSAGE PASSING PERFORMANCE                         -
 -                                                                             -
 -------------------------------------------------------------------------------

 ROUTINE             CALLS      AVE VOLUME [Bytes]
 MP_Group                1
 MP_Bcast               28                    386.
 MP_Allreduce          444                   7294.
 MP_Sync                15
 MP_comm_split          14
 -------------------------------------------------------------------------------


 -------------------------------------------------------------------------------
 -                                                                             -
 -                           R E F E R E N C E S                               -
 -                                                                             -
 -------------------------------------------------------------------------------
 
 CP2K version 2026.2 (Development Version), the CP2K developers group (2026).
 CP2K is freely available from https://www.cp2k.org/ .
 
 M. Iannuzzi, J. Wilhelm, F. Stein, A. Bussy, H. Elgabarty, D. Golze, A. Hehn, 
 M. Graml, S. Marek, B. Sertcan Gökmen, C. Schran, H. Forbert, R. Z. 
 Khaliullin, A. Kozhevnikov, M. Taillefumier, R. Meli, V. V. Rybkin, M. Brehm, 
 R. Schade, O. Schütt, J. V. Pototschnig, H. Mirhosseini, A. Knüpfer, D. Marx, 
 M. Krack, J. Hutter, T. D. Kühne.
 J. Phys. Chem. B 130, 1237-1310 (2026).
 The CP2K Program Package Made Simple.
 https://doi.org/10.1021/acs.jpcb.5c05851

 A. Katbashev, M. Stahn, T. Rose, V. Alizadeh, M. Friede, C. Plett, P. 
 Steinbach, S. Ehlert.
 J. Phys. Chem. A 129, 2667-2682 (2025).
 Overview on Building Blocks and Applications of Efficient and Robust Extended 
 Tight Binding.
 https://doi.org/10.1021/acs.jpca.4c08263

 T. D. Kühne, M. Iannuzzi, M. Del Ben, V. V. Rybkin, P. Seewald, F. Stein, T. 
 Laino, R. Z. Khaliullin, O. Schütt, F. Schiffmann, D. Golze, J. Wilhelm, S. 
 Chulkov, M. H. Bani-Hashemian, V. Weber, U. Borstnik, M. Taillefumier, A. S. 
 Jakobovits, A. Lazzaro, H. Pabst, T. Müller, R. Schade, M. Guidon, S. 
 Andermatt, N. Holmberg, G. K. Schenter, A. Hehn, A. Bussy, F. Belleflamme, G. 
 Tabacchi, A. Glöß, M. Lass, I. Bethune, C. J. Mundy, C. Plessl, M. Watkins, 
 J. VandeVondele, M. Krack, J. Hutter.
 J. Chem. Phys. 152, 194103 (2020).
 CP2K: An electronic structure and molecular dynamics software package - 
 Quickstep: Efficient and accurate electronic structure calculations.
 https://doi.org/10.1063/5.0007045

 P. Pracht, E. Caldeweyher, S. Ehlert, S. Grimme.
 ChemRxiv, (2019).
 A Robust Non-Self-Consistent Tight-Binding Quantum Chemistry Method for large 
 Molecules.
 https://doi.org/10.26434/chemrxiv.8326202.v1

 S. Grimme, C. Bannwarth, P. Shushkov.
 J. Chem. Theory Comput. 13, 1989 (2017).
 A Robust and Accurate Tight-Binding Quantum Chemical Method for Structures, 
 Vibrational Frequencies, and Noncovalent Interactions of Large Molecular 
 Systems Parametrized for All spd-Block Elements (Z = 1-86).
 https://doi.org/10.1021/acs.jctc.7b00118

 O. Schuett, P. Messmer, J. Hutter, J. VandeVondele.
 Electronic Structure Calculations on Graphics Processing Units, 173-190 (2016).
 GPU-Accelerated Sparse Matrix-Matrix Multiplication for Linear Scaling Density 
 Functional Theory.
 https://doi.org/10.1002/9781118670712.ch8

 U. Borstnik, J. VandeVondele, V. Weber, J. Hutter.
 Parallel Comput. 40, 47-58 (2014).
 Sparse matrix multiplication: The distributed block-compressed sparse row 
 library.
 https://doi.org/10.1016/j.parco.2014.03.012

 M. Frigo, S. G. Johnson.
 Proc. IEEE 93, 216-231 (2005).
 The design and implementation of FFTW3.
 https://doi.org/10.1109/JPROC.2004.840301


 -------------------------------------------------------------------------------
 -                                                                             -
 -                                T I M I N G                                  -
 -                                                                             -
 -------------------------------------------------------------------------------
 SUBROUTINE                       CALLS  ASD         SELF TIME        TOTAL TIME
                                MAXIMUM       AVERAGE  MAXIMUM  AVERAGE  MAXIMUM
 CP2K                                 1  1.0    0.012    0.012    1.184    1.184
 qs_energies                          1  2.0    0.000    0.000    1.140    1.140
 qs_energies_init_hamiltonians        1  3.0    0.000    0.000    0.988    0.988
 build_tblite_matrices                1  4.0    0.948    0.948    0.986    0.986
 scf_env_do_scf                       1  3.0    0.000    0.000    0.148    0.148
 scf_env_do_scf_inner_loop           14  4.0    0.048    0.048    0.148    0.148
 qs_ks_update_qs_env                 14  5.0    0.000    0.000    0.062    0.062
 rebuild_ks_matrix                   14  6.0    0.000    0.000    0.062    0.062
 build_tblite_ks_matrix              14  7.0    0.061    0.061    0.062    0.062
 tb_get_multipole                     1  5.0    0.033    0.033    0.037    0.037
 qs_scf_new_mos                      14  5.0    0.002    0.002    0.036    0.036
 qs_init_subsys                       1  2.0    0.020    0.020    0.026    0.026
 -------------------------------------------------------------------------------

 The number of warnings for this run is : 1
 
 -------------------------------------------------------------------------------
  **** **** ******  **  PROGRAM ENDED AT                 2026-07-18 21:56:10.305
 ***** ** ***  *** **   PROGRAM RAN ON            MacBook-Pro-von-Thomas-3.local
 **    ****   ******    PROGRAM RAN BY                                   tkuehne
 ***** **    ** ** **   PROGRAM PROCESS ID                                 71377
  **** **  *******  **  PROGRAM STOPPED IN        /Users/tkuehne/Documents/g-xTB
