 DBCSR| CPU Multiplication driver                                           XSMM (U)
 DBCSR| Multrec recursion limit                                              512 (U)
 DBCSR| Multiplication stack size                                           1000 (D)
 DBCSR| Maximum elements for images                                    UNLIMITED (U)
 DBCSR| Multiplicative factor virtual images                                   1 (U)
 DBCSR| Use multiplication densification                                       T (D)
 DBCSR| Multiplication size stacks                                             3 (U)
 DBCSR| Use memory pool for CPU allocation                                     F (U)
 DBCSR| Number of 3D layers                                               SINGLE (U)
 DBCSR| Use MPI memory allocation                                              F (U)
 DBCSR| Use RMA algorithm                                                      F (U)
 DBCSR| Use Communication thread                                               T (U)
 DBCSR| Communication thread load                                             87 (D)
 DBCSR| MPI: My process id                                                     0
 DBCSR| MPI: Number of processes                                               1
 DBCSR| OMP: Current number of threads                                         1
 DBCSR| OMP: Max number of threads                                             1
 DBCSR| Split modifier for TAS multiplication algorithm                  1.0E+00 (U)


  **** **** ******  **  PROGRAM STARTED AT               2026-05-23 22:46:19.832
 ***** ** ***  *** **   PROGRAM STARTED ON                            spark-c86c
 **    ****   ******    PROGRAM STARTED BY                              kuehne88
 ***** **    ** ** **   PROGRAM PROCESS ID                               2226146
  **** **  *******  **  PROGRAM STARTED IN /home/kuehne88/periodic-gfn2-benchmar
                                           ks/X23b/runs/molecule_geoopt/GFN2/ace
                                           tic_acid_GFN2_mol_geoopt

 CP2K| version string:                 CP2K version 2026.1 (Development Version)
 CP2K| source code revision number:                                   0622d442e4
 CP2K| cp2kflags: omp fftw3 libxc parallel scalapack mpi_f08 xsmm spglib libdftd
 CP2K|            4 dftd4_v3 mctc-lib tblite
 CP2K| is freely available from                            https://www.cp2k.org/
 CP2K| Program compiled at                                   2026-05-23 22:05:08
 CP2K| Program compiled on                                            spark-c86c
 CP2K| Program compiled for                                              aarch64
 CP2K| Data directory path    /home/kuehne88/cp2k-master-tblite-20260523/install
 CP2K| Input file name                           acetic_acid_GFN2_mol_geoopt.inp

 GLOBAL| Force Environment number                                              1
 GLOBAL| Basis set file name                                           BASIS_SET
 GLOBAL| Potential file name                                           POTENTIAL
 GLOBAL| MM Potential file name                                     MM_POTENTIAL
 GLOBAL| Coordinate file name                                      __STD_INPUT__
 GLOBAL| Method name                                                        CP2K
 GLOBAL| Project name                                acetic_acid_GFN2_mol_geoopt
 GLOBAL| Run type                                                        GEO_OPT
 GLOBAL| FFT library                                                       FFTW3
 GLOBAL| Diagonalization library                                       ScaLAPACK
 GLOBAL| Cholesky decomposition library                                ScaLAPACK
 GLOBAL| DGEMM library                                                      BLAS
 GLOBAL| Direct generalized diagonalization requested                          F
 GLOBAL| Orthonormality check for eigenvectors                          DISABLED
 GLOBAL| Matrix multiplication library                                 ScaLAPACK
 GLOBAL| All-to-all communication in single precision                          F
 GLOBAL| FFTs using library dependent lengths                                  F
 GLOBAL| Grid backend                                                       AUTO
 GLOBAL| Global print level                                                  LOW
 GLOBAL| MPI I/O enabled                                                       T
 GLOBAL| Total number of message passing processes                             1
 GLOBAL| Number of distributed systems (nodes)                                 1
 GLOBAL| Number of threads for this process                                    1
 GLOBAL| This output is from process                                           0
 GLOBAL| OpenMP stack size per thread (OMP_STACKSIZE)                    default
 GLOBAL| CPU model name                                                  UNKNOWN
 GLOBAL| CPUID                                                              2200
 GLOBAL| Compiled for CPUID                                                 2000

 *** HINT in environment.F:970 :: The compiler target flags (arm_arch64)   ***
 *** used to build this binary cannot exploit all extensions of this CPU   ***
 *** model (arm_sve256). Consider compiler target flags as part of FCFLAGS ***
 *** and CFLAGS (ARCH file).                                               ***


 MEMORY| system memory details [Kb]
 MEMORY|                        rank 0           min           max       average
 MEMORY| MemTotal            125508532     125508532     125508532     125508532
 MEMORY| MemFree             106220168     106220168     106220168     106220168
 MEMORY| Buffers                866064        866064        866064        866064
 MEMORY| Cached               13217048      13217048      13217048      13217048
 MEMORY| Slab                  1564968       1564968       1564968       1564968
 MEMORY| SReclaimable           888692        888692        888692        888692
 MEMORY| MemLikelyFree       121191972     121191972     121191972     121191972


 GENERATE|  Preliminary Number of Bonds generated:                             0
 GENERATE|  Achieved consistency in connectivity generation.


                  #####   #####        #     #   #     #       #          
                 #     # #     #      #    ##### #     #   # #####  ####  
                 #     # #           #       #   ###   #       #   #    # 
                 #     #  #####     #        #   #  #  #   #   #   ###### 
                 #   # #       #   #         #   #   # #   #   #   #      
                 #    #  #     #  #          #   #  #  # # #   #    #   # 
                  #### #  #####  #           #   ###   ##  #   #     ###  

                                   GFN2-xTB  
                                 Version 0.0                       
                            Johann V. Pototschnig                  



 TOTAL NUMBERS AND MAXIMUM NUMBERS

  Total number of            - Atomic kinds:                                   3
                             - Atoms:                                          8
                             - Shell sets:                                    12
                             - Shells:                                        12
                             - Primitive Cartesian functions:                 44
                             - Cartesian basis functions:                     20
                             - Spherical basis functions:                     20

  Maximum angular momentum of the orbital basis functions:                     1


 SCF PARAMETERS         Density guess:                                     MOPAC
                        --------------------------------------------------------
                        max_scf:                                             300
                        max_scf_history:                                       0
                        max_diis:                                              4
                        --------------------------------------------------------
                        eps_scf:                                        1.00E-09
                        eps_scf_history:                                0.00E+00
                        eps_diis:                                       1.00E-01
                        eps_eigval:                                     1.00E-05
                        --------------------------------------------------------
                        level_shift [a.u.]:                             0.000000
                        added MOs                                         8    0
                        --------------------------------------------------------
                        Mixing method:                           DIRECT_P_MIXING
                        --------------------------------------------------------
                        Smear method:                                FERMI_DIRAC
                        Electronic temperature [K]:                        300.0
                        Electronic temperature [a.u.]:                  9.50E-04
                        Accuracy threshold:                             1.00E-06
                        --------------------------------------------------------
                        No outer SCF

 BFGS| Use rational function optimization for step estimation:                NO
 BFGS| Use model Hessian for initial guess:                                  YES
 BFGS| Restart Hessian:                                                       NO
 BFGS| Trust radius:                                                       0.472

 *******************************************************************************
 ***                     STARTING GEOMETRY OPTIMIZATION                      ***
 ***                                   BFGS                                  ***
 *******************************************************************************

 Extrapolation method: initial_guess

 Number of electrons:                                                         24
 Number of occupied orbitals:                                                 12
 Number of molecular orbitals:                                                20

 Number of orbital functions:                                                 20
 Number of independent orbital functions:                                     20


 SCF WAVEFUNCTION OPTIMIZATION

  Step     Update method      Time    Convergence         Total energy    Change
  ------------------------------------------------------------------------------
     1 TBLite/Diag 0.40E+00    0.0     0.72564086       -14.2504675982 -1.43E+01
     2 TBLite/Diag 0.40E+00    0.0     0.42503169       -14.4430428585 -1.93E-01
     3 TBLite/Diag 0.40E+00    0.0     0.12878406       -14.4556673864 -1.26E-02
     4 TBLite/Diag 0.40E+00    0.0     0.08574078       -14.4584113110 -2.74E-03
     5 TBLite/Diag 0.40E+00    0.0     0.04250169       -14.4589110224 -5.00E-04
     6 TBLite/Diag 0.40E+00    0.0     0.01341735       -14.4590799758 -1.69E-04
     7 TBLite/Diag 0.40E+00    0.0     0.00181266       -14.4590808860 -9.10E-07
     8 TBLite/Diag 0.40E+00    0.0     0.00063398       -14.4590814121 -5.26E-07
     9 TBLite/Diag 0.40E+00    0.0     0.00008461       -14.4590814114  6.81E-10
    10 TBLite/Diag 0.40E+00    0.0     0.00010601       -14.4590814173 -5.91E-09
    11 TBLite/Diag 0.40E+00    0.0     0.00006567       -14.4590814185 -1.21E-09
    12 TBLite/Diag 0.40E+00    0.0     0.00001868       -14.4590814188 -2.42E-10
    13 TBLite/Diag 0.40E+00    0.0     0.00000045       -14.4590814188 -1.40E-13
    14 TBLite/Diag 0.40E+00    0.0     0.00000032       -14.4590814188 -4.62E-14
    15 TBLite/Diag 0.40E+00    0.0     0.00000010       -14.4590814188 -7.11E-15
    16 TBLite/Diag 0.40E+00    0.0     6.0759E-09       -14.4590814188  3.55E-15
    17 TBLite/Diag 0.40E+00    0.0     8.9261E-10       -14.4590814188 -1.07E-14

  *** SCF run converged in    17 steps ***


  Core Hamiltonian energy:                                    -14.63468378987572
  Repulsive potential energy:                                   0.12699721583639
  Electrostatic energy:                                         0.05138975566789
  Self-consistent dispersion energy:                           -0.00278506637121
  Non-self consistent dispersion energy:                        0.00000046595213
  Correction for halogen bonding:                               0.00000000000000
  Electronic entropic energy:                                  -0.00000000000000
  Fermi energy:                                                -0.27718356583300

  Total energy:                                               -14.45908141879053
  Total energy (extrapolated to T->0):                        -14.45908141879053

 ENERGY| Total FORCE_EVAL ( QS ) energy [hartree]            -14.459081418790529

 OPT| **************************************************************************
 OPT| Step number                                                              0
 OPT| Optimization method                                                   BFGS
 OPT| Total energy [hartree]                                      -14.4590814188
 OPT| Used time [s]                                                        0.014
 OPT| **************************************************************************
 OPT| Estimated peak process memory [MiB]                                    162

 --------------------------
 OPTIMIZATION STEP:      1
 --------------------------

 Extrapolation method: ASPC

 Number of electrons:                                                         24
 Number of occupied orbitals:                                                 12
 Number of molecular orbitals:                                                20

 Number of orbital functions:                                                 20
 Number of independent orbital functions:                                     20


 SCF WAVEFUNCTION OPTIMIZATION

  Step     Update method      Time    Convergence         Total energy    Change
  ------------------------------------------------------------------------------
     1 TBLite/Diag 0.40E+00    0.0     0.02420495       -14.4597490917 -1.45E+01
     2 TBLite/Diag 0.40E+00    0.0     0.00704196       -14.4597813675 -3.23E-05
     3 TBLite/Diag 0.40E+00    0.0     0.00394958       -14.4597852636 -3.90E-06
     4 TBLite/Diag 0.40E+00    0.0     0.00139189       -14.4597883152 -3.05E-06
     5 TBLite/Diag 0.40E+00    0.0     0.00006278       -14.4597883231 -7.94E-09
     6 TBLite/Diag 0.40E+00    0.0     0.00003547       -14.4597883268 -3.69E-09
     7 TBLite/Diag 0.40E+00    0.0     0.00000461       -14.4597883269 -9.39E-11
     8 TBLite/Diag 0.40E+00    0.0     0.00000359       -14.4597883269 -1.15E-11
     9 TBLite/Diag 0.40E+00    0.0     0.00000057       -14.4597883269 -2.59E-13
    10 TBLite/Diag 0.40E+00    0.0     0.00000004       -14.4597883269  1.78E-15
    11 TBLite/Diag 0.40E+00    0.0     0.00000004       -14.4597883269  0.00E+00
    12 TBLite/Diag 0.40E+00    0.0     5.6124E-09       -14.4597883269 -8.88E-15
    13 TBLite/Diag 0.40E+00    0.0     4.9053E-10       -14.4597883269 -5.33E-15

  *** SCF run converged in    13 steps ***


  Core Hamiltonian energy:                                    -14.64119441703428
  Repulsive potential energy:                                   0.13343043470484
  Electrostatic energy:                                         0.05076297851954
  Self-consistent dispersion energy:                           -0.00278777269208
  Non-self consistent dispersion energy:                        0.00000044960586
  Correction for halogen bonding:                               0.00000000000000
  Electronic entropic energy:                                  -0.00000000000000
  Fermi energy:                                                -0.27083780902102

  Total energy:                                               -14.45978832689611
  Total energy (extrapolated to T->0):                        -14.45978832689611

 ENERGY| Total FORCE_EVAL ( QS ) energy [hartree]            -14.459788326896113

 OPT| **************************************************************************
 OPT| Step number                                                              1
 OPT| Optimization method                                                   BFGS
 OPT| Total energy [hartree]                                      -14.4597883269
 OPT| Effective energy change [hartree]                            -0.0007069081
 OPT| Predicted energy change [hartree]                            -0.0006815344
 OPT| Scaling factor                                                0.0000000000
 OPT| Step size                                                     0.0329441273
 OPT| Trust radius                                                  0.4724315332
 OPT| Decrease in energy                                                     YES
 OPT| Used time [s]                                                        0.011
 OPT|
 OPT| Maximum step size                                             0.0329441273
 OPT| Convergence limit for maximum step size                       0.0030000000
 OPT| Maximum step size is converged                                          NO
 OPT|
 OPT| RMS step size                                                 0.0130408574
 OPT| Convergence limit for RMS step size                           0.0015000000
 OPT| RMS step size is converged                                              NO
 OPT|
 OPT| Maximum gradient                                              0.0067192773
 OPT| Convergence limit for maximum gradient                        0.0004500000
 OPT| Maximum gradient is converged                                           NO
 OPT|
 OPT| RMS gradient                                                  0.0020753793
 OPT| Convergence limit for RMS gradient                            0.0003000000
 OPT| RMS gradient is converged                                               NO
 OPT| **************************************************************************
 OPT| Estimated peak process memory after this step [MiB]                    163

 --------------------------
 OPTIMIZATION STEP:      2
 --------------------------

 Extrapolation method: ASPC

 Number of electrons:                                                         24
 Number of occupied orbitals:                                                 12
 Number of molecular orbitals:                                                20

 Number of orbital functions:                                                 20
 Number of independent orbital functions:                                     20


 SCF WAVEFUNCTION OPTIMIZATION

  Step     Update method      Time    Convergence         Total energy    Change
  ------------------------------------------------------------------------------
     1 TBLite/Diag 0.40E+00    0.0     0.02001556       -14.4598974766 -1.45E+01
     2 TBLite/Diag 0.40E+00    0.0     0.00240924       -14.4599051921 -7.72E-06
     3 TBLite/Diag 0.40E+00    0.0     0.00136155       -14.4599056178 -4.26E-07
     4 TBLite/Diag 0.40E+00    0.0     0.00061836       -14.4599059973 -3.80E-07
     5 TBLite/Diag 0.40E+00    0.0     0.00019067       -14.4599060222 -2.49E-08
     6 TBLite/Diag 0.40E+00    0.0     0.00003677       -14.4599060237 -1.44E-09
     7 TBLite/Diag 0.40E+00    0.0     0.00000484       -14.4599060237 -4.01E-11
     8 TBLite/Diag 0.40E+00    0.0     0.00000337       -14.4599060237 -1.26E-11
     9 TBLite/Diag 0.40E+00    0.0     0.00000063       -14.4599060237 -4.25E-13
    10 TBLite/Diag 0.40E+00    0.0     0.00000006       -14.4599060237  1.07E-14
    11 TBLite/Diag 0.40E+00    0.0     0.00000001       -14.4599060237 -1.78E-15
    12 TBLite/Diag 0.40E+00    0.0     2.6568E-09       -14.4599060237 -1.78E-15
    13 TBLite/Diag 0.40E+00    0.0     2.2562E-10       -14.4599060237 -1.24E-14

  *** SCF run converged in    13 steps ***


  Core Hamiltonian energy:                                    -14.64409671510524
  Repulsive potential energy:                                   0.13633371954087
  Electrostatic energy:                                         0.05064838840729
  Self-consistent dispersion energy:                           -0.00279186273433
  Non-self consistent dispersion energy:                        0.00000044616375
  Correction for halogen bonding:                               0.00000000000000
  Electronic entropic energy:                                  -0.00000000000000
  Fermi energy:                                                -0.26876366327133

  Total energy:                                               -14.45990602372766
  Total energy (extrapolated to T->0):                        -14.45990602372766

 ENERGY| Total FORCE_EVAL ( QS ) energy [hartree]            -14.459906023727660

 OPT| **************************************************************************
 OPT| Step number                                                              2
 OPT| Optimization method                                                   BFGS
 OPT| Total energy [hartree]                                      -14.4599060237
 OPT| Effective energy change [hartree]                            -0.0001176968
 OPT| Predicted energy change [hartree]                            -0.0001308398
 OPT| Scaling factor                                                0.0000000000
 OPT| Step size                                                     0.0149306556
 OPT| Trust radius                                                  0.4724315332
 OPT| Decrease in energy                                                     YES
 OPT| Used time [s]                                                        0.011
 OPT|
 OPT| Maximum step size                                             0.0149306556
 OPT| Convergence limit for maximum step size                       0.0030000000
 OPT| Maximum step size is converged                                          NO
 OPT|
 OPT| RMS step size                                                 0.0079884813
 OPT| Convergence limit for RMS step size                           0.0015000000
 OPT| RMS step size is converged                                              NO
 OPT|
 OPT| Maximum gradient                                              0.0029804810
 OPT| Convergence limit for maximum gradient                        0.0004500000
 OPT| Maximum gradient is converged                                           NO
 OPT|
 OPT| RMS gradient                                                  0.0010753475
 OPT| Convergence limit for RMS gradient                            0.0003000000
 OPT| RMS gradient is converged                                               NO
 OPT| **************************************************************************
 OPT| Estimated peak process memory after this step [MiB]                    163

 --------------------------
 OPTIMIZATION STEP:      3
 --------------------------

 Extrapolation method: ASPC

 Number of electrons:                                                         24
 Number of occupied orbitals:                                                 12
 Number of molecular orbitals:                                                20

 Number of orbital functions:                                                 20
 Number of independent orbital functions:                                     20


 SCF WAVEFUNCTION OPTIMIZATION

  Step     Update method      Time    Convergence         Total energy    Change
  ------------------------------------------------------------------------------
     1 TBLite/Diag 0.40E+00    0.0     0.00540193       -14.4599296332 -1.45E+01
     2 TBLite/Diag 0.40E+00    0.0     0.00080150       -14.4599301396 -5.06E-07
     3 TBLite/Diag 0.40E+00    0.0     0.00013176       -14.4599301500 -1.04E-08
     4 TBLite/Diag 0.40E+00    0.0     0.00012532       -14.4599301553 -5.37E-09
     5 TBLite/Diag 0.40E+00    0.0     0.00004805       -14.4599301573 -1.98E-09
     6 TBLite/Diag 0.40E+00    0.0     0.00000922       -14.4599301574 -6.50E-11
     7 TBLite/Diag 0.40E+00    0.0     0.00000203       -14.4599301574 -1.22E-11
     8 TBLite/Diag 0.40E+00    0.0     0.00000049       -14.4599301574 -6.45E-13
     9 TBLite/Diag 0.40E+00    0.0     0.00000011       -14.4599301574 -5.33E-15
    10 TBLite/Diag 0.40E+00    0.0     0.00000001       -14.4599301574 -1.07E-14
    11 TBLite/Diag 0.40E+00    0.0     1.4940E-09       -14.4599301574  1.24E-14
    12 TBLite/Diag 0.40E+00    0.0     6.0921E-10       -14.4599301574  3.55E-15

  *** SCF run converged in    12 steps ***


  Core Hamiltonian energy:                                    -14.64367036421440
  Repulsive potential energy:                                   0.13584563866959
  Electrostatic energy:                                         0.05068602840497
  Self-consistent dispersion energy:                           -0.00279190787362
  Non-self consistent dispersion energy:                        0.00000044762212
  Correction for halogen bonding:                               0.00000000000000
  Electronic entropic energy:                                  -0.00000000000000
  Fermi energy:                                                -0.26882284343396

  Total energy:                                               -14.45993015739134
  Total energy (extrapolated to T->0):                        -14.45993015739134

 ENERGY| Total FORCE_EVAL ( QS ) energy [hartree]            -14.459930157391339

 OPT| **************************************************************************
 OPT| Step number                                                              3
 OPT| Optimization method                                                   BFGS
 OPT| Total energy [hartree]                                      -14.4599301574
 OPT| Effective energy change [hartree]                            -0.0000241337
 OPT| Predicted energy change [hartree]                            -0.0000174397
 OPT| Scaling factor                                                0.0000000000
 OPT| Step size                                                     0.0054977579
 OPT| Trust radius                                                  0.4724315332
 OPT| Decrease in energy                                                     YES
 OPT| Used time [s]                                                        0.011
 OPT|
 OPT| Maximum step size                                             0.0054977579
 OPT| Convergence limit for maximum step size                       0.0030000000
 OPT| Maximum step size is converged                                          NO
 OPT|
 OPT| RMS step size                                                 0.0029059886
 OPT| Convergence limit for RMS step size                           0.0015000000
 OPT| RMS step size is converged                                              NO
 OPT|
 OPT| Maximum gradient                                              0.0013929431
 OPT| Convergence limit for maximum gradient                        0.0004500000
 OPT| Maximum gradient is converged                                           NO
 OPT|
 OPT| RMS gradient                                                  0.0004646958
 OPT| Convergence limit for RMS gradient                            0.0003000000
 OPT| RMS gradient is converged                                               NO
 OPT| **************************************************************************
 OPT| Estimated peak process memory after this step [MiB]                    163

 --------------------------
 OPTIMIZATION STEP:      4
 --------------------------

 Extrapolation method: ASPC

 Number of electrons:                                                         24
 Number of occupied orbitals:                                                 12
 Number of molecular orbitals:                                                20

 Number of orbital functions:                                                 20
 Number of independent orbital functions:                                     20


 SCF WAVEFUNCTION OPTIMIZATION

  Step     Update method      Time    Convergence         Total energy    Change
  ------------------------------------------------------------------------------
     1 TBLite/Diag 0.40E+00    0.0     0.00587458       -14.4599383531 -1.45E+01
     2 TBLite/Diag 0.40E+00    0.0     0.00095707       -14.4599389300 -5.77E-07
     3 TBLite/Diag 0.40E+00    0.0     0.00017640       -14.4599389454 -1.54E-08
     4 TBLite/Diag 0.40E+00    0.0     0.00014440       -14.4599389497 -4.32E-09
     5 TBLite/Diag 0.40E+00    0.0     0.00006734       -14.4599389543 -4.51E-09
     6 TBLite/Diag 0.40E+00    0.0     0.00000584       -14.4599389543 -6.25E-11
     7 TBLite/Diag 0.40E+00    0.0     0.00000249       -14.4599389543 -9.61E-12
     8 TBLite/Diag 0.40E+00    0.0     0.00000099       -14.4599389543 -9.04E-13
     9 TBLite/Diag 0.40E+00    0.0     0.00000008       -14.4599389543 -1.78E-15
    10 TBLite/Diag 0.40E+00    0.0     0.00000001       -14.4599389543 -7.11E-15
    11 TBLite/Diag 0.40E+00    0.0     3.1702E-09       -14.4599389543  1.78E-15
    12 TBLite/Diag 0.40E+00    0.0     1.2215E-09       -14.4599389543  5.33E-15
    13 TBLite/Diag 0.40E+00    0.0     2.6795E-10       -14.4599389543  1.78E-15

  *** SCF run converged in    13 steps ***


  Core Hamiltonian energy:                                    -14.64342649069377
  Repulsive potential energy:                                   0.13555478251175
  Electrostatic energy:                                         0.05072443231759
  Self-consistent dispersion energy:                           -0.00279212682410
  Non-self consistent dispersion energy:                        0.00000044836225
  Correction for halogen bonding:                               0.00000000000000
  Electronic entropic energy:                                  -0.00000000000000
  Fermi energy:                                                -0.26876713493197

  Total energy:                                               -14.45993895432627
  Total energy (extrapolated to T->0):                        -14.45993895432627

 ENERGY| Total FORCE_EVAL ( QS ) energy [hartree]            -14.459938954326274

 OPT| **************************************************************************
 OPT| Step number                                                              4
 OPT| Optimization method                                                   BFGS
 OPT| Total energy [hartree]                                      -14.4599389543
 OPT| Effective energy change [hartree]                            -0.0000087969
 OPT| Predicted energy change [hartree]                            -0.0000079303
 OPT| Scaling factor                                                0.0000000000
 OPT| Step size                                                     0.0070337032
 OPT| Trust radius                                                  0.4724315332
 OPT| Decrease in energy                                                     YES
 OPT| Used time [s]                                                        0.011
 OPT|
 OPT| Maximum step size                                             0.0070337032
 OPT| Convergence limit for maximum step size                       0.0030000000
 OPT| Maximum step size is converged                                          NO
 OPT|
 OPT| RMS step size                                                 0.0031164593
 OPT| Convergence limit for RMS step size                           0.0015000000
 OPT| RMS step size is converged                                              NO
 OPT|
 OPT| Maximum gradient                                              0.0005612896
 OPT| Convergence limit for maximum gradient                        0.0004500000
 OPT| Maximum gradient is converged                                           NO
 OPT|
 OPT| RMS gradient                                                  0.0001624983
 OPT| Convergence limit for RMS gradient                            0.0003000000
 OPT| RMS gradient is converged                                              YES
 OPT| **************************************************************************
 OPT| Estimated peak process memory after this step [MiB]                    163

 --------------------------
 OPTIMIZATION STEP:      5
 --------------------------

 Extrapolation method: ASPC

 Number of electrons:                                                         24
 Number of occupied orbitals:                                                 12
 Number of molecular orbitals:                                                20

 Number of orbital functions:                                                 20
 Number of independent orbital functions:                                     20


 SCF WAVEFUNCTION OPTIMIZATION

  Step     Update method      Time    Convergence         Total energy    Change
  ------------------------------------------------------------------------------
     1 TBLite/Diag 0.40E+00    0.0     0.00263746       -14.4599409100 -1.45E+01
     2 TBLite/Diag 0.40E+00    0.0     0.00004436       -14.4599409134 -3.43E-09
     3 TBLite/Diag 0.40E+00    0.0     0.00005049       -14.4599409129  4.99E-10
     4 TBLite/Diag 0.40E+00    0.0     0.00003630       -14.4599409143 -1.43E-09
     5 TBLite/Diag 0.40E+00    0.0     0.00000244       -14.4599409143 -1.06E-11
     6 TBLite/Diag 0.40E+00    0.0     0.00000162       -14.4599409143 -2.00E-12
     7 TBLite/Diag 0.40E+00    0.0     0.00000030       -14.4599409143 -1.39E-13
     8 TBLite/Diag 0.40E+00    0.0     0.00000014       -14.4599409143 -8.88E-15
     9 TBLite/Diag 0.40E+00    0.0     0.00000002       -14.4599409143 -7.11E-15
    10 TBLite/Diag 0.40E+00    0.0     3.9210E-09       -14.4599409143 -1.78E-15
    11 TBLite/Diag 0.40E+00    0.0     3.2877E-10       -14.4599409143  0.00E+00

  *** SCF run converged in    11 steps ***


  Core Hamiltonian energy:                                    -14.64343309492346
  Repulsive potential energy:                                   0.13556225948385
  Electrostatic energy:                                         0.05072170282993
  Self-consistent dispersion energy:                           -0.00279223036904
  Non-self consistent dispersion energy:                        0.00000044864850
  Correction for halogen bonding:                               0.00000000000000
  Electronic entropic energy:                                  -0.00000000000000
  Fermi energy:                                                -0.26874533834361

  Total energy:                                               -14.45994091433022
  Total energy (extrapolated to T->0):                        -14.45994091433022

 ENERGY| Total FORCE_EVAL ( QS ) energy [hartree]            -14.459940914330218

 OPT| **************************************************************************
 OPT| Step number                                                              5
 OPT| Optimization method                                                   BFGS
 OPT| Total energy [hartree]                                      -14.4599409143
 OPT| Effective energy change [hartree]                            -0.0000019600
 OPT| Predicted energy change [hartree]                            -0.0000014689
 OPT| Scaling factor                                                0.0000000000
 OPT| Step size                                                     0.0033932338
 OPT| Trust radius                                                  0.4724315332
 OPT| Decrease in energy                                                     YES
 OPT| Used time [s]                                                        0.010
 OPT|
 OPT| Maximum step size                                             0.0033932338
 OPT| Convergence limit for maximum step size                       0.0030000000
 OPT| Maximum step size is converged                                          NO
 OPT|
 OPT| RMS step size                                                 0.0015073823
 OPT| Convergence limit for RMS step size                           0.0015000000
 OPT| RMS step size is converged                                              NO
 OPT|
 OPT| Maximum gradient                                              0.0006341009
 OPT| Convergence limit for maximum gradient                        0.0004500000
 OPT| Maximum gradient is converged                                           NO
 OPT|
 OPT| RMS gradient                                                  0.0001873465
 OPT| Convergence limit for RMS gradient                            0.0003000000
 OPT| RMS gradient is converged                                              YES
 OPT| **************************************************************************
 OPT| Estimated peak process memory after this step [MiB]                    163

 --------------------------
 OPTIMIZATION STEP:      6
 --------------------------

 Extrapolation method: ASPC

 Number of electrons:                                                         24
 Number of occupied orbitals:                                                 12
 Number of molecular orbitals:                                                20

 Number of orbital functions:                                                 20
 Number of independent orbital functions:                                     20


 SCF WAVEFUNCTION OPTIMIZATION

  Step     Update method      Time    Convergence         Total energy    Change
  ------------------------------------------------------------------------------
     1 TBLite/Diag 0.40E+00    0.0     0.00234826       -14.4599421066 -1.45E+01
     2 TBLite/Diag 0.40E+00    0.0     0.00027018       -14.4599421527 -4.61E-08
     3 TBLite/Diag 0.40E+00    0.0     0.00006291       -14.4599421531 -3.83E-10
     4 TBLite/Diag 0.40E+00    0.0     0.00005171       -14.4599421542 -1.05E-09
     5 TBLite/Diag 0.40E+00    0.0     0.00001938       -14.4599421545 -3.60E-10
     6 TBLite/Diag 0.40E+00    0.0     0.00000128       -14.4599421545 -4.35E-12
     7 TBLite/Diag 0.40E+00    0.0     0.00000074       -14.4599421545 -6.95E-13
     8 TBLite/Diag 0.40E+00    0.0     0.00000026       -14.4599421545 -7.11E-14
     9 TBLite/Diag 0.40E+00    0.0     0.00000002       -14.4599421545  0.00E+00
    10 TBLite/Diag 0.40E+00    0.0     5.2733E-09       -14.4599421545  1.78E-15
    11 TBLite/Diag 0.40E+00    0.0     6.5240E-10       -14.4599421545  5.33E-15

  *** SCF run converged in    11 steps ***


  Core Hamiltonian energy:                                    -14.64347238958053
  Repulsive potential energy:                                   0.13561101621132
  Electrostatic energy:                                         0.05071105080728
  Self-consistent dispersion energy:                           -0.00279228049618
  Non-self consistent dispersion energy:                        0.00000044853327
  Correction for halogen bonding:                               0.00000000000000
  Electronic entropic energy:                                  -0.00000000000000
  Fermi energy:                                                -0.26873711277976

  Total energy:                                               -14.45994215452483
  Total energy (extrapolated to T->0):                        -14.45994215452483

 ENERGY| Total FORCE_EVAL ( QS ) energy [hartree]            -14.459942154524827

 OPT| **************************************************************************
 OPT| Step number                                                              6
 OPT| Optimization method                                                   BFGS
 OPT| Total energy [hartree]                                      -14.4599421545
 OPT| Effective energy change [hartree]                            -0.0000012402
 OPT| Predicted energy change [hartree]                            -0.0000010833
 OPT| Scaling factor                                                0.0000000000
 OPT| Step size                                                     0.0048800464
 OPT| Trust radius                                                  0.4724315332
 OPT| Decrease in energy                                                     YES
 OPT| Used time [s]                                                        0.010
 OPT|
 OPT| Maximum step size                                             0.0048800464
 OPT| Convergence limit for maximum step size                       0.0030000000
 OPT| Maximum step size is converged                                          NO
 OPT|
 OPT| RMS step size                                                 0.0015991562
 OPT| Convergence limit for RMS step size                           0.0015000000
 OPT| RMS step size is converged                                              NO
 OPT|
 OPT| Maximum gradient                                              0.0004663924
 OPT| Convergence limit for maximum gradient                        0.0004500000
 OPT| Maximum gradient is converged                                           NO
 OPT|
 OPT| RMS gradient                                                  0.0001351349
 OPT| Convergence limit for RMS gradient                            0.0003000000
 OPT| RMS gradient is converged                                              YES
 OPT| **************************************************************************
 OPT| Estimated peak process memory after this step [MiB]                    163

 --------------------------
 OPTIMIZATION STEP:      7
 --------------------------

 Extrapolation method: ASPC

 Number of electrons:                                                         24
 Number of occupied orbitals:                                                 12
 Number of molecular orbitals:                                                20

 Number of orbital functions:                                                 20
 Number of independent orbital functions:                                     20


 SCF WAVEFUNCTION OPTIMIZATION

  Step     Update method      Time    Convergence         Total energy    Change
  ------------------------------------------------------------------------------
     1 TBLite/Diag 0.40E+00    0.0     0.00152913       -14.4599422543 -1.45E+01
     2 TBLite/Diag 0.40E+00    0.0     0.00034234       -14.4599423157 -6.15E-08
     3 TBLite/Diag 0.40E+00    0.0     0.00007310       -14.4599423173 -1.56E-09
     4 TBLite/Diag 0.40E+00    0.0     0.00005175       -14.4599423178 -5.42E-10
     5 TBLite/Diag 0.40E+00    0.0     0.00002242       -14.4599423184 -5.14E-10
     6 TBLite/Diag 0.40E+00    0.0     0.00000102       -14.4599423184 -2.44E-12
     7 TBLite/Diag 0.40E+00    0.0     0.00000051       -14.4599423184 -4.41E-13
     8 TBLite/Diag 0.40E+00    0.0     0.00000015       -14.4599423184 -4.09E-14
     9 TBLite/Diag 0.40E+00    0.0     0.00000002       -14.4599423184 -1.78E-15
    10 TBLite/Diag 0.40E+00    0.0     3.2739E-09       -14.4599423184  8.88E-15
    11 TBLite/Diag 0.40E+00    0.0     3.1683E-10       -14.4599423184 -1.07E-14

  *** SCF run converged in    11 steps ***


  Core Hamiltonian energy:                                    -14.64351267814351
  Repulsive potential energy:                                   0.13566207611931
  Electrostatic energy:                                         0.05070010855581
  Self-consistent dispersion energy:                           -0.00279227318396
  Non-self consistent dispersion energy:                        0.00000044829715
  Correction for halogen bonding:                               0.00000000000000
  Electronic entropic energy:                                  -0.00000000000000
  Fermi energy:                                                -0.26874526838083

  Total energy:                                               -14.45994231835520
  Total energy (extrapolated to T->0):                        -14.45994231835520

 ENERGY| Total FORCE_EVAL ( QS ) energy [hartree]            -14.459942318355196

 OPT| **************************************************************************
 OPT| Step number                                                              7
 OPT| Optimization method                                                   BFGS
 OPT| Total energy [hartree]                                      -14.4599423184
 OPT| Effective energy change [hartree]                            -0.0000001638
 OPT| Predicted energy change [hartree]                            -0.0000004327
 OPT| Scaling factor                                                0.0000000000
 OPT| Step size                                                     0.0022708667
 OPT| Trust radius                                                  0.4724315332
 OPT| Decrease in energy                                                     YES
 OPT| Used time [s]                                                        0.010
 OPT|
 OPT| Maximum step size                                             0.0022708667
 OPT| Convergence limit for maximum step size                       0.0030000000
 OPT| Maximum step size is converged                                         YES
 OPT|
 OPT| RMS step size                                                 0.0008056730
 OPT| Convergence limit for RMS step size                           0.0015000000
 OPT| RMS step size is converged                                             YES
 OPT|
 OPT| Maximum gradient                                              0.0002354468
 OPT| Convergence limit for maximum gradient                        0.0004500000
 OPT| Maximum gradient is converged                                          YES
 OPT|
 OPT| RMS gradient                                                  0.0000733066
 OPT| Convergence limit for RMS gradient                            0.0003000000
 OPT| RMS gradient is converged                                              YES
 OPT| **************************************************************************
 OPT| Estimated peak process memory after this step [MiB]                    163

 *******************************************************************************
 ***                    GEOMETRY OPTIMIZATION COMPLETED                      ***
 *******************************************************************************

 write_final_structure: Optimization converged, writing XYZ file gladly:
  acetic_acid_GFN2_mol_geoopt-FINAL-1_7.xyz

 write_final_structure: Optimization converged, writing CIF file gladly:
  acetic_acid_GFN2_mol_geoopt-FINAL-1_7.cif

 write_final_structure: Done!

                    Reevaluating energy at the minimum

 Extrapolation method: ASPC

 Number of electrons:                                                         24
 Number of occupied orbitals:                                                 12
 Number of molecular orbitals:                                                20

 Number of orbital functions:                                                 20
 Number of independent orbital functions:                                     20


 SCF WAVEFUNCTION OPTIMIZATION

  Step     Update method      Time    Convergence         Total energy    Change
  ------------------------------------------------------------------------------
     1 TBLite/Diag 0.40E+00    0.0     2.2841E-10       -14.4599423184 -1.45E+01

  *** SCF run converged in     1 steps ***


  Core Hamiltonian energy:                                    -14.64351267814754
  Repulsive potential energy:                                   0.13566207611931
  Electrostatic energy:                                         0.05070010855984
  Self-consistent dispersion energy:                           -0.00279227318395
  Non-self consistent dispersion energy:                        0.00000044829715
  Correction for halogen bonding:                               0.00000000000000
  Electronic entropic energy:                                  -0.00000000000000
  Fermi energy:                                                -0.26874526844889

  Total energy:                                               -14.45994231835519
  Total energy (extrapolated to T->0):                        -14.45994231835519

 ENERGY| Total FORCE_EVAL ( QS ) energy [hartree]            -14.459942318355191

 -------------------------------------------------------------------------------
 -                                                                             -
 -                                DBCSR STATISTICS                             -
 -                                                                             -
 -------------------------------------------------------------------------------
 COUNTER                                    TOTAL       BLAS       SMM       ACC
 flops     1 x    20 x     1                19200       0.0%    100.0%      0.0%     
 flops     1 x     1 x    20                47200       0.0%    100.0%      0.0%     
 flops     4 x    20 x     1                76800       0.0%    100.0%      0.0%     
 flops     1 x    20 x     4                76800       0.0%    100.0%      0.0%     
 flops     4 x     1 x    20               132160       0.0%    100.0%      0.0%     
 flops     1 x     4 x    20               169920       0.0%    100.0%      0.0%     
 flops     4 x    20 x     4               307200       0.0%    100.0%      0.0%     
 flops     4 x     4 x    20               755200       0.0%    100.0%      0.0%     
 flops inhomo. stacks                           0       0.0%      0.0%      0.0%
 flops total                         1.584480E+06       0.0%    100.0%      0.0%
 flops max/rank                      1.584480E+06       0.0%    100.0%      0.0%
 matmuls inhomo. stacks                         0       0.0%      0.0%      0.0%
 matmuls total                               6168       0.0%    100.0%      0.0%
 number of processed stacks                   592       0.0%    100.0%      0.0%
 average stack size                                     0.0      10.4       0.0
 marketing flops                     1.612800E+06
 -------------------------------------------------------------------------------
 # multiplications                            148
 max memory usage/rank              13.669954E+09
 # max total images/rank                        1
 # max 3D layers                                1
 # MPI messages exchanged                       0
 -------------------------------------------------------------------------------
 -                                                                             -
 -                      DBCSR MESSAGE PASSING PERFORMANCE                      -
 -                                                                             -
 -------------------------------------------------------------------------------
 ROUTINE             CALLS      AVE VOLUME [Bytes]
 MP_Bcast                9                     12.
 MP_Allreduce          715                      9.
 MP_Alltoall          4966                   2307.
 MP_ISend              592                    274.
 MP_IRecv              592                    274.
 -------------------------------------------------------------------------------

 -------------------------------------------------------------------------------
 -                                                                             -
 -                          OFFLOAD MEMPOOL STATISTICS                         -
 -                                                                             -
 -------------------------------------------------------------------------------
 Memory consumption                Number of allocations  Used [MiB]  Size [MiB]
 Device                                                1           0           0
 Host                                                  1           0           0
 -------------------------------------------------------------------------------

 MEMORY| Estimated peak process memory [MiB]                                 163

 -------------------------------------------------------------------------------
 -                                                                             -
 -                         MESSAGE PASSING PERFORMANCE                         -
 -                                                                             -
 -------------------------------------------------------------------------------

 ROUTINE             CALLS      AVE VOLUME [Bytes]
 MP_Group                1
 MP_Bcast              227                     86.
 MP_Allreduce         3569                     62.
 MP_Sync               119
 MP_comm_split         118
 -------------------------------------------------------------------------------


 -------------------------------------------------------------------------------
 -                                                                             -
 -                           R E F E R E N C E S                               -
 -                                                                             -
 -------------------------------------------------------------------------------
 
 CP2K version 2026.1 (Development Version), the CP2K developers group (2026).
 CP2K is freely available from https://www.cp2k.org/ .
 
 M. Iannuzzi, J. Wilhelm, F. Stein, A. Bussy, H. Elgabarty, D. Golze, A. Hehn, 
 M. Graml, S. Marek, B. Sertcan Gökmen, C. Schran, H. Forbert, R. Z. 
 Khaliullin, A. Kozhevnikov, M. Taillefumier, R. Meli, V. V. Rybkin, M. Brehm, 
 R. Schade, O. Schütt, J. V. Pototschnig, H. Mirhosseini, A. Knüpfer, D. Marx, 
 M. Krack, J. Hutter, T. D. Kühne.
 J. Phys. Chem. B 130, 1237-1310 (2026).
 The CP2K Program Package Made Simple.
 https://doi.org/10.1021/acs.jpcb.5c05851

 A. Katbashev, M. Stahn, T. Rose, V. Alizadeh, M. Friede, C. Plett, P. 
 Steinbach, S. Ehlert.
 J. Phys. Chem. A 129, 2667-2682 (2025).
 Overview on Building Blocks and Applications of Efficient and Robust Extended 
 Tight Binding.
 https://doi.org/10.1021/acs.jpca.4c08263

 T. D. Kühne, M. Iannuzzi, M. Del Ben, V. V. Rybkin, P. Seewald, F. Stein, T. 
 Laino, R. Z. Khaliullin, O. Schütt, F. Schiffmann, D. Golze, J. Wilhelm, S. 
 Chulkov, M. H. Bani-Hashemian, V. Weber, U. Borstnik, M. Taillefumier, A. S. 
 Jakobovits, A. Lazzaro, H. Pabst, T. Müller, R. Schade, M. Guidon, S. 
 Andermatt, N. Holmberg, G. K. Schenter, A. Hehn, A. Bussy, F. Belleflamme, G. 
 Tabacchi, A. Glöß, M. Lass, I. Bethune, C. J. Mundy, C. Plessl, M. Watkins, 
 J. VandeVondele, M. Krack, J. Hutter.
 J. Chem. Phys. 152, 194103 (2020).
 CP2K: An electronic structure and molecular dynamics software package - 
 Quickstep: Efficient and accurate electronic structure calculations.
 https://doi.org/10.1063/5.0007045

 P. Pracht, E. Caldeweyher, S. Ehlert, S. Grimme.
 ChemRxiv, (2019).
 A Robust Non-Self-Consistent Tight-Binding Quantum Chemistry Method for large 
 Molecules.
 https://doi.org/10.26434/chemrxiv.8326202.v1

 S. Grimme, C. Bannwarth, P. Shushkov.
 J. Chem. Theory Comput. 13, 1989 (2017).
 A Robust and Accurate Tight-Binding Quantum Chemical Method for Structures, 
 Vibrational Frequencies, and Noncovalent Interactions of Large Molecular 
 Systems Parametrized for All spd-Block Elements (Z = 1-86).
 https://doi.org/10.1021/acs.jctc.7b00118

 O. Schuett, P. Messmer, J. Hutter, J. VandeVondele.
 Electronic Structure Calculations on Graphics Processing Units, 173-190 (2016).
 GPU-Accelerated Sparse Matrix-Matrix Multiplication for Linear Scaling Density 
 Functional Theory.
 https://doi.org/10.1002/9781118670712.ch8

 A. Heinecke, G. Henry, M. Hutchinson, H. Pabst.
 Proceedings of Intl. Supercomputing Conference, 981-991 (2016).
 LIBXSMM: Accelerating Small Matrix Multiplications by Runtime Code Generation.
 https://doi.org/10.1109/SC.2016.83

 U. Borstnik, J. VandeVondele, V. Weber, J. Hutter.
 Parallel Comput. 40, 47-58 (2014).
 Sparse matrix multiplication: The distributed block-compressed sparse row 
 library.
 https://doi.org/10.1016/j.parco.2014.03.012

 T. D. Kühne, M. Krack, F. R. Mohamed, M. Parrinello.
 Phys. Rev. Lett. 98, 066401 (2007).
 Efficient and accurate Car-Parrinello-like approach to Born-Oppenheimer 
 molecular dynamics.
 https://doi.org/10.1103/PhysRevLett.98.066401

 M. Frigo, S. G. Johnson.
 Proc. IEEE 93, 216-231 (2005).
 The design and implementation of FFTW3.
 https://doi.org/10.1109/JPROC.2004.840301

 J. Kolafa.
 J. Comput. Chem. 25, 335-342 (2004).
 Time-reversible always stable predictor-corrector method for molecular dynamics 
 of polarizable molecules.
 https://doi.org/10.1002/jcc.10385

 N. D. Mermin.
 Phys. Rev. 137, A1441-A1443 (1965).
 Thermal Properties of the Inhomogeneous Electron Gas.
 https://doi.org/10.1103/PhysRev.137.A1441


 -------------------------------------------------------------------------------
 -                                                                             -
 -                                T I M I N G                                  -
 -                                                                             -
 -------------------------------------------------------------------------------
 SUBROUTINE                       CALLS  ASD         SELF TIME        TOTAL TIME
                                MAXIMUM       AVERAGE  MAXIMUM  AVERAGE  MAXIMUM
 CP2K                                 1  1.0    0.001    0.001    0.096    0.096
 cp_geo_opt                           1  2.0    0.000    0.000    0.091    0.091
 geoopt_bfgs                          1  3.0    0.001    0.001    0.091    0.091
 cp_eval_at                           9  4.0    0.000    0.000    0.087    0.087
 qs_forces                            8  5.0    0.000    0.000    0.084    0.084
 qs_energies                          9  5.9    0.000    0.000    0.081    0.081
 scf_env_do_scf                       9  6.9    0.000    0.000    0.064    0.064
 scf_env_do_scf_inner_loop          102  8.0    0.005    0.005    0.064    0.064
 qs_scf_new_mos                     102  9.0    0.000    0.000    0.046    0.046
 cp_dbcsr_plus_fm_fm_t              118 10.8    0.000    0.000    0.027    0.027
 calculate_dm_sparse                110 10.0    0.000    0.000    0.025    0.025
 dbcsr_multiply_generic             148 12.0    0.001    0.001    0.023    0.023
 copy_dbcsr_to_fm                   234 10.5    0.001    0.001    0.014    0.014
 make_m2s                           296 13.0    0.001    0.001    0.014    0.014
 dbcsr_complete_redistribute        500 12.2    0.006    0.006    0.012    0.012
 rebuild_ks_matrix                  110  9.8    0.000    0.000    0.011    0.011
 build_tblite_ks_matrix             110 10.8    0.010    0.010    0.011    0.011
 init_scf_run                         9  6.9    0.000    0.000    0.010    0.010
 qs_ks_update_qs_env                102  9.0    0.000    0.000    0.009    0.009
 scf_env_initial_rho_setup            9  7.9    0.000    0.000    0.009    0.009
 wfi_extrapolate                      9  8.9    0.000    0.000    0.009    0.009
 qs_diis_b_step                      93 10.0    0.000    0.000    0.008    0.008
 eigensolver                        102 10.0    0.001    0.001    0.008    0.008
 cp_fm_syevd                        118 10.6    0.000    0.000    0.007    0.007
 build_tblite_matrices               17  7.0    0.003    0.003    0.007    0.007
 copy_fm_to_dbcsr                   266 11.8    0.000    0.000    0.007    0.007
 make_images                        296 14.0    0.001    0.001    0.006    0.006
 cp_dbcsr_sm_fm_multiply             30 10.4    0.000    0.000    0.006    0.006
 dbcsr_finalize                    2736 12.1    0.001    0.001    0.005    0.005
 multiply_cannon                    148 13.0    0.002    0.002    0.004    0.004
 qs_energies_init_hamiltonians        9  6.9    0.000    0.000    0.004    0.004
 dbcsr_create_new                  3835 13.1    0.003    0.003    0.004    0.004
 cp_fm_syevd_base                   118 11.6    0.004    0.004    0.004    0.004
 dbcsr_crop_matrix                  236 13.8    0.000    0.000    0.004    0.004
 tb_get_multipole                    17  8.0    0.002    0.002    0.004    0.004
 dbcsr_desymmetrize_deep            234 11.5    0.001    0.001    0.004    0.004
 cp_dbcsr_sm_fm_multiply_core        30 11.4    0.000    0.000    0.003    0.003
 dbcsr_copy_submatrix               236 14.8    0.001    0.001    0.003    0.003
 qs_init_subsys                       1  2.0    0.000    0.000    0.003    0.003
 dbcsr_iterator_start              6427 12.6    0.002    0.002    0.003    0.003
 dbcsr_merge_all                    854 14.9    0.002    0.002    0.002    0.002
 qs_ks_update_qs_env_forces           8  6.0    0.000    0.000    0.002    0.002
 reorthogonalize_vectors              8  9.9    0.000    0.000    0.002    0.002
 make_basis_lowdin                    8 10.9    0.000    0.000    0.002    0.002
 parallel_gemm_fm_gemm              254 10.6    0.000    0.000    0.002    0.002
 cp_fm_redistribute_start           118 11.6    0.002    0.002    0.002    0.002
 cp_fm_gemm                         254 11.6    0.002    0.002    0.002    0.002
 dbcsr_iterator_stop               6427 12.6    0.002    0.002    0.002    0.002
 dbcsr_destroy                     3623 12.5    0.001    0.001    0.002    0.002
 make_images_data                   296 15.0    0.001    0.001    0.002    0.002
 dbcsr_make_images_dense            236 13.8    0.000    0.000    0.002    0.002
 -------------------------------------------------------------------------------

 The number of warnings for this run is : 0
 
 -------------------------------------------------------------------------------
  **** **** ******  **  PROGRAM ENDED AT                 2026-05-23 22:46:20.587
 ***** ** ***  *** **   PROGRAM RAN ON                                spark-c86c
 **    ****   ******    PROGRAM RAN BY                                  kuehne88
 ***** **    ** ** **   PROGRAM PROCESS ID                               2226146
  **** **  *******  **  PROGRAM STOPPED IN /home/kuehne88/periodic-gfn2-benchmar
                                           ks/X23b/runs/molecule_geoopt/GFN2/ace
                                           tic_acid_GFN2_mol_geoopt
