 DBCSR| CPU Multiplication driver                                           XSMM (U)
 DBCSR| Multrec recursion limit                                              512 (U)
 DBCSR| Multiplication stack size                                           1000 (D)
 DBCSR| Maximum elements for images                                    UNLIMITED (U)
 DBCSR| Multiplicative factor virtual images                                   1 (U)
 DBCSR| Use multiplication densification                                       T (D)
 DBCSR| Multiplication size stacks                                             3 (U)
 DBCSR| Use memory pool for CPU allocation                                     F (U)
 DBCSR| Number of 3D layers                                               SINGLE (U)
 DBCSR| Use MPI memory allocation                                              F (U)
 DBCSR| Use RMA algorithm                                                      F (U)
 DBCSR| Use Communication thread                                               T (U)
 DBCSR| Communication thread load                                             87 (D)
 DBCSR| MPI: My process id                                                     0
 DBCSR| MPI: Number of processes                                               1
 DBCSR| OMP: Current number of threads                                         1
 DBCSR| OMP: Max number of threads                                             1
 DBCSR| Split modifier for TAS multiplication algorithm                  1.0E+00 (U)


  **** **** ******  **  PROGRAM STARTED AT               2026-05-23 22:46:18.306
 ***** ** ***  *** **   PROGRAM STARTED ON                            spark-c86c
 **    ****   ******    PROGRAM STARTED BY                              kuehne88
 ***** **    ** ** **   PROGRAM PROCESS ID                               2222428
  **** **  *******  **  PROGRAM STARTED IN /home/kuehne88/periodic-gfn2-benchmar
                                           ks/X23b/runs/molecule_geoopt/GFN1/ant
                                           hracene_GFN1_mol_geoopt

 CP2K| version string:                 CP2K version 2026.1 (Development Version)
 CP2K| source code revision number:                                   0622d442e4
 CP2K| cp2kflags: omp fftw3 libxc parallel scalapack mpi_f08 xsmm spglib libdftd
 CP2K|            4 dftd4_v3 mctc-lib tblite
 CP2K| is freely available from                            https://www.cp2k.org/
 CP2K| Program compiled at                                   2026-05-23 22:05:08
 CP2K| Program compiled on                                            spark-c86c
 CP2K| Program compiled for                                              aarch64
 CP2K| Data directory path    /home/kuehne88/cp2k-master-tblite-20260523/install
 CP2K| Input file name                            anthracene_GFN1_mol_geoopt.inp

 GLOBAL| Force Environment number                                              1
 GLOBAL| Basis set file name                                           BASIS_SET
 GLOBAL| Potential file name                                           POTENTIAL
 GLOBAL| MM Potential file name                                     MM_POTENTIAL
 GLOBAL| Coordinate file name                                      __STD_INPUT__
 GLOBAL| Method name                                                        CP2K
 GLOBAL| Project name                                 anthracene_GFN1_mol_geoopt
 GLOBAL| Run type                                                        GEO_OPT
 GLOBAL| FFT library                                                       FFTW3
 GLOBAL| Diagonalization library                                       ScaLAPACK
 GLOBAL| Cholesky decomposition library                                ScaLAPACK
 GLOBAL| DGEMM library                                                      BLAS
 GLOBAL| Direct generalized diagonalization requested                          F
 GLOBAL| Orthonormality check for eigenvectors                          DISABLED
 GLOBAL| Matrix multiplication library                                 ScaLAPACK
 GLOBAL| All-to-all communication in single precision                          F
 GLOBAL| FFTs using library dependent lengths                                  F
 GLOBAL| Grid backend                                                       AUTO
 GLOBAL| Global print level                                                  LOW
 GLOBAL| MPI I/O enabled                                                       T
 GLOBAL| Total number of message passing processes                             1
 GLOBAL| Number of distributed systems (nodes)                                 1
 GLOBAL| Number of threads for this process                                    1
 GLOBAL| This output is from process                                           0
 GLOBAL| OpenMP stack size per thread (OMP_STACKSIZE)                    default
 GLOBAL| CPU model name                                                  UNKNOWN
 GLOBAL| CPUID                                                              2200
 GLOBAL| Compiled for CPUID                                                 2000

 *** HINT in environment.F:970 :: The compiler target flags (arm_arch64)   ***
 *** used to build this binary cannot exploit all extensions of this CPU   ***
 *** model (arm_sve256). Consider compiler target flags as part of FCFLAGS ***
 *** and CFLAGS (ARCH file).                                               ***


 MEMORY| system memory details [Kb]
 MEMORY|                        rank 0           min           max       average
 MEMORY| MemTotal            125508532     125508532     125508532     125508532
 MEMORY| MemFree             106659304     106659304     106659304     106659304
 MEMORY| Buffers                865972        865972        865972        865972
 MEMORY| Cached               13214800      13214800      13214800      13214800
 MEMORY| Slab                  1565140       1565140       1565140       1565140
 MEMORY| SReclaimable           888284        888284        888284        888284
 MEMORY| MemLikelyFree       121628360     121628360     121628360     121628360


 GENERATE|  Preliminary Number of Bonds generated:                             0
 GENERATE|  Achieved consistency in connectivity generation.


                  #####   #####        #     #   #     #       #          
                 #     # #     #      #    ##### #     #   # #####  ####  
                 #     # #           #       #   ###   #       #   #    # 
                 #     #  #####     #        #   #  #  #   #   #   ###### 
                 #   # #       #   #         #   #   # #   #   #   #      
                 #    #  #     #  #          #   #  #  # # #   #    #   # 
                  #### #  #####  #           #   ###   ##  #   #     ###  

                                   GFN1-xTB  
                                 Version 0.0                       
                            Johann V. Pototschnig                  



 TOTAL NUMBERS AND MAXIMUM NUMBERS

  Total number of            - Atomic kinds:                                   2
                             - Atoms:                                         24
                             - Shell sets:                                    48
                             - Shells:                                        48
                             - Primitive Cartesian functions:                278
                             - Cartesian basis functions:                     76
                             - Spherical basis functions:                     76

  Maximum angular momentum of the orbital basis functions:                     1


 SCF PARAMETERS         Density guess:                                     MOPAC
                        --------------------------------------------------------
                        max_scf:                                             300
                        max_scf_history:                                       0
                        max_diis:                                              4
                        --------------------------------------------------------
                        eps_scf:                                        1.00E-09
                        eps_scf_history:                                0.00E+00
                        eps_diis:                                       1.00E-01
                        eps_eigval:                                     1.00E-05
                        --------------------------------------------------------
                        level_shift [a.u.]:                             0.000000
                        added MOs                                        43    0
                        --------------------------------------------------------
                        Mixing method:                           DIRECT_P_MIXING
                        --------------------------------------------------------
                        Smear method:                                FERMI_DIRAC
                        Electronic temperature [K]:                        300.0
                        Electronic temperature [a.u.]:                  9.50E-04
                        Accuracy threshold:                             1.00E-06
                        --------------------------------------------------------
                        No outer SCF

 BFGS| Use rational function optimization for step estimation:                NO
 BFGS| Use model Hessian for initial guess:                                  YES
 BFGS| Restart Hessian:                                                       NO
 BFGS| Trust radius:                                                       0.472

 *******************************************************************************
 ***                     STARTING GEOMETRY OPTIMIZATION                      ***
 ***                                   BFGS                                  ***
 *******************************************************************************

 Extrapolation method: initial_guess

 Number of electrons:                                                         66
 Number of occupied orbitals:                                                 33
 Number of molecular orbitals:                                                76

 Number of orbital functions:                                                 76
 Number of independent orbital functions:                                     76


 SCF WAVEFUNCTION OPTIMIZATION

  Step     Update method      Time    Convergence         Total energy    Change
  ------------------------------------------------------------------------------
     1 TBLite/Diag 0.40E+00    0.0     1.32205578       -34.9681225633 -3.50E+01
     2 TBLite/Diag 0.40E+00    0.0     0.00869771       -34.9683483208 -2.26E-04
     3 TBLite/Diag 0.40E+00    0.0     0.00605570       -34.9682804369  6.79E-05
     4 TBLite/Diag 0.40E+00    0.0     0.00565636       -34.9683579158 -7.75E-05
     5 TBLite/Diag 0.40E+00    0.0     0.00125508       -34.9683630998 -5.18E-06
     6 TBLite/Diag 0.40E+00    0.0     0.00005594       -34.9683631152 -1.54E-08
     7 TBLite/Diag 0.40E+00    0.0     0.00000883       -34.9683631154 -2.01E-10
     8 TBLite/Diag 0.40E+00    0.0     0.00000155       -34.9683631154 -1.02E-11
     9 TBLite/Diag 0.40E+00    0.0     0.00000022       -34.9683631154 -7.82E-14
    10 TBLite/Diag 0.40E+00    0.0     0.00000010       -34.9683631154 -7.82E-14
    11 TBLite/Diag 0.40E+00    0.0     0.00000001       -34.9683631154  3.55E-14
    12 TBLite/Diag 0.40E+00    0.0     1.5219E-09       -34.9683631154  0.00E+00
    13 TBLite/Diag 0.40E+00    0.0     3.8005E-10       -34.9683631154 -3.55E-14

  *** SCF run converged in    13 steps ***


  Core Hamiltonian energy:                                    -35.57711120906887
  Repulsive potential energy:                                   0.62196614053407
  Electrostatic energy:                                         0.00153182531345
  Self-consistent dispersion energy:                            0.00000000000000
  Non-self consistent dispersion energy:                       -0.01474987218084
  Correction for halogen bonding:                               0.00000000000000
  Electronic entropic energy:                                  -0.00000000000000
  Fermi energy:                                                -0.34706618733569

  Total energy:                                               -34.96836311540219
  Total energy (extrapolated to T->0):                        -34.96836311540219

 ENERGY| Total FORCE_EVAL ( QS ) energy [hartree]            -34.968363115402191

 OPT| **************************************************************************
 OPT| Step number                                                              0
 OPT| Optimization method                                                   BFGS
 OPT| Total energy [hartree]                                      -34.9683631154
 OPT| Used time [s]                                                        0.031
 OPT| **************************************************************************
 OPT| Estimated peak process memory [MiB]                                    167

 --------------------------
 OPTIMIZATION STEP:      1
 --------------------------

 Extrapolation method: ASPC

 Number of electrons:                                                         66
 Number of occupied orbitals:                                                 33
 Number of molecular orbitals:                                                76

 Number of orbital functions:                                                 76
 Number of independent orbital functions:                                     76


 SCF WAVEFUNCTION OPTIMIZATION

  Step     Update method      Time    Convergence         Total energy    Change
  ------------------------------------------------------------------------------
     1 TBLite/Diag 0.40E+00    0.0     0.00746719       -34.9694292424 -3.50E+01
     2 TBLite/Diag 0.40E+00    0.0     0.00069110       -34.9694313132 -2.07E-06
     3 TBLite/Diag 0.40E+00    0.0     0.00022609       -34.9694312943  1.89E-08
     4 TBLite/Diag 0.40E+00    0.0     0.00021043       -34.9694313648 -7.05E-08
     5 TBLite/Diag 0.40E+00    0.0     0.00008263       -34.9694313815 -1.67E-08
     6 TBLite/Diag 0.40E+00    0.0     0.00001183       -34.9694313822 -7.29E-10
     7 TBLite/Diag 0.40E+00    0.0     0.00000286       -34.9694313822 -8.46E-13
     8 TBLite/Diag 0.40E+00    0.0     0.00000151       -34.9694313822 -2.92E-12
     9 TBLite/Diag 0.40E+00    0.0     0.00000002       -34.9694313822 -2.84E-14
    10 TBLite/Diag 0.40E+00    0.0     4.3239E-09       -34.9694313822  2.13E-14
    11 TBLite/Diag 0.40E+00    0.0     1.2838E-09       -34.9694313822 -4.26E-14
    12 TBLite/Diag 0.40E+00    0.0     7.6318E-11       -34.9694313822 -1.42E-14

  *** SCF run converged in    12 steps ***


  Core Hamiltonian energy:                                    -35.59861472731179
  Repulsive potential energy:                                   0.64242340259740
  Electrostatic energy:                                         0.00153896574608
  Self-consistent dispersion energy:                            0.00000000000000
  Non-self consistent dispersion energy:                       -0.01477902323003
  Correction for halogen bonding:                               0.00000000000000
  Electronic entropic energy:                                  -0.00000000000000
  Fermi energy:                                                -0.34662876361942

  Total energy:                                               -34.96943138219833
  Total energy (extrapolated to T->0):                        -34.96943138219833

 ENERGY| Total FORCE_EVAL ( QS ) energy [hartree]            -34.969431382198330

 OPT| **************************************************************************
 OPT| Step number                                                              1
 OPT| Optimization method                                                   BFGS
 OPT| Total energy [hartree]                                      -34.9694313822
 OPT| Effective energy change [hartree]                            -0.0010682668
 OPT| Predicted energy change [hartree]                            -0.0008693531
 OPT| Scaling factor                                                0.0000000000
 OPT| Step size                                                     0.0239489540
 OPT| Trust radius                                                  0.4724315332
 OPT| Decrease in energy                                                     YES
 OPT| Used time [s]                                                        0.029
 OPT|
 OPT| Maximum step size                                             0.0239489540
 OPT| Convergence limit for maximum step size                       0.0030000000
 OPT| Maximum step size is converged                                          NO
 OPT|
 OPT| RMS step size                                                 0.0116492972
 OPT| Convergence limit for RMS step size                           0.0015000000
 OPT| RMS step size is converged                                              NO
 OPT|
 OPT| Maximum gradient                                              0.0029660494
 OPT| Convergence limit for maximum gradient                        0.0004500000
 OPT| Maximum gradient is converged                                           NO
 OPT|
 OPT| RMS gradient                                                  0.0009201611
 OPT| Convergence limit for RMS gradient                            0.0003000000
 OPT| RMS gradient is converged                                               NO
 OPT| **************************************************************************
 OPT| Estimated peak process memory after this step [MiB]                    168

 --------------------------
 OPTIMIZATION STEP:      2
 --------------------------

 Extrapolation method: ASPC

 Number of electrons:                                                         66
 Number of occupied orbitals:                                                 33
 Number of molecular orbitals:                                                76

 Number of orbital functions:                                                 76
 Number of independent orbital functions:                                     76


 SCF WAVEFUNCTION OPTIMIZATION

  Step     Update method      Time    Convergence         Total energy    Change
  ------------------------------------------------------------------------------
     1 TBLite/Diag 0.40E+00    0.0     0.00273566       -34.9695748068 -3.50E+01
     2 TBLite/Diag 0.40E+00    0.0     0.00031885       -34.9695749950 -1.88E-07
     3 TBLite/Diag 0.40E+00    0.0     0.00006068       -34.9695749985 -3.50E-09
     4 TBLite/Diag 0.40E+00    0.0     0.00003628       -34.9695749991 -6.00E-10
     5 TBLite/Diag 0.40E+00    0.0     0.00001685       -34.9695749994 -2.78E-10
     6 TBLite/Diag 0.40E+00    0.0     0.00001017       -34.9695749995 -1.04E-10
     7 TBLite/Diag 0.40E+00    0.0     0.00000256       -34.9695749995 -6.21E-12
     8 TBLite/Diag 0.40E+00    0.0     0.00000055       -34.9695749995 -5.68E-13
     9 TBLite/Diag 0.40E+00    0.0     0.00000004       -34.9695749995  3.55E-14
    10 TBLite/Diag 0.40E+00    0.0     6.0591E-09       -34.9695749995 -4.26E-14
    11 TBLite/Diag 0.40E+00    0.0     2.5891E-09       -34.9695749995  1.42E-14
    12 TBLite/Diag 0.40E+00    0.0     8.0352E-11       -34.9695749995  0.00E+00

  *** SCF run converged in    12 steps ***


  Core Hamiltonian energy:                                    -35.60534152830382
  Repulsive potential energy:                                   0.64901770977232
  Electrostatic energy:                                         0.00154111966400
  Self-consistent dispersion energy:                            0.00000000000000
  Non-self consistent dispersion energy:                       -0.01479230059831
  Correction for halogen bonding:                               0.00000000000000
  Electronic entropic energy:                                  -0.00000000000000
  Fermi energy:                                                -0.34649407318970

  Total energy:                                               -34.96957499946582
  Total energy (extrapolated to T->0):                        -34.96957499946582

 ENERGY| Total FORCE_EVAL ( QS ) energy [hartree]            -34.969574999465820

 OPT| **************************************************************************
 OPT| Step number                                                              2
 OPT| Optimization method                                                   BFGS
 OPT| Total energy [hartree]                                      -34.9695749995
 OPT| Effective energy change [hartree]                            -0.0001436173
 OPT| Predicted energy change [hartree]                            -0.0001166375
 OPT| Scaling factor                                                0.0000000000
 OPT| Step size                                                     0.0141041045
 OPT| Trust radius                                                  0.4724315332
 OPT| Decrease in energy                                                     YES
 OPT| Used time [s]                                                        0.031
 OPT|
 OPT| Maximum step size                                             0.0141041045
 OPT| Convergence limit for maximum step size                       0.0030000000
 OPT| Maximum step size is converged                                          NO
 OPT|
 OPT| RMS step size                                                 0.0057202382
 OPT| Convergence limit for RMS step size                           0.0015000000
 OPT| RMS step size is converged                                              NO
 OPT|
 OPT| Maximum gradient                                              0.0007307690
 OPT| Convergence limit for maximum gradient                        0.0004500000
 OPT| Maximum gradient is converged                                           NO
 OPT|
 OPT| RMS gradient                                                  0.0002487734
 OPT| Convergence limit for RMS gradient                            0.0003000000
 OPT| RMS gradient is converged                                              YES
 OPT| **************************************************************************
 OPT| Estimated peak process memory after this step [MiB]                    168

 --------------------------
 OPTIMIZATION STEP:      3
 --------------------------

 Extrapolation method: ASPC

 Number of electrons:                                                         66
 Number of occupied orbitals:                                                 33
 Number of molecular orbitals:                                                76

 Number of orbital functions:                                                 76
 Number of independent orbital functions:                                     76


 SCF WAVEFUNCTION OPTIMIZATION

  Step     Update method      Time    Convergence         Total energy    Change
  ------------------------------------------------------------------------------
     1 TBLite/Diag 0.40E+00    0.0     0.00157791       -34.9696109616 -3.50E+01
     2 TBLite/Diag 0.40E+00    0.0     0.00003686       -34.9696109675 -5.94E-09
     3 TBLite/Diag 0.40E+00    0.0     0.00002657       -34.9696109677 -2.25E-10
     4 TBLite/Diag 0.40E+00    0.0     0.00001812       -34.9696109683 -6.07E-10
     5 TBLite/Diag 0.40E+00    0.0     0.00000747       -34.9696109684 -4.48E-11
     6 TBLite/Diag 0.40E+00    0.0     0.00000399       -34.9696109684 -1.69E-11
     7 TBLite/Diag 0.40E+00    0.0     0.00000100       -34.9696109684 -1.52E-12
     8 TBLite/Diag 0.40E+00    0.0     0.00000004       -34.9696109684  1.42E-14
     9 TBLite/Diag 0.40E+00    0.0     6.6768E-09       -34.9696109684  4.97E-14
    10 TBLite/Diag 0.40E+00    0.0     1.5367E-09       -34.9696109684 -4.97E-14
    11 TBLite/Diag 0.40E+00    0.0     4.6473E-10       -34.9696109684 -2.13E-14

  *** SCF run converged in    11 steps ***


  Core Hamiltonian energy:                                    -35.60668261444489
  Repulsive potential energy:                                   0.65032898232921
  Electrostatic energy:                                         0.00154139075197
  Self-consistent dispersion energy:                            0.00000000000000
  Non-self consistent dispersion energy:                       -0.01479872702326
  Correction for halogen bonding:                               0.00000000000000
  Electronic entropic energy:                                  -0.00000000000000
  Fermi energy:                                                -0.34644594963766

  Total energy:                                               -34.96961096838698
  Total energy (extrapolated to T->0):                        -34.96961096838698

 ENERGY| Total FORCE_EVAL ( QS ) energy [hartree]            -34.969610968386981

 OPT| **************************************************************************
 OPT| Step number                                                              3
 OPT| Optimization method                                                   BFGS
 OPT| Total energy [hartree]                                      -34.9696109684
 OPT| Effective energy change [hartree]                            -0.0000359689
 OPT| Predicted energy change [hartree]                            -0.0000261640
 OPT| Scaling factor                                                0.0000000000
 OPT| Step size                                                     0.0099200963
 OPT| Trust radius                                                  0.4724315332
 OPT| Decrease in energy                                                     YES
 OPT| Used time [s]                                                        0.029
 OPT|
 OPT| Maximum step size                                             0.0099200963
 OPT| Convergence limit for maximum step size                       0.0030000000
 OPT| Maximum step size is converged                                          NO
 OPT|
 OPT| RMS step size                                                 0.0035798593
 OPT| Convergence limit for RMS step size                           0.0015000000
 OPT| RMS step size is converged                                              NO
 OPT|
 OPT| Maximum gradient                                              0.0006879077
 OPT| Convergence limit for maximum gradient                        0.0004500000
 OPT| Maximum gradient is converged                                           NO
 OPT|
 OPT| RMS gradient                                                  0.0002703103
 OPT| Convergence limit for RMS gradient                            0.0003000000
 OPT| RMS gradient is converged                                              YES
 OPT| **************************************************************************
 OPT| Estimated peak process memory after this step [MiB]                    169

 --------------------------
 OPTIMIZATION STEP:      4
 --------------------------

 Extrapolation method: ASPC

 Number of electrons:                                                         66
 Number of occupied orbitals:                                                 33
 Number of molecular orbitals:                                                76

 Number of orbital functions:                                                 76
 Number of independent orbital functions:                                     76


 SCF WAVEFUNCTION OPTIMIZATION

  Step     Update method      Time    Convergence         Total energy    Change
  ------------------------------------------------------------------------------
     1 TBLite/Diag 0.40E+00    0.0     0.00167912       -34.9696243905 -3.50E+01
     2 TBLite/Diag 0.40E+00    0.0     0.00008248       -34.9696244035 -1.30E-08
     3 TBLite/Diag 0.40E+00    0.0     0.00002262       -34.9696244044 -9.13E-10
     4 TBLite/Diag 0.40E+00    0.0     0.00000942       -34.9696244044 -5.14E-11
     5 TBLite/Diag 0.40E+00    0.0     0.00000423       -34.9696244045 -4.87E-11
     6 TBLite/Diag 0.40E+00    0.0     0.00000200       -34.9696244045 -9.66E-13
     7 TBLite/Diag 0.40E+00    0.0     0.00000114       -34.9696244045 -1.75E-12
     8 TBLite/Diag 0.40E+00    0.0     0.00000008       -34.9696244045  1.42E-14
     9 TBLite/Diag 0.40E+00    0.0     5.4693E-09       -34.9696244045  7.11E-15
    10 TBLite/Diag 0.40E+00    0.0     1.3152E-09       -34.9696244045  1.42E-14
    11 TBLite/Diag 0.40E+00    0.0     3.8919E-10       -34.9696244045  2.84E-14

  *** SCF run converged in    11 steps ***


  Core Hamiltonian energy:                                    -35.60679556931752
  Repulsive potential energy:                                   0.65043285590318
  Electrostatic energy:                                         0.00154114554104
  Self-consistent dispersion energy:                            0.00000000000000
  Non-self consistent dispersion energy:                       -0.01480283662309
  Correction for halogen bonding:                               0.00000000000000
  Electronic entropic energy:                                  -0.00000000000000
  Fermi energy:                                                -0.34640291596815

  Total energy:                                               -34.96962440449638
  Total energy (extrapolated to T->0):                        -34.96962440449638

 ENERGY| Total FORCE_EVAL ( QS ) energy [hartree]            -34.969624404496379

 OPT| **************************************************************************
 OPT| Step number                                                              4
 OPT| Optimization method                                                   BFGS
 OPT| Total energy [hartree]                                      -34.9696244045
 OPT| Effective energy change [hartree]                            -0.0000134361
 OPT| Predicted energy change [hartree]                            -0.0000114179
 OPT| Scaling factor                                                0.0000000000
 OPT| Step size                                                     0.0088947922
 OPT| Trust radius                                                  0.4724315332
 OPT| Decrease in energy                                                     YES
 OPT| Used time [s]                                                        0.029
 OPT|
 OPT| Maximum step size                                             0.0088947922
 OPT| Convergence limit for maximum step size                       0.0030000000
 OPT| Maximum step size is converged                                          NO
 OPT|
 OPT| RMS step size                                                 0.0027363644
 OPT| Convergence limit for RMS step size                           0.0015000000
 OPT| RMS step size is converged                                              NO
 OPT|
 OPT| Maximum gradient                                              0.0004378595
 OPT| Convergence limit for maximum gradient                        0.0004500000
 OPT| Maximum gradient is converged                                          YES
 OPT|
 OPT| RMS gradient                                                  0.0001613260
 OPT| Convergence limit for RMS gradient                            0.0003000000
 OPT| RMS gradient is converged                                              YES
 OPT| **************************************************************************
 OPT| Estimated peak process memory after this step [MiB]                    169

 --------------------------
 OPTIMIZATION STEP:      5
 --------------------------

 Extrapolation method: ASPC

 Number of electrons:                                                         66
 Number of occupied orbitals:                                                 33
 Number of molecular orbitals:                                                76

 Number of orbital functions:                                                 76
 Number of independent orbital functions:                                     76


 SCF WAVEFUNCTION OPTIMIZATION

  Step     Update method      Time    Convergence         Total energy    Change
  ------------------------------------------------------------------------------
     1 TBLite/Diag 0.40E+00    0.0     0.00045441       -34.9696257635 -3.50E+01
     2 TBLite/Diag 0.40E+00    0.0     0.00005886       -34.9696257675 -3.95E-09
     3 TBLite/Diag 0.40E+00    0.0     0.00001436       -34.9696257678 -3.72E-10
     4 TBLite/Diag 0.40E+00    0.0     0.00000729       -34.9696257678  2.50E-11
     5 TBLite/Diag 0.40E+00    0.0     0.00000525       -34.9696257679 -5.01E-11
     6 TBLite/Diag 0.40E+00    0.0     0.00000134       -34.9696257679 -1.73E-12
     7 TBLite/Diag 0.40E+00    0.0     0.00000054       -34.9696257679 -4.33E-13
     8 TBLite/Diag 0.40E+00    0.0     0.00000003       -34.9696257679  0.00E+00
     9 TBLite/Diag 0.40E+00    0.0     6.6312E-09       -34.9696257679 -1.42E-14
    10 TBLite/Diag 0.40E+00    0.0     1.5530E-09       -34.9696257679 -2.13E-14
    11 TBLite/Diag 0.40E+00    0.0     3.8334E-10       -34.9696257679  0.00E+00

  *** SCF run converged in    11 steps ***


  Core Hamiltonian energy:                                    -35.60665011520058
  Repulsive potential energy:                                   0.65028683313190
  Electrostatic energy:                                         0.00154097599320
  Self-consistent dispersion energy:                            0.00000000000000
  Non-self consistent dispersion energy:                       -0.01480346179498
  Correction for halogen bonding:                               0.00000000000000
  Electronic entropic energy:                                  -0.00000000000000
  Fermi energy:                                                -0.34638449732960

  Total energy:                                               -34.96962576787046
  Total energy (extrapolated to T->0):                        -34.96962576787046

 ENERGY| Total FORCE_EVAL ( QS ) energy [hartree]            -34.969625767870461

 OPT| **************************************************************************
 OPT| Step number                                                              5
 OPT| Optimization method                                                   BFGS
 OPT| Total energy [hartree]                                      -34.9696257679
 OPT| Effective energy change [hartree]                            -0.0000013634
 OPT| Predicted energy change [hartree]                            -0.0000012435
 OPT| Scaling factor                                                0.0000000000
 OPT| Step size                                                     0.0020510758
 OPT| Trust radius                                                  0.4724315332
 OPT| Decrease in energy                                                     YES
 OPT| Used time [s]                                                        0.029
 OPT|
 OPT| Maximum step size                                             0.0020510758
 OPT| Convergence limit for maximum step size                       0.0030000000
 OPT| Maximum step size is converged                                         YES
 OPT|
 OPT| RMS step size                                                 0.0005875735
 OPT| Convergence limit for RMS step size                           0.0015000000
 OPT| RMS step size is converged                                             YES
 OPT|
 OPT| Maximum gradient                                              0.0001549083
 OPT| Convergence limit for maximum gradient                        0.0004500000
 OPT| Maximum gradient is converged                                          YES
 OPT|
 OPT| RMS gradient                                                  0.0000501662
 OPT| Convergence limit for RMS gradient                            0.0003000000
 OPT| RMS gradient is converged                                              YES
 OPT| **************************************************************************
 OPT| Estimated peak process memory after this step [MiB]                    169

 *******************************************************************************
 ***                    GEOMETRY OPTIMIZATION COMPLETED                      ***
 *******************************************************************************

 write_final_structure: Optimization converged, writing XYZ file gladly:
  anthracene_GFN1_mol_geoopt-FINAL-1_5.xyz

 write_final_structure: Optimization converged, writing CIF file gladly:
  anthracene_GFN1_mol_geoopt-FINAL-1_5.cif

 write_final_structure: Done!

                    Reevaluating energy at the minimum

 Extrapolation method: ASPC

 Number of electrons:                                                         66
 Number of occupied orbitals:                                                 33
 Number of molecular orbitals:                                                76

 Number of orbital functions:                                                 76
 Number of independent orbital functions:                                     76


 SCF WAVEFUNCTION OPTIMIZATION

  Step     Update method      Time    Convergence         Total energy    Change
  ------------------------------------------------------------------------------
     1 TBLite/Diag 0.40E+00    0.0     2.0824E-10       -34.9696257679 -3.50E+01

  *** SCF run converged in     1 steps ***


  Core Hamiltonian energy:                                    -35.60665011520097
  Repulsive potential energy:                                   0.65028683313190
  Electrostatic energy:                                         0.00154097599363
  Self-consistent dispersion energy:                            0.00000000000000
  Non-self consistent dispersion energy:                       -0.01480346179498
  Correction for halogen bonding:                               0.00000000000000
  Electronic entropic energy:                                  -0.00000000000000
  Fermi energy:                                                -0.34638449733136

  Total energy:                                               -34.96962576787043
  Total energy (extrapolated to T->0):                        -34.96962576787043

 ENERGY| Total FORCE_EVAL ( QS ) energy [hartree]            -34.969625767870426

 -------------------------------------------------------------------------------
 -                                                                             -
 -                                DBCSR STATISTICS                             -
 -                                                                             -
 -------------------------------------------------------------------------------
 COUNTER                                    TOTAL       BLAS       SMM       ACC
 flops     2 x    12 x     2               192000       0.0%    100.0%      0.0%     
 flops     2 x    12 x     4               537600       0.0%    100.0%      0.0%     
 flops     4 x    12 x     2               537600       0.0%    100.0%      0.0%     
 flops     2 x    32 x     2              1024000       0.0%    100.0%      0.0%     
 flops     4 x    12 x     4              1505280       0.0%    100.0%      0.0%     
 flops     2 x     2 x    76              2775520       0.0%    100.0%      0.0%     
 flops     2 x    32 x     4              2867200       0.0%    100.0%      0.0%     
 flops     4 x    32 x     2              2867200       0.0%    100.0%      0.0%     
 flops     4 x     2 x    76              6964032       0.0%    100.0%      0.0%     
 flops     2 x     4 x    76              7165888       0.0%    100.0%      0.0%     
 flops     4 x    32 x     4              8028160       0.0%    100.0%      0.0%     
 flops     4 x     4 x    76             21194880       0.0%    100.0%      0.0%     
 flops inhomo. stacks                           0       0.0%      0.0%      0.0%
 flops total                        55.659360E+06       0.0%    100.0%      0.0%
 flops max/rank                     55.659360E+06       0.0%    100.0%      0.0%
 matmuls inhomo. stacks                         0       0.0%      0.0%      0.0%
 matmuls total                              59460       0.0%    100.0%      0.0%
 number of processed stacks                   492       0.0%    100.0%      0.0%
 average stack size                                     0.0     120.9       0.0
 marketing flops                    49.199968E+06
 -------------------------------------------------------------------------------
 # multiplications                            103
 max memory usage/rank              13.672972E+09
 # max total images/rank                        1
 # max 3D layers                                1
 # MPI messages exchanged                       0
 -------------------------------------------------------------------------------
 -                                                                             -
 -                      DBCSR MESSAGE PASSING PERFORMANCE                      -
 -                                                                             -
 -------------------------------------------------------------------------------
 ROUTINE             CALLS      AVE VOLUME [Bytes]
 MP_Bcast               13                     12.
 MP_Allreduce          518                      9.
 MP_Alltoall          3452                  31024.
 MP_ISend              412                   2419.
 MP_IRecv              412                   2419.
 -------------------------------------------------------------------------------

 -------------------------------------------------------------------------------
 -                                                                             -
 -                          OFFLOAD MEMPOOL STATISTICS                         -
 -                                                                             -
 -------------------------------------------------------------------------------
 Memory consumption                Number of allocations  Used [MiB]  Size [MiB]
 Device                                                1           0           0
 Host                                                  1           0           0
 -------------------------------------------------------------------------------

 MEMORY| Estimated peak process memory [MiB]                                 169

 -------------------------------------------------------------------------------
 -                                                                             -
 -                         MESSAGE PASSING PERFORMANCE                         -
 -                                                                             -
 -------------------------------------------------------------------------------

 ROUTINE             CALLS      AVE VOLUME [Bytes]
 MP_Group                1
 MP_Bcast              159                    318.
 MP_Allreduce         1080                    192.
 MP_Sync                84
 MP_comm_split          83
 -------------------------------------------------------------------------------


 -------------------------------------------------------------------------------
 -                                                                             -
 -                           R E F E R E N C E S                               -
 -                                                                             -
 -------------------------------------------------------------------------------
 
 CP2K version 2026.1 (Development Version), the CP2K developers group (2026).
 CP2K is freely available from https://www.cp2k.org/ .
 
 M. Iannuzzi, J. Wilhelm, F. Stein, A. Bussy, H. Elgabarty, D. Golze, A. Hehn, 
 M. Graml, S. Marek, B. Sertcan Gökmen, C. Schran, H. Forbert, R. Z. 
 Khaliullin, A. Kozhevnikov, M. Taillefumier, R. Meli, V. V. Rybkin, M. Brehm, 
 R. Schade, O. Schütt, J. V. Pototschnig, H. Mirhosseini, A. Knüpfer, D. Marx, 
 M. Krack, J. Hutter, T. D. Kühne.
 J. Phys. Chem. B 130, 1237-1310 (2026).
 The CP2K Program Package Made Simple.
 https://doi.org/10.1021/acs.jpcb.5c05851

 A. Katbashev, M. Stahn, T. Rose, V. Alizadeh, M. Friede, C. Plett, P. 
 Steinbach, S. Ehlert.
 J. Phys. Chem. A 129, 2667-2682 (2025).
 Overview on Building Blocks and Applications of Efficient and Robust Extended 
 Tight Binding.
 https://doi.org/10.1021/acs.jpca.4c08263

 T. D. Kühne, M. Iannuzzi, M. Del Ben, V. V. Rybkin, P. Seewald, F. Stein, T. 
 Laino, R. Z. Khaliullin, O. Schütt, F. Schiffmann, D. Golze, J. Wilhelm, S. 
 Chulkov, M. H. Bani-Hashemian, V. Weber, U. Borstnik, M. Taillefumier, A. S. 
 Jakobovits, A. Lazzaro, H. Pabst, T. Müller, R. Schade, M. Guidon, S. 
 Andermatt, N. Holmberg, G. K. Schenter, A. Hehn, A. Bussy, F. Belleflamme, G. 
 Tabacchi, A. Glöß, M. Lass, I. Bethune, C. J. Mundy, C. Plessl, M. Watkins, 
 J. VandeVondele, M. Krack, J. Hutter.
 J. Chem. Phys. 152, 194103 (2020).
 CP2K: An electronic structure and molecular dynamics software package - 
 Quickstep: Efficient and accurate electronic structure calculations.
 https://doi.org/10.1063/5.0007045

 P. Pracht, E. Caldeweyher, S. Ehlert, S. Grimme.
 ChemRxiv, (2019).
 A Robust Non-Self-Consistent Tight-Binding Quantum Chemistry Method for large 
 Molecules.
 https://doi.org/10.26434/chemrxiv.8326202.v1

 S. Grimme, C. Bannwarth, P. Shushkov.
 J. Chem. Theory Comput. 13, 1989 (2017).
 A Robust and Accurate Tight-Binding Quantum Chemical Method for Structures, 
 Vibrational Frequencies, and Noncovalent Interactions of Large Molecular 
 Systems Parametrized for All spd-Block Elements (Z = 1-86).
 https://doi.org/10.1021/acs.jctc.7b00118

 O. Schuett, P. Messmer, J. Hutter, J. VandeVondele.
 Electronic Structure Calculations on Graphics Processing Units, 173-190 (2016).
 GPU-Accelerated Sparse Matrix-Matrix Multiplication for Linear Scaling Density 
 Functional Theory.
 https://doi.org/10.1002/9781118670712.ch8

 A. Heinecke, G. Henry, M. Hutchinson, H. Pabst.
 Proceedings of Intl. Supercomputing Conference, 981-991 (2016).
 LIBXSMM: Accelerating Small Matrix Multiplications by Runtime Code Generation.
 https://doi.org/10.1109/SC.2016.83

 U. Borstnik, J. VandeVondele, V. Weber, J. Hutter.
 Parallel Comput. 40, 47-58 (2014).
 Sparse matrix multiplication: The distributed block-compressed sparse row 
 library.
 https://doi.org/10.1016/j.parco.2014.03.012

 T. D. Kühne, M. Krack, F. R. Mohamed, M. Parrinello.
 Phys. Rev. Lett. 98, 066401 (2007).
 Efficient and accurate Car-Parrinello-like approach to Born-Oppenheimer 
 molecular dynamics.
 https://doi.org/10.1103/PhysRevLett.98.066401

 M. Frigo, S. G. Johnson.
 Proc. IEEE 93, 216-231 (2005).
 The design and implementation of FFTW3.
 https://doi.org/10.1109/JPROC.2004.840301

 J. Kolafa.
 J. Comput. Chem. 25, 335-342 (2004).
 Time-reversible always stable predictor-corrector method for molecular dynamics 
 of polarizable molecules.
 https://doi.org/10.1002/jcc.10385

 N. D. Mermin.
 Phys. Rev. 137, A1441-A1443 (1965).
 Thermal Properties of the Inhomogeneous Electron Gas.
 https://doi.org/10.1103/PhysRev.137.A1441


 -------------------------------------------------------------------------------
 -                                                                             -
 -                                T I M I N G                                  -
 -                                                                             -
 -------------------------------------------------------------------------------
 SUBROUTINE                       CALLS  ASD         SELF TIME        TOTAL TIME
                                MAXIMUM       AVERAGE  MAXIMUM  AVERAGE  MAXIMUM
 CP2K                                 1  1.0    0.002    0.002    0.191    0.191
 cp_geo_opt                           1  2.0    0.000    0.000    0.185    0.185
 geoopt_bfgs                          1  3.0    0.001    0.001    0.185    0.185
 cp_eval_at                           7  4.0    0.000    0.000    0.179    0.179
 qs_forces                            6  5.0    0.000    0.000    0.172    0.172
 qs_energies                          7  5.9    0.000    0.000    0.139    0.139
 scf_env_do_scf                       7  6.9    0.000    0.000    0.106    0.106
 scf_env_do_scf_inner_loop           71  8.0    0.003    0.003    0.106    0.106
 qs_scf_new_mos                      71  9.0    0.000    0.000    0.090    0.090
 cp_dbcsr_plus_fm_fm_t               83 10.8    0.000    0.000    0.036    0.036
 calculate_dm_sparse                 77 10.0    0.000    0.000    0.034    0.034
 rebuild_ks_matrix                   77  9.8    0.000    0.000    0.033    0.033
 build_tblite_ks_matrix              77 10.8    0.032    0.032    0.033    0.033
 eigensolver                         71 10.0    0.001    0.001    0.031    0.031
 dbcsr_multiply_generic             103 11.9    0.001    0.001    0.030    0.030
 cp_fm_syevd                         83 10.6    0.000    0.000    0.029    0.029
 qs_ks_update_qs_env_forces           6  6.0    0.000    0.000    0.026    0.026
 cp_fm_syevd_base                    83 11.6    0.026    0.026    0.026    0.026
 build_tblite_matrices               13  7.0    0.024    0.024    0.025    0.025
 dbcsr_complete_redistribute        348 12.2    0.017    0.017    0.024    0.024
 copy_dbcsr_to_fm                   162 10.5    0.000    0.000    0.024    0.024
 init_scf_run                         7  6.9    0.000    0.000    0.017    0.017
 scf_env_initial_rho_setup            7  7.9    0.000    0.000    0.015    0.015
 wfi_extrapolate                      7  8.9    0.000    0.000    0.015    0.015
 qs_diis_b_step                      64 10.0    0.000    0.000    0.015    0.015
 make_m2s                           206 12.9    0.001    0.001    0.015    0.015
 qs_energies_init_hamiltonians        7  6.9    0.000    0.000    0.012    0.012
 copy_fm_to_dbcsr                   186 11.8    0.000    0.000    0.012    0.012
 cp_dbcsr_sm_fm_multiply             20 10.3    0.000    0.000    0.008    0.008
 multiply_cannon                    103 12.9    0.002    0.002    0.008    0.008
 qs_ks_update_qs_env                 71  9.0    0.000    0.000    0.008    0.008
 make_images                        206 13.9    0.002    0.002    0.006    0.006
 dbcsr_desymmetrize_deep            162 11.5    0.004    0.004    0.006    0.006
 dbcsr_finalize                    1285 13.3    0.001    0.001    0.006    0.006
 reorthogonalize_vectors              6  9.8    0.000    0.000    0.006    0.006
 make_basis_lowdin                    6 10.8    0.000    0.000    0.006    0.006
 cp_dbcsr_sm_fm_multiply_core        20 11.3    0.000    0.000    0.005    0.005
 cp_fm_cholesky_restore             213 11.0    0.005    0.005    0.005    0.005
 multiply_cannon_loop               103 13.9    0.000    0.000    0.004    0.004
 multiply_cannon_multrec            103 14.9    0.004    0.004    0.004    0.004
 parallel_gemm_fm_gemm              174 10.6    0.000    0.000    0.004    0.004
 dbcsr_crop_matrix                  166 13.8    0.001    0.001    0.004    0.004
 cp_fm_gemm                         174 11.6    0.004    0.004    0.004    0.004
 -------------------------------------------------------------------------------

 The number of warnings for this run is : 0
 
 -------------------------------------------------------------------------------
  **** **** ******  **  PROGRAM ENDED AT                 2026-05-23 22:46:19.664
 ***** ** ***  *** **   PROGRAM RAN ON                                spark-c86c
 **    ****   ******    PROGRAM RAN BY                                  kuehne88
 ***** **    ** ** **   PROGRAM PROCESS ID                               2222428
  **** **  *******  **  PROGRAM STOPPED IN /home/kuehne88/periodic-gfn2-benchmar
                                           ks/X23b/runs/molecule_geoopt/GFN1/ant
                                           hracene_GFN1_mol_geoopt
