 GXTB-QUALIFICATION_ONLY ACP-PROJECTOR-CACHE repeatedHit=1 directBypass=1
 GXTB-QUALIFICATION_ONLY ACP-PROJECTOR-CACHE repeatedHit=1 directBypass=1
 GXTB-QUALIFICATION_ONLY ACP-PROJECTOR-CACHE repeatedHit=1 directBypass=1
                        1000 (D)
 DBCSR| Maximum elements for images                                    UNLIMITED (U)
 DBCSR| Multiplicative factor virtual images                                   1 (U)
 DBCSR| Use multiplication densification                                       T (D)
 DBCSR| Multiplication size stacks                                             3 (U)
 DBCSR| Use memory pool for CPU allocation                                     F (U)
 DBCSR| Number of 3D layers                                               SINGLE (U)
 DBCSR| Use MPI memory allocation                                              F (U)
 DBCSR| Use RMA algorithm                                                      F (U)
 DBCSR| Use Communication thread                                               T (U)
 DBCSR| Communication thread load                                             87 (D)
 DBCSR| MPI: My process id                                                     0
 DBCSR| MPI: Number of processes                                               2
 DBCSR| OMP: Current number of threads                                         1
 DBCSR| OMP: Max number of threads                                             1
 DBCSR| Split modifier for TAS multiplication algorithm                  1.0E+00 (U)


  **** **** ******  **  PROGRAM STARTED AT               2026-07-22 15:43:22.904
 ***** ** ***  *** **   PROGRAM STARTED ON                                 terok
 **    ****   ******    PROGRAM STARTED BY                              kuehne88
 ***** **    ** ** **   PROGRAM PROCESS ID                               3897616
  **** **  *******  **  PROGRAM STARTED IN /home/kuehne88/work/gxtb-compact-part
                                           ial-combination-20260722/results/matr
                                           ix-ch4_spglib_shifted_4x4x4

 CP2K| version string:                 CP2K version 2026.2 (Development Version)
 CP2K| source code revision number:                                      unknown
 CP2K| cp2kflags: omp parallel scalapack spglib s_dftd3 mctc-lib tblite tblite_g
 CP2K|            xtb
 CP2K| is freely available from                            https://www.cp2k.org/
 CP2K| Program compiled at                                   2026-07-22 14:44:08
 CP2K| Program compiled on                                                 terok
 CP2K| Program compiled for                                               x86_64
 CP2K| Data directory path    /home/kuehne88/work/gxtb-compact-partial-combinati
 CP2K| Input file name                                                 input.inp

 GLOBAL| Force Environment number                                              1
 GLOBAL| Basis set file name                                           BASIS_SET
 GLOBAL| Potential file name                                           POTENTIAL
 GLOBAL| MM Potential file name                                     MM_POTENTIAL
 GLOBAL| Coordinate file name                                      __STD_INPUT__
 GLOBAL| Method name                                                        CP2K
 GLOBAL| Project name                    CH4_gxtb_range_local_fft_shifted_spglib
 GLOBAL| Run type                                                   ENERGY_FORCE
 GLOBAL| FFT library                                                       FFTW3
 GLOBAL| Diagonalization library                                       ScaLAPACK
 GLOBAL| Cholesky decomposition library                                ScaLAPACK
 GLOBAL| DGEMM library                                                      BLAS
 GLOBAL| Direct generalized diagonalization requested                          F
 GLOBAL| Orthonormality check for eigenvectors                          DISABLED
 GLOBAL| Matrix multiplication library                                 ScaLAPACK
 GLOBAL| All-to-all communication in single precision                          F
 GLOBAL| FFTs using library dependent lengths                                  F
 GLOBAL| Grid backend                                                       AUTO
 GLOBAL| Global print level                                               MEDIUM
 GLOBAL| MPI I/O enabled                                                       T
 GLOBAL| Total number of message passing processes                             2
 GLOBAL| Number of distributed systems (nodes)                                 1
 GLOBAL| Number of threads for this process                                    1
 GLOBAL| This output is from process                                           0
 GLOBAL| OpenMP stack size per thread (OMP_STACKSIZE)                    default
 GLOBAL| CPU model name                                       AMD EPYC Processor
 GLOBAL| CPUID                                                              1002

 MEMORY| system memory details [Kb]
 MEMORY|                        rank 0           min           max       average
 MEMORY| MemTotal            528104804     528104804     528104804     528104804
 MEMORY| MemFree             469670300     469670300     469670300     469670300
 MEMORY| Buffers                    20            20            20            20
 MEMORY| Cached               51675240      51675240      51675240      51675240
 MEMORY| Slab                  3403628       3403628       3403628       3403628
 MEMORY| SReclaimable          1798256       1798256       1798256       1798256
 MEMORY| MemLikelyFree       523143816     523143816     523143816     523143816


 *** WARNING in environment.F:1098 :: FFT library FFTW3 is not available. ***
 *** Trying FFT library FFTSG.                                            ***


 *** Fundamental physical constants (SI units) ***

 *** Literature: B. J. Mohr and B. N. Taylor,
 ***             CODATA recommended values of the fundamental physical
 ***             constants: 2006, Web Version 5.1
 ***             http://physics.nist.gov/constants

 Speed of light in vacuum [m/s]                             2.99792458000000E+08
 Magnetic constant or permeability of vacuum [N/A**2]       1.25663706143592E-06
 Electric constant or permittivity of vacuum [F/m]          8.85418781762039E-12
 Planck constant (h) [J*s]                                  6.62606896000000E-34
 Planck constant (h-bar) [J*s]                              1.05457162825177E-34
 Elementary charge [C]                                      1.60217648700000E-19
 Electron mass [kg]                                         9.10938215000000E-31
 Electron g factor [ ]                                     -2.00231930436220E+00
 Proton mass [kg]                                           1.67262163700000E-27
 Fine-structure constant                                    7.29735253760000E-03
 Rydberg constant [1/m]                                     1.09737315685270E+07
 Avogadro constant [1/mol]                                  6.02214179000000E+23
 Boltzmann constant [J/K]                                   1.38065040000000E-23
 Atomic mass unit [kg]                                      1.66053878200000E-27
 Bohr radius [m]                                            5.29177208590000E-11

 *** Conversion factors ***

 [u] -> [a.u.]                                              1.82288848426455E+03
 [Angstrom] -> [Bohr] = [a.u.]                              1.88972613288564E+00
 [a.u.] = [Bohr] -> [Angstrom]                              5.29177208590000E-01
 [a.u.] -> [s]                                              2.41888432650478E-17
 [a.u.] -> [fs]                                             2.41888432650478E-02
 [a.u.] -> [J]                                              4.35974393937059E-18
 [a.u.] -> [N]                                              8.23872205491840E-08
 [a.u.] -> [K]                                              3.15774647902944E+05
 [a.u.] -> [kJ/mol]                                         2.62549961709828E+03
 [a.u.] -> [kcal/mol]                                       6.27509468713739E+02
 [a.u.] -> [Pa]                                             2.94210107994716E+13
 [a.u.] -> [bar]                                            2.94210107994716E+08
 [a.u.] -> [atm]                                            2.90362800883016E+08
 [a.u.] -> [eV]                                             2.72113838565563E+01
 [a.u.] -> [Hz]                                             6.57968392072181E+15
 [a.u.] -> [1/cm] (wave numbers)                            2.19474631370540E+05
 [a.u./Bohr**2] -> [1/cm]                                   5.14048714338585E+03
 

 CELL| Volume [angstrom^3]:                                           512.000000
 CELL| Vector a [angstrom]:       8.000     0.000     0.000   |a| =     8.000000
 CELL| Vector b [angstrom]:       0.000     8.000     0.000   |b| =     8.000000
 CELL| Vector c [angstrom]:       0.000     0.000     8.000   |c| =     8.000000
 CELL| Angle (b,c), alpha [degree]:                                    90.000000
 CELL| Angle (a,c), beta  [degree]:                                    90.000000
 CELL| Angle (a,b), gamma [degree]:                                    90.000000
 CELL| Requested initial symmetry:                                         CUBIC
 CELL| Numerically orthorhombic:                                             YES
 CELL| Periodicity                                                           XYZ

 CELL_REF| Volume [angstrom^3]:                                       512.000000
 CELL_REF| Vector a [angstrom     8.000     0.000     0.000   |a| =     8.000000
 CELL_REF| Vector b [angstrom     0.000     8.000     0.000   |b| =     8.000000
 CELL_REF| Vector c [angstrom     0.000     0.000     8.000   |c| =     8.000000
 CELL_REF| Angle (b,c), alpha [degree]:                                90.000000
 CELL_REF| Angle (a,c), beta  [degree]:                                90.000000
 CELL_REF| Angle (a,b), gamma [degree]:                                90.000000
 CELL_REF| Requested initial symmetry:                                     CUBIC
 CELL_REF| Numerically orthorhombic:                                         YES
 CELL_REF| Periodicity                                                       XYZ

 GENERATE|  Preliminary Number of Bonds generated:                             0
 GENERATE|  Achieved consistency in connectivity generation.


                  #####   #####        #     #   #     #       #          
                 #     # #     #      #    ##### #     #   # #####  ####  
                 #     # #           #       #   ###   #       #   #    # 
                 #     #  #####     #        #   #  #  #   #   #   ###### 
                 #   # #       #   #         #   #   # #   #   #   #      
                 #    #  #     #  #          #   #  #  # # #   #    #   # 
                  #### #  #####  #           #   ###   ##  #   #     ###  

                                     g-xTB   
                                 Version 0.0                       
                            Johann V. Pototschnig                  

                tblite provider: SAVE
                tblite source revision: unknown
                g-xTB support: enabled

 xTB| Parameter file                                             xTB1_parameters
 xTB| Basis expansion STO-NG                                                   6
 xTB| Basis expansion STO-NG for Hydrogen                                      4
 xTB| Repulsive pair potential accuracy                               0.1000E-09
 xTB| Repulsive enhancement factor                                      0.000000
 xTB| Halogen interaction potential                                            T
 xTB| Halogen interaction potential cutoff radius                         20.000
 xTB| Nonbonded interactions                                                   F
 xTB| vdW potential type:                                              DFTD3(BJ)
 xTB| D3 Dispersion: Parameter                                         dftd3.dat
 xTB| Huckel constants ks kp kd                        1.850     2.250     2.000
 xTB| Huckel constants ksp k2sh                                  2.080     2.850
 xTB| Mataga-Nishimoto exponent                                            2.000
 xTB| Repulsion potential exponent                                         1.500
 xTB| Coordination number scaling kcn(s) kcn(p) kc     0.006    -0.003    -0.005
 xTB| Electronegativity scaling                                           -0.007
 xTB| Halogen potential scaling kxr kx2                          1.300     0.440
 xTB| SCC mixer:                                                       AUTO
 xTB| tblite accuracy:                                                 1.000E+00
 xTB| tblite SCC mixer damping:                                            0.400
 xTB| tblite SCC mixer iterations:                                           250
 xTB| tblite SCC mixer memory:                                               250
 xTB| tblite SCC mixer solver:                                         GVD
 xTB| tblite SCC mixer omega0:                                         1.000E-02
 xTB| tblite SCC mixer min weight:                                     1.000E+00
 xTB| tblite SCC mixer max weight:                                     1.000E+05
 xTB| tblite SCC mixer weight factor:                                  1.000E-02




 ATOMIC KIND INFORMATION

  1. Atomic kind: C                                     Number of atoms:       1

     Orbital Basis Set                                                 C _STO-6G

       Number of orbital shell sets:                                           2
       Number of orbital shells:                                               2
       Number of primitive Cartesian functions:                               12
       Number of Cartesian basis functions:                                    4
       Number of spherical basis functions:                                    4
       Norm type:                                                              3

       Normalised Cartesian orbitals:

                        Set   Shell   Orbital            Exponent    Coefficient

                          1       1    1s                2.208628      -1.157490
                                                         1.917959       0.886555
                                                         0.497153       0.232010
                                                         0.192182       0.116485
                                                         0.150531      -0.033296
                                                         0.078189       0.019361

                          2       1    2px              24.597336       0.464082
                                                         6.488161       0.691437
                                                         2.226359       0.612655
                                                         0.776897       0.415112
                                                         0.283425       0.113030
                                                         0.098628       0.020433
                          2       1    2py              24.597336       0.464082
                                                         6.488161       0.691437
                                                         2.226359       0.612655
                                                         0.776897       0.415112
                                                         0.283425       0.113030
                                                         0.098628       0.020433
                          2       1    2pz              24.597336       0.464082
                                                         6.488161       0.691437
                                                         2.226359       0.612655
                                                         0.776897       0.415112
                                                         0.283425       0.113030
                                                         0.098628       0.020433

     AE Potential information for                                         Carbon

       Description:                                       Bare Coulomb Potential
                                                             Valence charge only

       Gaussian exponent of the core charge distribution:               3.373250
       Electronic configuration (s p d ...):                       2   2   0   0

  2. Atomic kind: H                                     Number of atoms:       4

     Orbital Basis Set                                                 H _STO-8G

       Number of orbital shell sets:                                           1
       Number of orbital shells:                                               1
       Number of primitive Cartesian functions:                                8
       Number of Cartesian basis functions:                                    1
       Number of spherical basis functions:                                    1
       Norm type:                                                              3

       Normalised Cartesian orbitals:

                        Set   Shell   Orbital            Exponent    Coefficient

                          1       1    1s              337.005012       0.032613
                                                        53.310531       0.058991
                                                        12.208253       0.102844
                                                         3.418827       0.159923
                                                         1.108790       0.193518
                                                         0.478718       0.121328
                                                         0.212137       0.085046
                                                         0.069058       0.011171

     AE Potential information for                                       Hydrogen

       Description:                                       Bare Coulomb Potential
                                                              Full atomic charge

       Gaussian exponent of the core charge distribution:              12.500000
       Electronic configuration (s p d ...):                       1   0   0   0


 MOLECULE KIND INFORMATION


 All atoms are their own molecule, skipping detailed information


 TOTAL NUMBERS AND MAXIMUM NUMBERS

  Total number of            - Atomic kinds:                                   2
                             - Atoms:                                          5
                             - Shell sets:                                     6
                             - Shells:                                         6
                             - Primitive Cartesian functions:                 44
                             - Cartesian basis functions:                      8
                             - Spherical basis functions:                      8

  Maximum angular momentum of the orbital basis functions:                     1


 MODULE QUICKSTEP: ATOMIC COORDINATES IN ANGSTROM

   Atom Kind Element         X             Y             Z       Z(eff)     Mass
      1    1 C     6      4.000000      4.000000      4.000000   4.0000  12.0107
      2    2 H     1      4.692820      4.692820      4.692820   1.0000   1.0079
      3    2 H     1      4.692820      3.307180      3.307180   1.0000   1.0079
      4    2 H     1      3.307180      4.692820      3.307180   1.0000   1.0079
      5    2 H     1      3.307180      3.307180      4.692820   1.0000   1.0079



 SCF PARAMETERS         Density guess:                                     MOPAC
                        --------------------------------------------------------
                        max_scf:                                             300
                        max_scf_history:                                       0
                        max_diis:                                              4
                        --------------------------------------------------------
                        eps_scf:                                        1.00E-10
                        eps_scf_history:                                0.00E+00
                        eps_diis:                                       1.00E-01
                        eps_eigval:                                     1.00E-05
                        --------------------------------------------------------
                        level_shift [a.u.]:                             0.000000
                        added MOs                                         4    0
                        --------------------------------------------------------
                        Mixing method:                           DIRECT_P_MIXING
                        --------------------------------------------------------
                        No outer SCF

 PW_GRID| Information for grid number                                          1
 PW_GRID| Grid distributed over                                     2 processors
 PW_GRID| Real space group dimensions                                     2    1
 PW_GRID| the grid is blocked:                                                NO
 PW_GRID| Cutoff [a.u.]                                                      1.0
 PW_GRID| spherical cutoff:                                                   NO
 PW_GRID|   Bounds   1             -4       3                Points:           8
 PW_GRID|   Bounds   2             -4       3                Points:           8
 PW_GRID|   Bounds   3             -4       3                Points:           8
 PW_GRID| Volume element (a.u.^3)   6.748         Volume (a.u.^3)      3455.1473
 PW_GRID| Grid span                                                    FULLSPACE
 PW_GRID|   Distribution                         Average         Max         Min
 PW_GRID|   G-Vectors                              256.0         256         256
 PW_GRID|   G-Rays                                  32.0          32          32
 PW_GRID|   Real Space Points                      256.0         256         256

 POISSON| Solver                                                        PERIODIC
 POISSON| Periodicity                                                        XYZ

 RS_GRID| Information for grid number                                          1
 RS_GRID|   Bounds   1             -4       3                Points:           8
 RS_GRID|   Bounds   2             -4       3                Points:           8
 RS_GRID|   Bounds   3             -4       3                Points:           8
 RS_GRID| Real space fully replicated
 RS_GRID| Group size                                                           1

 *******************************************************************************
                                    Kpoints
 *******************************************************************************
 BRILLOUIN| K-point scheme                                        Monkhorst-Pack
 BRILLOUIN| K-Point grid                                             4    4    4
 BRILLOUIN| K-point symmetry accuracy                               0.100000E-07
 BRILLOUIN| K-Point point group symmetrization                                ON
 BRILLOUIN| Symmetry backend                                             SPGLIB
 BRILLOUIN| Symmetry reduction method                                    SPGLIB
 BRILLOUIN| Wavefunction type                                            COMPLEX
 BRILLOUIN| List of Kpoints [2 Pi/Bohr]                                        4
 BRILLOUIN| Number           Weight            X              Y              Z
 BRILLOUIN|     1           0.12500       -0.37500       -0.37500       -0.37500
 BRILLOUIN|     2           0.37500       -0.37500       -0.37500       -0.12500
 BRILLOUIN|     3           0.37500       -0.37500       -0.12500       -0.12500
 BRILLOUIN|     4           0.12500       -0.12500       -0.12500       -0.12500
 *******************************************************************************
 GXTB-QUALIFICATION_ONLY ACP-PROJECTOR-CACHE repeatedHit=1 directBypass=1

 Extrapolation method: initial_guess

 Number of electrons:                                                          8
 Number of occupied orbitals:                                                  4
 Number of molecular orbitals:                                                 8

 Number of orbital functions:                                                  8
 Number of independent orbital functions:                                      8


 SCF WAVEFUNCTION OPTIMIZATION

  Step     Update method      Time    Convergence         Total energy    Change
  ------------------------------------------------------------------------------
 GXTB-QUALIFICATION_ONLY KGROUP-PARTIAL-ROOT iter=1 dE=  0.000000E+00 dVsh=  0.000000E+00 dFfold=  0.000000E+00
 GXTB-KGROUP-PARTIAL-DISTRIBUTED-IMAGES importers=2, empty=0, nred=4, nfull=64, batch=2; distributed nonlinear image kernel and all-k partial pulls
 GXTB-EXCHANGE-TRANSFORM stage=FORWARD backend=MIXED_RADIX_FFT fallback=0 iter=1
 GXTB-QUALIFICATION_ONLY MIXER-STAR iter=1 denseCov=  1.694066E-21 streamCov=  1.694066E-21 streamRoundtrip=  5.551115E-16 covDelta=  0.000000E+00 denseFullComplex=4096 streamedPeakComplex=192
 GXTB-QUALIFICATION_ONLY KGROUP-PARTIAL-ROOT iter=1 dE=  1.110223E-16 dVsh=  0.000000E+00 dFfold=  3.219647E-15
 GXTB-KGROUP-PARTIAL-DISTRIBUTED-IMAGES importers=2, empty=0, nred=4, nfull=64, batch=2; distributed nonlinear image kernel and all-k partial pulls
 GXTB-EXCHANGE-TRANSFORM stage=FORWARD backend=MIXED_RADIX_FFT fallback=0 iter=1
     1 GXTB-Raw    0.10E+01   80.7     0.54061426       -40.4418817429 -4.04E+01
 GXTB-QUALIFICATION_ONLY KGROUP-PARTIAL-ROOT iter=2 dE=  1.110223E-16 dVsh=  0.000000E+00 dFfold=  3.219647E-15
 GXTB-QUALIFICATION_ONLY MIXER-STAR iter=2 denseCov=  5.551115E-17 streamCov=  5.551115E-17 streamRoundtrip=  3.885781E-16 covDelta=  0.000000E+00 denseFullComplex=4096 streamedPeakComplex=192
 GXTB-QUALIFICATION_ONLY KGROUP-PARTIAL-ROOT iter=2 dE=  1.332268E-15 dVsh=  3.469447E-18 dFfold=  1.415534E-15
     2 GXTB-Simple 0.20E+00   78.0     0.04966262       -40.4549919762 -1.31E-02
 GXTB-QUALIFICATION_ONLY KGROUP-PARTIAL-ROOT iter=3 dE=  1.332268E-15 dVsh=  3.469447E-18 dFfold=  1.415534E-15
 GXTB-QUALIFICATION_ONLY MIXER-STAR iter=3 denseCov=  5.551115E-17 streamCov=  5.551115E-17 streamRoundtrip=  3.885781E-16 covDelta=  0.000000E+00 denseFullComplex=4096 streamedPeakComplex=192
 GXTB-QUALIFICATION_ONLY KGROUP-PARTIAL-ROOT iter=3 dE=  4.440892E-16 dVsh=  3.469447E-18 dFfold=  1.665335E-15
     3 GXTB-Simple 0.20E+00   73.8     0.03454267       -40.4615613160 -6.57E-03
 GXTB-QUALIFICATION_ONLY KGROUP-PARTIAL-ROOT iter=4 dE=  4.440892E-16 dVsh=  3.469447E-18 dFfold=  1.665335E-15
 GXTB-QUALIFICATION_ONLY MIXER-STAR iter=4 denseCov=  5.551115E-17 streamCov=  5.551115E-17 streamRoundtrip=  7.771561E-16 covDelta=  0.000000E+00 denseFullComplex=4096 streamedPeakComplex=192
 GXTB-QUALIFICATION_ONLY KGROUP-PARTIAL-ROOT iter=4 dE=  7.771561E-16 dVsh=  0.000000E+00 dFfold=  2.053913E-15
     4 GXTB-FDIIS  0.10E+01   75.2     0.05594879       -40.4671998282 -5.64E-03
 GXTB-QUALIFICATION_ONLY KGROUP-PARTIAL-ROOT iter=5 dE=  7.771561E-16 dVsh=  0.000000E+00 dFfold=  2.053913E-15
 GXTB-QUALIFICATION_ONLY MIXER-STAR iter=5 denseCov=  1.110223E-16 streamCov=  1.110223E-16 streamRoundtrip=  4.440892E-16 covDelta=  0.000000E+00 denseFullComplex=4096 streamedPeakComplex=192
 GXTB-QUALIFICATION_ONLY KGROUP-PARTIAL-ROOT iter=5 dE=  1.332268E-15 dVsh=  8.673617E-18 dFfold=  1.665335E-15
     5 GXTB-FDIIS  0.10E+01   74.1     0.03572326       -40.4685511668 -1.35E-03
 GXTB-QUALIFICATION_ONLY KGROUP-PARTIAL-ROOT iter=6 dE=  1.332268E-15 dVsh=  8.673617E-18 dFfold=  1.665335E-15
 GXTB-QUALIFICATION_ONLY MIXER-STAR iter=6 denseCov=  5.551115E-17 streamCov=  5.551115E-17 streamRoundtrip=  7.771561E-16 covDelta=  0.000000E+00 denseFullComplex=4096 streamedPeakComplex=192
 GXTB-QUALIFICATION_ONLY KGROUP-PARTIAL-ROOT iter=6 dE=  0.000000E+00 dVsh=  1.734723E-18 dFfold=  1.526557E-15
     6 GXTB-FDIIS  0.10E+01   73.0     0.00209238       -40.4685507106  4.56E-07
 GXTB-QUALIFICATION_ONLY KGROUP-PARTIAL-ROOT iter=7 dE=  0.000000E+00 dVsh=  1.734723E-18 dFfold=  1.526557E-15
 GXTB-QUALIFICATION_ONLY MIXER-STAR iter=7 denseCov=  5.551115E-17 streamCov=  5.551115E-17 streamRoundtrip=  6.661338E-16 covDelta=  0.000000E+00 denseFullComplex=4096 streamedPeakComplex=192
 GXTB-QUALIFICATION_ONLY KGROUP-PARTIAL-ROOT iter=7 dE=  0.000000E+00 dVsh=  3.469447E-18 dFfold=  9.159340E-16
     7 GXTB-FDIIS  0.10E+01   72.5     0.00109167       -40.4685519803 -1.27E-06
 GXTB-QUALIFICATION_ONLY KGROUP-PARTIAL-ROOT iter=8 dE=  0.000000E+00 dVsh=  3.469447E-18 dFfold=  9.159340E-16
 GXTB-QUALIFICATION_ONLY MIXER-STAR iter=8 denseCov=  5.551115E-17 streamCov=  5.551115E-17 streamRoundtrip=  5.551115E-16 covDelta=  0.000000E+00 denseFullComplex=4096 streamedPeakComplex=192
 GXTB-QUALIFICATION_ONLY KGROUP-PARTIAL-ROOT iter=8 dE=  6.661338E-16 dVsh=  5.204170E-18 dFfold=  1.498801E-15
     8 GXTB-FDIIS  0.10E+01   72.7     0.00003810       -40.4685519825 -2.16E-09
 GXTB-QUALIFICATION_ONLY KGROUP-PARTIAL-ROOT iter=9 dE=  6.661338E-16 dVsh=  5.204170E-18 dFfold=  1.498801E-15
 GXTB-QUALIFICATION_ONLY MIXER-STAR iter=9 denseCov=  5.551115E-17 streamCov=  5.551115E-17 streamRoundtrip=  5.551115E-16 covDelta=  0.000000E+00 denseFullComplex=4096 streamedPeakComplex=192
 GXTB-QUALIFICATION_ONLY KGROUP-PARTIAL-ROOT iter=9 dE=  1.110223E-15 dVsh=  3.469447E-18 dFfold=  1.332268E-15
     9 GXTB-FDIIS  0.10E+01   72.2     0.00000851       -40.4685519826 -7.60E-11
 GXTB-QUALIFICATION_ONLY KGROUP-PARTIAL-ROOT iter=10 dE=  1.110223E-15 dVsh=  3.469447E-18 dFfold=  1.332268E-15
 GXTB-QUALIFICATION_ONLY MIXER-STAR iter=10 denseCov=  5.551115E-17 streamCov=  5.551115E-17 streamRoundtrip=  5.551115E-16 covDelta=  0.000000E+00 denseFullComplex=4096 streamedPeakComplex=192
 GXTB-QUALIFICATION_ONLY KGROUP-PARTIAL-ROOT iter=10 dE=  2.220446E-16 dVsh=  5.204170E-18 dFfold=  1.693090E-15
    10 GXTB-FDIIS  0.10E+01   72.7     0.00000009       -40.4685519826 -1.42E-14
 GXTB-QUALIFICATION_ONLY KGROUP-PARTIAL-ROOT iter=11 dE=  2.220446E-16 dVsh=  5.204170E-18 dFfold=  1.693090E-15
 GXTB-QUALIFICATION_ONLY MIXER-STAR iter=11 denseCov=  5.551115E-17 streamCov=  5.551115E-17 streamRoundtrip=  7.771561E-16 covDelta=  0.000000E+00 denseFullComplex=4096 streamedPeakComplex=192
 GXTB-QUALIFICATION_ONLY KGROUP-PARTIAL-ROOT iter=11 dE=  4.440892E-16 dVsh=  1.734723E-18 dFfold=  1.859624E-15
    11 GXTB-FDIIS  0.10E+01   73.1     9.2927E-11       -40.4685519826  7.11E-15

  *** SCF run converged in    11 steps ***


  Core Hamiltonian energy:                                     -3.06811392849621
  Repulsive potential energy:                                   0.37445749779347
  Electrostatic energy:                                         0.01421814649360
  Self-consistent dispersion energy:                           -0.00114272773869
  Non-self consistent dispersion energy:                        0.00003895111946
  Correction for halogen bonding:                               0.00000000000000

  Total energy:                                               -40.46855198257739


 MULLIKEN POPULATION ANALYSIS

  # Atom   Element   Kind        Atomic population                    Net charge
       1     C          1                 4.271980                     -0.271980
       2     H          2                 0.932005                      0.067995
       3     H          2                 0.932005                      0.067995
       4     H          2                 0.932005                      0.067995
       5     H          2                 0.932005                      0.067995
 # Total charge                           8.000000                      0.000000

 GXTB-QUALIFICATION_ONLY ACP-PROJECTOR-CACHE repeatedHit=1 directBypass=1
 GXTB-QUALIFICATION_ONLY KGROUP-PARTIAL-ROOT iter=11 dE=  4.440892E-16 dVsh=  1.734723E-18 dFfold=  1.859624E-15
 GXTB-QUALIFICATION_ONLY KGROUP-PARTIAL-ROOT-REVERSE dOverlap=  1.55431223447522E-15 dForce=  1.62630325872826E-19 dStress=  3.46944695195361E-18
 GXTB KGROUP-PARTIAL-DISTRIBUTED-IMAGES-REVERSE nfull=64, importers=2, empty=0, batch=2, provider_peak_complex=2356; distributed nonlinear image kernel and all-k partial pulls
 GXTB-EXCHANGE-TRANSFORM stage=REVERSE backend=MIXED_RADIX_FFT fallback=0
 GXTB-QUALIFICATION_ONLY ACP-PROJECTOR-CACHE repeatedHit=1 directBypass=1

 ENERGY| Total FORCE_EVAL ( QS ) energy [hartree]            -40.468551982577388

 FORCES| Atomic forces [hartree/bohr]
 FORCES|   Atom     x               y               z               |f|
 FORCES|      1  5.54608871E-17  2.33882501E-16  1.17107913E-16   2.67378379E-16
 FORCES|      2 -3.17853189E-02 -3.17853189E-02 -3.17853189E-02   5.50537873E-02
 FORCES|      3 -3.17853189E-02  3.17853189E-02  3.17853189E-02   5.50537873E-02
 FORCES|      4  3.17853189E-02 -3.17853189E-02  3.17853189E-02   5.50537873E-02
 FORCES|      5  3.17853189E-02  3.17853189E-02 -3.17853189E-02   5.50537873E-02
 FORCES| Sum     0.00000000E+00  6.93889390E-17 -4.85722573E-17
 FORCES| Total atomic force                                       8.46999943E-17

 STRESS| Stress tensor components (GPW/GAPW) [bar]
 STRESS|                                           1/3 Trace         Determinant
 STRESS| Overlap                           0.00000000000E+00   0.00000000000E+00
 STRESS| Kinetic energy                    0.00000000000E+00   0.00000000000E+00
 STRESS| Local pseudopotential/core        0.00000000000E+00   0.00000000000E+00
 STRESS| Nonlocal pseudopotential          0.00000000000E+00   0.00000000000E+00
 STRESS| Core charge overlap               0.00000000000E+00   0.00000000000E+00
 STRESS| Hartree                           0.00000000000E+00   0.00000000000E+00
 STRESS| Exchange-correlation              0.00000000000E+00   0.00000000000E+00
 STRESS| Exact exchange (EXX)              0.00000000000E+00   0.00000000000E+00
 STRESS| vdW correction                    0.00000000000E+00   0.00000000000E+00
 STRESS| Moller-Plesset (MP2)              0.00000000000E+00   0.00000000000E+00
 STRESS| Nonlinear core correction (NLCC)  0.00000000000E+00   0.00000000000E+00
 STRESS| Local atomic parts (GAPW)         0.00000000000E+00   0.00000000000E+00
 STRESS| Resolution-of-the-identity (LRI)  0.00000000000E+00   0.00000000000E+00
 STRESS| Sum of components                 0.00000000000E+00   0.00000000000E+00
 STRESS| Total                            -1.41896068919E+04  -2.85700560146E+12

 STRESS| Analytical stress tensor [bar]
 STRESS|                        x                   y                   z
 STRESS|      x       -1.41896068919E+04  -6.06260781373E-12   1.25127572567E-11
 STRESS|      y       -6.06260781373E-12  -1.41896068919E+04  -1.01991110726E-11
 STRESS|      z        1.25127572567E-11  -1.01991110726E-11  -1.41896068919E+04
 STRESS| 1/3 Trace                                            -1.41896068919E+04
 STRESS| Determinant                                          -2.85700560146E+12

 STRESS| Eigenvectors and eigenvalues of the analytical stress tensor [bar]
 STRESS|                        1                   2                   3
 STRESS| Eigenvalues  -1.41896068919E+04  -1.41896068919E+04  -1.41896068919E+04
 STRESS|      x           1.000000000000      0.000000000000      0.000000000000
 STRESS|      y           0.000000000000      1.000000000000      0.000000000000
 STRESS|      z           0.000000000000      0.000000000000      1.000000000000

 -------------------------------------------------------------------------------
 -                                                                             -
 -                                DBCSR STATISTICS                             -
 -                                                                             -
 -------------------------------------------------------------------------------
 COUNTER                                    TOTAL       BLAS       SMM       ACC
 flops inhomo. stacks                           0       0.0%      0.0%      0.0%
 flops total                         0.000000E+00       0.0%      0.0%      0.0%
 flops max/rank                      0.000000E+00       0.0%      0.0%      0.0%
 matmuls inhomo. stacks                         0       0.0%      0.0%      0.0%
 matmuls total                                  0       0.0%      0.0%      0.0%
 number of processed stacks                     0       0.0%      0.0%      0.0%
 average stack size                                     0.0       0.0       0.0
 marketing flops                     0.000000E+00
 -------------------------------------------------------------------------------
 -                                                                             -
 -                      DBCSR MESSAGE PASSING PERFORMANCE                      -
 -                                                                             -
 -------------------------------------------------------------------------------
 ROUTINE             CALLS      AVE VOLUME [Bytes]
 MP_Bcast                1                     12.
 MP_Allreduce           19                     21.
 MP_Alltoall          3856                    223.
 -------------------------------------------------------------------------------

 -------------------------------------------------------------------------------
 -                                                                             -
 -                          OFFLOAD MEMPOOL STATISTICS                         -
 -                                                                             -
 -------------------------------------------------------------------------------
 Memory consumption                Number of allocations  Used [MiB]  Size [MiB]
 Host                                                  1           0           0
 -------------------------------------------------------------------------------

 MEMORY| Estimated peak process memory [MiB]                                 229

 -------------------------------------------------------------------------------
 ----                             MULTIGRID INFO                            ----
 -------------------------------------------------------------------------------
 total grid count     :           840              cutoff [a.u.]            1.00

 -------------------------------------------------------------------------------
 -                                                                             -
 -                         MESSAGE PASSING PERFORMANCE                         -
 -                                                                             -
 -------------------------------------------------------------------------------

 ROUTINE             CALLS      AVE VOLUME [Bytes]
 MP_Group                2
 MP_Bcast           141371                      7.
 MP_Allreduce      3663315                    459.
 MP_Sync                 1
 MP_Wait              2160
 MP_comm_split           2
 MP_ISend             2640                     53.
 MP_IRecv             3360                     43.
 -------------------------------------------------------------------------------


 -------------------------------------------------------------------------------
 -                                                                             -
 -                           R E F E R E N C E S                               -
 -                                                                             -
 -------------------------------------------------------------------------------
 
 CP2K version 2026.2 (Development Version), the CP2K developers group (2026).
 CP2K is freely available from https://www.cp2k.org/ .
 
 M. Iannuzzi, J. Wilhelm, F. Stein, A. Bussy, H. Elgabarty, D. Golze, A. Hehn, 
 M. Graml, S. Marek, B. Sertcan Gökmen, C. Schran, H. Forbert, R. Z. 
 Khaliullin, A. Kozhevnikov, M. Taillefumier, R. Meli, V. V. Rybkin, M. Brehm, 
 R. Schade, O. Schütt, J. V. Pototschnig, H. Mirhosseini, A. Knüpfer, D. Marx, 
 M. Krack, J. Hutter, T. D. Kühne.
 J. Phys. Chem. B 130, 1237-1310 (2026).
 The CP2K Program Package Made Simple.
 https://doi.org/10.1021/acs.jpcb.5c05851

 A. Katbashev, M. Stahn, T. Rose, V. Alizadeh, M. Friede, C. Plett, P. 
 Steinbach, S. Ehlert.
 J. Phys. Chem. A 129, 2667-2682 (2025).
 Overview on Building Blocks and Applications of Efficient and Robust Extended 
 Tight Binding.
 https://doi.org/10.1021/acs.jpca.4c08263

 T. D. Kühne, M. Iannuzzi, M. Del Ben, V. V. Rybkin, P. Seewald, F. Stein, T. 
 Laino, R. Z. Khaliullin, O. Schütt, F. Schiffmann, D. Golze, J. Wilhelm, S. 
 Chulkov, M. H. Bani-Hashemian, V. Weber, U. Borstnik, M. Taillefumier, A. S. 
 Jakobovits, A. Lazzaro, H. Pabst, T. Müller, R. Schade, M. Guidon, S. 
 Andermatt, N. Holmberg, G. K. Schenter, A. Hehn, A. Bussy, F. Belleflamme, G. 
 Tabacchi, A. Glöß, M. Lass, I. Bethune, C. J. Mundy, C. Plessl, M. Watkins, 
 J. VandeVondele, M. Krack, J. Hutter.
 J. Chem. Phys. 152, 194103 (2020).
 CP2K: An electronic structure and molecular dynamics software package - 
 Quickstep: Efficient and accurate electronic structure calculations.
 https://doi.org/10.1063/5.0007045

 P. Pracht, E. Caldeweyher, S. Ehlert, S. Grimme.
 ChemRxiv, (2019).
 A Robust Non-Self-Consistent Tight-Binding Quantum Chemistry Method for large 
 Molecules.
 https://doi.org/10.26434/chemrxiv.8326202.v1

 A. Togo, I. Tanaka.
 arXiv, 1808.01590 (2018).
 Spglib : a software library for crystal symmetry search.

 S. Grimme, C. Bannwarth, P. Shushkov.
 J. Chem. Theory Comput. 13, 1989 (2017).
 A Robust and Accurate Tight-Binding Quantum Chemical Method for Structures, 
 Vibrational Frequencies, and Noncovalent Interactions of Large Molecular 
 Systems Parametrized for All spd-Block Elements (Z = 1-86).
 https://doi.org/10.1021/acs.jctc.7b00118

 O. Schuett, P. Messmer, J. Hutter, J. VandeVondele.
 Electronic Structure Calculations on Graphics Processing Units, 173-190 (2016).
 GPU-Accelerated Sparse Matrix-Matrix Multiplication for Linear Scaling Density 
 Functional Theory.
 https://doi.org/10.1002/9781118670712.ch8

 U. Borstnik, J. VandeVondele, V. Weber, J. Hutter.
 Parallel Comput. 40, 47-58 (2014).
 Sparse matrix multiplication: The distributed block-compressed sparse row 
 library.
 https://doi.org/10.1016/j.parco.2014.03.012

 M. Frigo, S. G. Johnson.
 Proc. IEEE 93, 216-231 (2005).
 The design and implementation of FFTW3.
 https://doi.org/10.1109/JPROC.2004.840301

 C.-L. Fu, K.-M. Ho.
 Phys. Rev. B 28, 5480-5486 (1983).
 First-principles calculation of the equilibrium ground-state properties of 
 transition metals: Applications to Nb and Mo.
 https://doi.org/10.1103/PhysRevB.28.5480


 -------------------------------------------------------------------------------
 -                                                                             -
 -                                T I M I N G                                  -
 -                                                                             -
 -------------------------------------------------------------------------------
 SUBROUTINE                       CALLS  ASD         SELF TIME        TOTAL TIME
                                MAXIMUM       AVERAGE  MAXIMUM  AVERAGE  MAXIMUM
 CP2K                                 1  1.0    0.022    0.037  900.448  900.448
 qs_forces                            1  2.0    0.000    0.000  900.388  900.388
 rskp_transform                 1623884  7.4  535.579  846.797  535.579  846.797
 qs_energies                          1  3.0    0.001    0.001  818.733  818.733
 scf_env_do_scf                       1  4.0    0.000    0.000  818.092  818.092
 scf_env_do_scf_inner_loop           11  5.0    8.101    8.580  818.092  818.092
 mp_sum_dm                      3257450  7.4  323.349  635.889  323.349  635.889
 rebuild_ks_matrix                   12  6.8    0.000    0.000  495.648  495.688
 build_tblite_ks_matrix              12  7.8   24.412   24.974  495.648  495.688
 qs_ks_update_qs_env                 11  6.0    0.000    0.000  414.379  414.418
 qs_ks_update_qs_env_forces           1  3.0    0.000    0.000   81.397   81.494
 -------------------------------------------------------------------------------

 The number of warnings for this run is : 1
 
 -------------------------------------------------------------------------------
  **** **** ******  **  PROGRAM ENDED AT                 2026-07-22 15:58:24.754
 ***** ** ***  *** **   PROGRAM RAN ON                                     terok
 **    ****   ******    PROGRAM RAN BY                                  kuehne88
 ***** **    ** ** **   PROGRAM PROCESS ID                               3897616
  **** **  *******  **  PROGRAM STOPPED IN /home/kuehne88/work/gxtb-compact-part
                                           ial-combination-20260722/results/matr
                                           ix-ch4_spglib_shifted_4x4x4
