 DBCSR| CPU Multiplication driver                                           BLAS (U)
 DBCSR| Multrec recursion limit                                              512 (U)
 DBCSR| Multiplication stack size                                           1000 (D)
 DBCSR| Maximum elements for images                                    UNLIMITED (U)
 DBCSR| Multiplicative factor virtual images                                   1 (U)
 DBCSR| Use multiplication densification                                       T (D)
 DBCSR| Multiplication size stacks                                             3 (U)
 DBCSR| Use memory pool for CPU allocation                                     F (U)
 DBCSR| Number of 3D layers                                               SINGLE (U)
 DBCSR| Use MPI memory allocation                                              F (U)
 DBCSR| Use RMA algorithm                                                      F (U)
 DBCSR| Use Communication thread                                               T (U)
 DBCSR| Communication thread load                                             87 (D)
 DBCSR| MPI: My process id                                                     0
 DBCSR| MPI: Number of processes                                               1
 DBCSR| OMP: Current number of threads                                         1
 DBCSR| OMP: Max number of threads                                             1
 DBCSR| Split modifier for TAS multiplication algorithm                  1.0E+00 (U)


  **** **** ******  **  PROGRAM STARTED AT               2026-07-21 16:08:07.443
 ***** ** ***  *** **   PROGRAM STARTED ON                                 terok
 **    ****   ******    PROGRAM STARTED BY                              kuehne88
 ***** **    ** ** **   PROGRAM PROCESS ID                               1005678
  **** **  *******  **  PROGRAM STARTED IN /home/kuehne88/work/h2o-molecular-lim
                                           it-20260721/stress_debug_8_50/raw/H2O
                                           _stress_L40

 CP2K| version string:                 CP2K version 2026.2 (Development Version)
 CP2K| source code revision number:                                    8520b2e59
 CP2K| cp2kflags: omp parallel scalapack spglib s_dftd3 mctc-lib tblite tblite_g
 CP2K|            xtb
 CP2K| is freely available from                            https://www.cp2k.org/
 CP2K| Program compiled at                                   2026-07-18 23:48:15
 CP2K| Program compiled on                                                 terok
 CP2K| Program compiled for                                               x86_64
 CP2K| Data directory path                            /usr/local/share/cp2k/data
 CP2K| Input file name        /home/kuehne88/work/h2o-molecular-limit-20260721/s

 GLOBAL| Force Environment number                                              1
 GLOBAL| Basis set file name                                           BASIS_SET
 GLOBAL| Potential file name                                           POTENTIAL
 GLOBAL| MM Potential file name                                     MM_POTENTIAL
 GLOBAL| Coordinate file name                                      __STD_INPUT__
 GLOBAL| Method name                                                        CP2K
 GLOBAL| Project name                                             H2O_stress_L40
 GLOBAL| Run type                                                          DEBUG
 GLOBAL| FFT library                                                       FFTW3
 GLOBAL| Diagonalization library                                       ScaLAPACK
 GLOBAL| Cholesky decomposition library                                ScaLAPACK
 GLOBAL| DGEMM library                                                      BLAS
 GLOBAL| Direct generalized diagonalization requested                          F
 GLOBAL| Orthonormality check for eigenvectors                          DISABLED
 GLOBAL| Matrix multiplication library                                 ScaLAPACK
 GLOBAL| All-to-all communication in single precision                          F
 GLOBAL| FFTs using library dependent lengths                                  F
 GLOBAL| Grid backend                                                       AUTO
 GLOBAL| Global print level                                               MEDIUM
 GLOBAL| MPI I/O enabled                                                       T
 GLOBAL| Total number of message passing processes                             1
 GLOBAL| Number of distributed systems (nodes)                                 1
 GLOBAL| Number of threads for this process                                    1
 GLOBAL| This output is from process                                           0
 GLOBAL| OpenMP stack size per thread (OMP_STACKSIZE)                    default
 GLOBAL| CPU model name                                       AMD EPYC Processor
 GLOBAL| CPUID                                                              1002

 MEMORY| system memory details [Kb]
 MEMORY|                        rank 0           min           max       average
 MEMORY| MemTotal            528104804     528104804     528104804     528104804
 MEMORY| MemFree             511854156     511854156     511854156     511854156
 MEMORY| Buffers                    20            20            20            20
 MEMORY| Cached               12271144      12271144      12271144      12271144
 MEMORY| Slab                  2373560       2373560       2373560       2373560
 MEMORY| SReclaimable          1020380       1020380       1020380       1020380
 MEMORY| MemLikelyFree       525145700     525145700     525145700     525145700


 *** WARNING in environment.F:1098 :: FFT library FFTW3 is not available. ***
 *** Trying FFT library FFTSG.                                            ***


 *** Fundamental physical constants (SI units) ***

 *** Literature: B. J. Mohr and B. N. Taylor,
 ***             CODATA recommended values of the fundamental physical
 ***             constants: 2006, Web Version 5.1
 ***             http://physics.nist.gov/constants

 Speed of light in vacuum [m/s]                             2.99792458000000E+08
 Magnetic constant or permeability of vacuum [N/A**2]       1.25663706143592E-06
 Electric constant or permittivity of vacuum [F/m]          8.85418781762039E-12
 Planck constant (h) [J*s]                                  6.62606896000000E-34
 Planck constant (h-bar) [J*s]                              1.05457162825177E-34
 Elementary charge [C]                                      1.60217648700000E-19
 Electron mass [kg]                                         9.10938215000000E-31
 Electron g factor [ ]                                     -2.00231930436220E+00
 Proton mass [kg]                                           1.67262163700000E-27
 Fine-structure constant                                    7.29735253760000E-03
 Rydberg constant [1/m]                                     1.09737315685270E+07
 Avogadro constant [1/mol]                                  6.02214179000000E+23
 Boltzmann constant [J/K]                                   1.38065040000000E-23
 Atomic mass unit [kg]                                      1.66053878200000E-27
 Bohr radius [m]                                            5.29177208590000E-11

 *** Conversion factors ***

 [u] -> [a.u.]                                              1.82288848426455E+03
 [Angstrom] -> [Bohr] = [a.u.]                              1.88972613288564E+00
 [a.u.] = [Bohr] -> [Angstrom]                              5.29177208590000E-01
 [a.u.] -> [s]                                              2.41888432650478E-17
 [a.u.] -> [fs]                                             2.41888432650478E-02
 [a.u.] -> [J]                                              4.35974393937059E-18
 [a.u.] -> [N]                                              8.23872205491840E-08
 [a.u.] -> [K]                                              3.15774647902944E+05
 [a.u.] -> [kJ/mol]                                         2.62549961709828E+03
 [a.u.] -> [kcal/mol]                                       6.27509468713739E+02
 [a.u.] -> [Pa]                                             2.94210107994716E+13
 [a.u.] -> [bar]                                            2.94210107994716E+08
 [a.u.] -> [atm]                                            2.90362800883016E+08
 [a.u.] -> [eV]                                             2.72113838565563E+01
 [a.u.] -> [Hz]                                             6.57968392072181E+15
 [a.u.] -> [1/cm] (wave numbers)                            2.19474631370540E+05
 [a.u./Bohr**2] -> [1/cm]                                   5.14048714338585E+03
 

 CELL| Volume [angstrom^3]:                                         64000.000000
 CELL| Vector a [angstrom]:      40.000     0.000     0.000   |a| =    40.000000
 CELL| Vector b [angstrom]:       0.000    40.000     0.000   |b| =    40.000000
 CELL| Vector c [angstrom]:       0.000     0.000    40.000   |c| =    40.000000
 CELL| Angle (b,c), alpha [degree]:                                    90.000000
 CELL| Angle (a,c), beta  [degree]:                                    90.000000
 CELL| Angle (a,b), gamma [degree]:                                    90.000000
 CELL| Numerically orthorhombic:                                             YES
 CELL| Periodicity                                                           XYZ

 CELL_REF| Volume [angstrom^3]:                                     64000.000000
 CELL_REF| Vector a [angstrom    40.000     0.000     0.000   |a| =    40.000000
 CELL_REF| Vector b [angstrom     0.000    40.000     0.000   |b| =    40.000000
 CELL_REF| Vector c [angstrom     0.000     0.000    40.000   |c| =    40.000000
 CELL_REF| Angle (b,c), alpha [degree]:                                90.000000
 CELL_REF| Angle (a,c), beta  [degree]:                                90.000000
 CELL_REF| Angle (a,b), gamma [degree]:                                90.000000
 CELL_REF| Numerically orthorhombic:                                         YES
 CELL_REF| Periodicity                                                       XYZ

 GENERATE|  Preliminary Number of Bonds generated:                             0
 GENERATE|  Achieved consistency in connectivity generation.


                  #####   #####        #     #   #     #       #          
                 #     # #     #      #    ##### #     #   # #####  ####  
                 #     # #           #       #   ###   #       #   #    # 
                 #     #  #####     #        #   #  #  #   #   #   ###### 
                 #   # #       #   #         #   #   # #   #   #   #      
                 #    #  #     #  #          #   #  #  # # #   #    #   # 
                  #### #  #####  #           #   ###   ##  #   #     ###  

                                     g-xTB   
                                 Version 0.0                       
                            Johann V. Pototschnig                  

                tblite provider: SAVE
                tblite source revision: 15915c9435644eb257178ca8f8bf7220c38b1a84
                g-xTB support: enabled

 xTB| Parameter file                                             xTB1_parameters
 xTB| Basis expansion STO-NG                                                   6
 xTB| Basis expansion STO-NG for Hydrogen                                      4
 xTB| Repulsive pair potential accuracy                               0.1000E-09
 xTB| Repulsive enhancement factor                                      0.000000
 xTB| Halogen interaction potential                                            T
 xTB| Halogen interaction potential cutoff radius                         20.000
 xTB| Nonbonded interactions                                                   F
 xTB| vdW potential type:                                              DFTD3(BJ)
 xTB| D3 Dispersion: Parameter                                         dftd3.dat
 xTB| Huckel constants ks kp kd                        1.850     2.250     2.000
 xTB| Huckel constants ksp k2sh                                  2.080     2.850
 xTB| Mataga-Nishimoto exponent                                            2.000
 xTB| Repulsion potential exponent                                         1.500
 xTB| Coordination number scaling kcn(s) kcn(p) kc     0.006    -0.003    -0.005
 xTB| Electronegativity scaling                                           -0.007
 xTB| Halogen potential scaling kxr kx2                          1.300     0.440
 xTB| SCC mixer:                                                       TBLITE
 xTB| tblite accuracy:                                                 1.000E-01
 xTB| tblite SCC mixer damping:                                            0.400
 xTB| tblite SCC mixer iterations:                                           300
 xTB| tblite SCC mixer memory:                                               300
 xTB| tblite SCC mixer solver:                                         GVD
 xTB| tblite SCC mixer omega0:                                         1.000E-02
 xTB| tblite SCC mixer min weight:                                     1.000E+00
 xTB| tblite SCC mixer max weight:                                     1.000E+05
 xTB| tblite SCC mixer weight factor:                                  1.000E-02




 ATOMIC KIND INFORMATION

  1. Atomic kind: O                                     Number of atoms:       1

     Orbital Basis Set                                                 O _STO-6G

       Number of orbital shell sets:                                           2
       Number of orbital shells:                                               2
       Number of primitive Cartesian functions:                               12
       Number of Cartesian basis functions:                                    4
       Number of spherical basis functions:                                    4
       Norm type:                                                              3

       Normalised Cartesian orbitals:

                        Set   Shell   Orbital            Exponent    Coefficient

                          1       1    1s                3.483595      -1.313024
                                                         2.859866       1.114872
                                                         0.740681       0.294549
                                                         0.344927       0.081390
                                                         0.261979       0.039458
                                                         0.094616       0.012363

                          2       1    2px              37.641471       1.474721
                                                         9.713089       1.794175
                                                         3.137177       1.303626
                                                         1.121381       0.633327
                                                         0.398078       0.183090
                                                         0.123048       0.019124
                          2       1    2py              37.641471       1.474721
                                                         9.713089       1.794175
                                                         3.137177       1.303626
                                                         1.121381       0.633327
                                                         0.398078       0.183090
                                                         0.123048       0.019124
                          2       1    2pz              37.641471       1.474721
                                                         9.713089       1.794175
                                                         3.137177       1.303626
                                                         1.121381       0.633327
                                                         0.398078       0.183090
                                                         0.123048       0.019124

     AE Potential information for                                         Oxygen

       Description:                                       Bare Coulomb Potential
                                                             Valence charge only

       Gaussian exponent of the core charge distribution:               3.753049
       Electronic configuration (s p d ...):                       2   4   0   0

  2. Atomic kind: H                                     Number of atoms:       2

     Orbital Basis Set                                                 H _STO-8G

       Number of orbital shell sets:                                           1
       Number of orbital shells:                                               1
       Number of primitive Cartesian functions:                                8
       Number of Cartesian basis functions:                                    1
       Number of spherical basis functions:                                    1
       Norm type:                                                              3

       Normalised Cartesian orbitals:

                        Set   Shell   Orbital            Exponent    Coefficient

                          1       1    1s              337.005012       0.038636
                                                        53.310531       0.064369
                                                        12.208253       0.119184
                                                         3.418827       0.179125
                                                         1.108790       0.225727
                                                         0.478718       0.127521
                                                         0.212137       0.089380
                                                         0.069058      -0.000553

     AE Potential information for                                       Hydrogen

       Description:                                       Bare Coulomb Potential
                                                              Full atomic charge

       Gaussian exponent of the core charge distribution:              12.500000
       Electronic configuration (s p d ...):                       1   0   0   0


 MOLECULE KIND INFORMATION


 All atoms are their own molecule, skipping detailed information


 TOTAL NUMBERS AND MAXIMUM NUMBERS

  Total number of            - Atomic kinds:                                   2
                             - Atoms:                                          3
                             - Shell sets:                                     4
                             - Shells:                                         4
                             - Primitive Cartesian functions:                 28
                             - Cartesian basis functions:                      6
                             - Spherical basis functions:                      6

  Maximum angular momentum of the orbital basis functions:                     1


 MODULE QUICKSTEP: ATOMIC COORDINATES IN ANGSTROM

   Atom Kind Element         X             Y             Z       Z(eff)     Mass
      1    1 O     8      0.000000      0.000000      0.000000   6.0000  15.9994
      2    2 H     1      0.758602      0.000000      0.504284   1.0000   1.0079
      3    2 H     1     -0.758602      0.000000      0.504284   1.0000   1.0079



 SCF PARAMETERS         Density guess:                                     MOPAC
                        --------------------------------------------------------
                        max_scf:                                             300
                        max_scf_history:                                       0
                        max_diis:                                              4
                        --------------------------------------------------------
                        eps_scf:                                        1.00E-10
                        eps_scf_history:                                0.00E+00
                        eps_diis:                                       1.00E-01
                        eps_eigval:                                     1.00E-05
                        --------------------------------------------------------
                        level_shift [a.u.]:                             0.000000
                        added MOs                                         2    0
                        --------------------------------------------------------
                        Mixing method:                           DIRECT_P_MIXING
                        --------------------------------------------------------
                        No outer SCF

 PW_GRID| Information for grid number                                          1
 PW_GRID| Cutoff [a.u.]                                                      1.0
 PW_GRID| spherical cutoff:                                                   NO
 PW_GRID|   Bounds   1            -18      17                Points:          36
 PW_GRID|   Bounds   2            -18      17                Points:          36
 PW_GRID|   Bounds   3            -18      17                Points:          36
 PW_GRID| Volume element (a.u.^3)   9.257         Volume (a.u.^3)    431893.4133
 PW_GRID| Grid span                                                    FULLSPACE

 POISSON| Solver                                                        PERIODIC
 POISSON| Periodicity                                                        XYZ

 RS_GRID| Information for grid number                                          1
 RS_GRID|   Bounds   1            -18      17                Points:          36
 RS_GRID|   Bounds   2            -18      17                Points:          36
 RS_GRID|   Bounds   3            -18      17                Points:          36

 Extrapolation method: initial_guess

 Number of electrons:                                                          8
 Number of occupied orbitals:                                                  4
 Number of molecular orbitals:                                                 6

 Number of orbital functions:                                                  6
 Number of independent orbital functions:                                      6


 SCF WAVEFUNCTION OPTIMIZATION

  Step     Update method      Time    Convergence         Total energy    Change
  ------------------------------------------------------------------------------
     1 GXTB-Raw    0.10E+01    0.0     0.75012646       -76.4024082469 -7.64E+01
     2 GXTB-Simple 0.20E+00    0.0     0.06436849       -76.4173927697 -1.50E-02
     3 GXTB-Simple 0.20E+00    0.0     0.04425020       -76.4248559651 -7.46E-03
     4 GXTB-FDIIS  0.10E+01    0.0     0.09801565       -76.4324061203 -7.55E-03
     5 GXTB-FDIIS  0.10E+01    0.0     0.01070938       -76.4325007416 -9.46E-05
     6 GXTB-FDIIS  0.10E+01    0.0     0.00160461       -76.4325021731 -1.43E-06
     7 GXTB-FDIIS  0.10E+01    0.0     0.00011832       -76.4325021765 -3.32E-09
     8 GXTB-FDIIS  0.10E+01    0.0     0.00000730       -76.4325021765 -4.48E-12
     9 GXTB-FDIIS  0.10E+01    0.0     0.00000135       -76.4325021765 -6.39E-13
    10 GXTB-FDIIS  0.10E+01    0.0     0.00000010       -76.4325021765 -1.42E-14
    11 GXTB-FDIIS  0.10E+01    0.0     7.7807E-11       -76.4325021765  1.42E-14

  *** SCF run converged in    11 steps ***


  Core Hamiltonian energy:                                     -6.32232246723687
  Repulsive potential energy:                                   0.41026482373041
  Electrostatic energy:                                         0.14457858562074
  Self-consistent dispersion energy:                           -0.00003925973825
  Non-self consistent dispersion energy:                        0.00000009665358
  Correction for halogen bonding:                               0.00000000000000

  Total energy:                                               -76.43250217645689


 MULLIKEN POPULATION ANALYSIS

  # Atom   Element   Kind        Atomic population                    Net charge
       1     O          1                 6.655338                     -0.655338
       2     H          2                 0.672331                      0.327669
       3     H          2                 0.672331                      0.327669
 # Total charge                           8.000000                     -0.000000


 tblite reference CLI check
 Executable: tblite
 Method:     gxtb
 Guess:      auto
 Solver:     gvd
 Spin-pol.:  F
 Grad file:  H2O_stress_L40_cli.grad
 JSON file:  H2O_stress_L40_cli.json
 Log file:   H2O_stress_L40_cli.log
 Energy CP2K/CLI/absdiff:   -7.643250217646E+01   -7.643250217570E+01    7.535305712736E-10
 Gradient diff sum/max:    8.511512023427E-08    2.130945174483E-08
 Virial diff sum/max:    8.047151592245E-08    6.044391298587E-08

 ENERGY| Total FORCE_EVAL ( QS ) energy [hartree]            -76.432502176456893

 -------------------------------------------------------------------------------
 ----                             MULTIGRID INFO                            ----
 -------------------------------------------------------------------------------
 total grid count     :           420              cutoff [a.u.]            1.00

 PW_GRID| Information for grid number                                          2
 PW_GRID| Cutoff [a.u.]                                                      1.0
 PW_GRID| spherical cutoff:                                                   NO
 PW_GRID|   Bounds   1            -18      17                Points:          36
 PW_GRID|   Bounds   2            -18      17                Points:          36
 PW_GRID|   Bounds   3            -18      17                Points:          36
 PW_GRID| Volume element (a.u.^3)   9.257         Volume (a.u.^3)    431893.9847
 PW_GRID| Grid span                                                    FULLSPACE

 POISSON| Solver                                                        PERIODIC
 POISSON| Periodicity                                                        XYZ

 RS_GRID| Information for grid number                                          2
 RS_GRID|   Bounds   1            -18      17                Points:          36
 RS_GRID|   Bounds   2            -18      17                Points:          36
 RS_GRID|   Bounds   3            -18      17                Points:          36

 Parameters for the always stable predictor-corrector (ASPC) method:

  ASPC order: 0

  B(1) =   1.000000

 Extrapolation method: ASPC

 Number of electrons:                                                          8
 Number of occupied orbitals:                                                  4
 Number of molecular orbitals:                                                 6

 Number of orbital functions:                                                  6
 Number of independent orbital functions:                                      6


 SCF WAVEFUNCTION OPTIMIZATION

  Step     Update method      Time    Convergence         Total energy    Change
  ------------------------------------------------------------------------------
     1 GXTB-Raw    0.10E+01    0.0     0.00000103       -76.4325023205 -7.64E+01
     2 GXTB-Simple 0.20E+00    0.0     0.00000012       -76.4325023205 -5.68E-14
     3 GXTB-Simple 0.20E+00    0.0     0.00000009       -76.4325023205 -1.42E-14
     4 GXTB-FDIIS  0.10E+01    0.0     0.00000042       -76.4325023205 -4.26E-14
     5 GXTB-FDIIS  0.10E+01    0.0     0.00000002       -76.4325023205  0.00E+00
     6 GXTB-FDIIS  0.10E+01    0.0     0.00000001       -76.4325023205  1.42E-14
     7 GXTB-FDIIS  0.10E+01    0.0     1.7743E-10       -76.4325023205  0.00E+00
     8 GXTB-FDIIS  0.10E+01    0.0     1.3323E-15       -76.4325023205  0.00E+00

  *** SCF run converged in     8 steps ***


  Core Hamiltonian energy:                                     -6.32232131213539
  Repulsive potential energy:                                   0.41026337856236
  Electrostatic energy:                                         0.14457863904361
  Self-consistent dispersion energy:                           -0.00003925985651
  Non-self consistent dispersion energy:                        0.00000009665248
  Correction for halogen bonding:                               0.00000000000000

  Total energy:                                               -76.43250232051362


 MULLIKEN POPULATION ANALYSIS

  # Atom   Element   Kind        Atomic population                    Net charge
       1     O          1                 6.655338                     -0.655338
       2     H          2                 0.672331                      0.327669
       3     H          2                 0.672331                      0.327669
 # Total charge                           8.000000                     -0.000000


 tblite reference CLI check
 Executable: tblite
 Method:     gxtb
 Guess:      auto
 Solver:     gvd
 Spin-pol.:  F
 Grad file:  H2O_stress_L40_cli.grad
 JSON file:  H2O_stress_L40_cli.json
 Log file:   H2O_stress_L40_cli.log
 Energy CP2K/CLI/absdiff:   -7.643250232051E+01   -7.643250231976E+01    7.535163604189E-10
 Gradient diff sum/max:    3.708763265909E-06    9.467646565620E-07
 Virial diff sum/max:    1.722944332727E-01    1.088899777681E-01
 tblite reference CLI deviation exceeded ERROR_LIMIT =   1.0000E-05

 ENERGY| Total FORCE_EVAL ( QS ) energy [hartree]            -76.432502320513620

 -------------------------------------------------------------------------------
 ----                             MULTIGRID INFO                            ----
 -------------------------------------------------------------------------------
 total grid count     :           420              cutoff [a.u.]            1.00

 PW_GRID| Information for grid number                                          3
 PW_GRID| Cutoff [a.u.]                                                      1.0
 PW_GRID| spherical cutoff:                                                   NO
 PW_GRID|   Bounds   1            -18      17                Points:          36
 PW_GRID|   Bounds   2            -18      17                Points:          36
 PW_GRID|   Bounds   3            -18      17                Points:          36
 PW_GRID| Volume element (a.u.^3)   9.257         Volume (a.u.^3)    431892.8419
 PW_GRID| Grid span                                                    FULLSPACE

 POISSON| Solver                                                        PERIODIC
 POISSON| Periodicity                                                        XYZ

 RS_GRID| Information for grid number                                          3
 RS_GRID|   Bounds   1            -18      17                Points:          36
 RS_GRID|   Bounds   2            -18      17                Points:          36
 RS_GRID|   Bounds   3            -18      17                Points:          36

 Parameters for the always stable predictor-corrector (ASPC) method:

  ASPC order: 0

  B(1) =   2.000000
  B(2) =  -1.000000

 Extrapolation method: ASPC

 Number of electrons:                                                          8
 Number of occupied orbitals:                                                  4
 Number of molecular orbitals:                                                 6

 Number of orbital functions:                                                  6
 Number of independent orbital functions:                                      6


 SCF WAVEFUNCTION OPTIMIZATION

  Step     Update method      Time    Convergence         Total energy    Change
  ------------------------------------------------------------------------------
     1 GXTB-Raw    0.10E+01    0.0     0.00000207       -76.4325020324 -7.64E+01
     2 GXTB-Simple 0.20E+00    0.0     0.00000023       -76.4325020324 -1.14E-13
     3 GXTB-Simple 0.20E+00    0.0     0.00000019       -76.4325020324 -9.95E-14
     4 GXTB-FDIIS  0.10E+01    0.0     0.00000084       -76.4325020324 -1.42E-13
     5 GXTB-FDIIS  0.10E+01    0.0     0.00000004       -76.4325020324 -1.42E-14
     6 GXTB-FDIIS  0.10E+01    0.0     0.00000002       -76.4325020324  0.00E+00
     7 GXTB-FDIIS  0.10E+01    0.0     3.5487E-10       -76.4325020324  0.00E+00
     8 GXTB-FDIIS  0.10E+01    0.0     5.8842E-15       -76.4325020324  1.42E-14

  *** SCF run converged in     8 steps ***


  Core Hamiltonian energy:                                     -6.32232362233877
  Repulsive potential energy:                                   0.41026626890280
  Electrostatic energy:                                         0.14457853219819
  Self-consistent dispersion energy:                           -0.00003925962000
  Non-self consistent dispersion energy:                        0.00000009665468
  Correction for halogen bonding:                               0.00000000000000

  Total energy:                                               -76.43250203239664


 MULLIKEN POPULATION ANALYSIS

  # Atom   Element   Kind        Atomic population                    Net charge
       1     O          1                 6.655338                     -0.655338
       2     H          2                 0.672331                      0.327669
       3     H          2                 0.672331                      0.327669
 # Total charge                           8.000000                      0.000000


 tblite reference CLI check
 Executable: tblite
 Method:     gxtb
 Guess:      auto
 Solver:     gvd
 Spin-pol.:  F
 Grad file:  H2O_stress_L40_cli.grad
 JSON file:  H2O_stress_L40_cli.json
 Log file:   H2O_stress_L40_cli.log
 Energy CP2K/CLI/absdiff:   -7.643250203240E+01   -7.643250203164E+01    7.535447821283E-10
 Gradient diff sum/max:    3.879015632522E-06    9.893901845442E-07
 Virial diff sum/max:    1.723013162966E-01    1.088950157259E-01
 tblite reference CLI deviation exceeded ERROR_LIMIT =   1.0000E-05

 ENERGY| Total FORCE_EVAL ( QS ) energy [hartree]            -76.432502032396641

 -------------------------------------------------------------------------------
 ----                             MULTIGRID INFO                            ----
 -------------------------------------------------------------------------------
 total grid count     :           420              cutoff [a.u.]            1.00

 PW_GRID| Information for grid number                                          4
 PW_GRID| Cutoff [a.u.]                                                      1.0
 PW_GRID| spherical cutoff:                                                   NO
 PW_GRID|   Bounds   1            -18      17                Points:          36
 PW_GRID|   Bounds   2            -18      17                Points:          36
 PW_GRID|   Bounds   3            -18      17                Points:          36
 PW_GRID| Volume element (a.u.^3)   9.257         Volume (a.u.^3)    431893.4133
 PW_GRID| Grid span                                                    FULLSPACE

 POISSON| Solver                                                        PERIODIC
 POISSON| Periodicity                                                        XYZ

 RS_GRID| Information for grid number                                          4
 RS_GRID|   Bounds   1            -18      17                Points:          36
 RS_GRID|   Bounds   2            -18      17                Points:          36
 RS_GRID|   Bounds   3            -18      17                Points:          36

 Parameters for the always stable predictor-corrector (ASPC) method:

  ASPC order: 1

  B(1) =   2.500000
  B(2) =  -2.000000
  B(3) =   0.500000

 Extrapolation method: ASPC

 Number of electrons:                                                          8
 Number of occupied orbitals:                                                  4
 Number of molecular orbitals:                                                 6

 Number of orbital functions:                                                  6
 Number of independent orbital functions:                                      6


 SCF WAVEFUNCTION OPTIMIZATION

  Step     Update method      Time    Convergence         Total energy    Change
  ------------------------------------------------------------------------------
     1 GXTB-Raw    0.10E+01    0.0     0.00000103       -76.4325021765 -7.64E+01
     2 GXTB-Simple 0.20E+00    0.0     0.00000012       -76.4325021765 -1.42E-14
     3 GXTB-Simple 0.20E+00    0.0     0.00000009       -76.4325021765 -2.84E-14
     4 GXTB-FDIIS  0.10E+01    0.0     0.00000042       -76.4325021765 -4.26E-14
     5 GXTB-FDIIS  0.10E+01    0.0     0.00000002       -76.4325021765  0.00E+00
     6 GXTB-FDIIS  0.10E+01    0.0     0.00000001       -76.4325021765 -1.42E-14
     7 GXTB-FDIIS  0.10E+01    0.0     1.7743E-10       -76.4325021765  1.42E-14
     8 GXTB-FDIIS  0.10E+01    0.0     4.8850E-15       -76.4325021765  0.00E+00

  *** SCF run converged in     8 steps ***


  Core Hamiltonian energy:                                     -6.32232246723688
  Repulsive potential energy:                                   0.41026482373041
  Electrostatic energy:                                         0.14457858562075
  Self-consistent dispersion energy:                           -0.00003925973825
  Non-self consistent dispersion energy:                        0.00000009665358
  Correction for halogen bonding:                               0.00000000000000

  Total energy:                                               -76.43250217645689


 MULLIKEN POPULATION ANALYSIS

  # Atom   Element   Kind        Atomic population                    Net charge
       1     O          1                 6.655338                     -0.655338
       2     H          2                 0.672331                      0.327669
       3     H          2                 0.672331                      0.327669
 # Total charge                           8.000000                      0.000000


 tblite reference CLI check
 Executable: tblite
 Method:     gxtb
 Guess:      auto
 Solver:     gvd
 Spin-pol.:  F
 Grad file:  H2O_stress_L40_cli.grad
 JSON file:  H2O_stress_L40_cli.json
 Log file:   H2O_stress_L40_cli.log
 Energy CP2K/CLI/absdiff:   -7.643250217646E+01   -7.643250217570E+01    7.535305712736E-10
 Gradient diff sum/max:    8.511519850887E-08    2.130946667733E-08
 Virial diff sum/max:    1.722978747935E-01    1.088924967442E-01
 tblite reference CLI deviation exceeded ERROR_LIMIT =   1.0000E-05

 ENERGY| Total FORCE_EVAL ( QS ) energy [hartree]            -76.432502176456893

 -------------------------------------------------------------------------------
 ----                             MULTIGRID INFO                            ----
 -------------------------------------------------------------------------------
 total grid count     :           420              cutoff [a.u.]            1.00

 PW_GRID| Information for grid number                                          5
 PW_GRID| Cutoff [a.u.]                                                      1.0
 PW_GRID| spherical cutoff:                                                   NO
 PW_GRID|   Bounds   1            -18      17                Points:          36
 PW_GRID|   Bounds   2            -18      17                Points:          36
 PW_GRID|   Bounds   3            -18      17                Points:          36
 PW_GRID| Volume element (a.u.^3)   9.257         Volume (a.u.^3)    431893.4133
 PW_GRID| Grid span                                                    FULLSPACE

 POISSON| Solver                                                        PERIODIC
 POISSON| Periodicity                                                        XYZ

 RS_GRID| Information for grid number                                          5
 RS_GRID|   Bounds   1            -18      17                Points:          36
 RS_GRID|   Bounds   2            -18      17                Points:          36
 RS_GRID|   Bounds   3            -18      17                Points:          36

 Parameters for the always stable predictor-corrector (ASPC) method:

  ASPC order: 2

  B(1) =   2.800000
  B(2) =  -2.800000
  B(3) =   1.200000
  B(4) =  -0.200000

 Extrapolation method: ASPC

 Number of electrons:                                                          8
 Number of occupied orbitals:                                                  4
 Number of molecular orbitals:                                                 6

 Number of orbital functions:                                                  6
 Number of independent orbital functions:                                      6


 SCF WAVEFUNCTION OPTIMIZATION

  Step     Update method      Time    Convergence         Total energy    Change
  ------------------------------------------------------------------------------
     1 GXTB-Raw    0.10E+01    0.0     9.1758E-14       -76.4325021765 -7.64E+01

  *** SCF run converged in     1 steps ***


  Core Hamiltonian energy:                                     -6.32232246723689
  Repulsive potential energy:                                   0.41026482373041
  Electrostatic energy:                                         0.14457858562075
  Self-consistent dispersion energy:                           -0.00003925973825
  Non-self consistent dispersion energy:                        0.00000009665358
  Correction for halogen bonding:                               0.00000000000000

  Total energy:                                               -76.43250217645691


 MULLIKEN POPULATION ANALYSIS

  # Atom   Element   Kind        Atomic population                    Net charge
       1     O          1                 6.655338                     -0.655338
       2     H          2                 0.672331                      0.327669
       3     H          2                 0.672331                      0.327669
 # Total charge                           8.000000                     -0.000000


 tblite reference CLI check
 Executable: tblite
 Method:     gxtb
 Guess:      auto
 Solver:     gvd
 Spin-pol.:  F
 Grad file:  H2O_stress_L40_cli.grad
 JSON file:  H2O_stress_L40_cli.json
 Log file:   H2O_stress_L40_cli.log
 Energy CP2K/CLI/absdiff:   -7.643250217646E+01   -7.643250217570E+01    7.535447821283E-10
 Gradient diff sum/max:    8.511519874219E-08    2.130946667733E-08
 Virial diff sum/max:    1.722978747935E-01    1.088924967442E-01
 tblite reference CLI deviation exceeded ERROR_LIMIT =   1.0000E-05

 ENERGY| Total FORCE_EVAL ( QS ) energy [hartree]            -76.432502176456907

 -------------------------------------------------------------------------------
 ----                             MULTIGRID INFO                            ----
 -------------------------------------------------------------------------------
 total grid count     :           420              cutoff [a.u.]            1.00

 PW_GRID| Information for grid number                                          6
 PW_GRID| Cutoff [a.u.]                                                      1.0
 PW_GRID| spherical cutoff:                                                   NO
 PW_GRID|   Bounds   1            -18      17                Points:          36
 PW_GRID|   Bounds   2            -18      17                Points:          36
 PW_GRID|   Bounds   3            -18      17                Points:          36
 PW_GRID| Volume element (a.u.^3)   9.257         Volume (a.u.^3)    431893.4133
 PW_GRID| Grid span                                                    FULLSPACE

 POISSON| Solver                                                        PERIODIC
 POISSON| Periodicity                                                        XYZ

 RS_GRID| Information for grid number                                          6
 RS_GRID|   Bounds   1            -18      17                Points:          36
 RS_GRID|   Bounds   2            -18      17                Points:          36
 RS_GRID|   Bounds   3            -18      17                Points:          36

 Parameters for the always stable predictor-corrector (ASPC) method:

  ASPC order: 3

  B(1) =   3.000000
  B(2) =  -3.428571
  B(3) =   1.928571
  B(4) =  -0.571429
  B(5) =   0.071429

 Extrapolation method: ASPC

 Number of electrons:                                                          8
 Number of occupied orbitals:                                                  4
 Number of molecular orbitals:                                                 6

 Number of orbital functions:                                                  6
 Number of independent orbital functions:                                      6


 SCF WAVEFUNCTION OPTIMIZATION

  Step     Update method      Time    Convergence         Total energy    Change
  ------------------------------------------------------------------------------
     1 GXTB-Raw    0.10E+01    0.0     0.00000033       -76.4325021765 -7.64E+01
     2 GXTB-Simple 0.20E+00    0.0     0.00000003       -76.4325021765 -2.84E-14
     3 GXTB-Simple 0.20E+00    0.0     0.00000003       -76.4325021765  1.42E-14
     4 GXTB-FDIIS  0.10E+01    0.0     0.00000013       -76.4325021765 -4.26E-14
     5 GXTB-FDIIS  0.10E+01    0.0     4.7277E-09       -76.4325021765  1.42E-14
     6 GXTB-FDIIS  0.10E+01    0.0     6.3229E-10       -76.4325021765  0.00E+00
     7 GXTB-FDIIS  0.10E+01    0.0     7.5214E-11       -76.4325021765  0.00E+00

  *** SCF run converged in     7 steps ***


  Core Hamiltonian energy:                                     -6.32232246723697
  Repulsive potential energy:                                   0.41026482373128
  Electrostatic energy:                                         0.14457858562080
  Self-consistent dispersion energy:                           -0.00003925973825
  Non-self consistent dispersion energy:                        0.00000009665358
  Correction for halogen bonding:                               0.00000000000000

  Total energy:                                               -76.43250217645620


 MULLIKEN POPULATION ANALYSIS

  # Atom   Element   Kind        Atomic population                    Net charge
       1     O          1                 6.655338                     -0.655338
       2     H          2                 0.672331                      0.327669
       3     H          2                 0.672331                      0.327669
 # Total charge                           8.000000                      0.000000


 tblite reference CLI check
 Executable: tblite
 Method:     gxtb
 Guess:      auto
 Solver:     gvd
 Spin-pol.:  F
 Grad file:  H2O_stress_L40_cli.grad
 JSON file:  H2O_stress_L40_cli.json
 Log file:   H2O_stress_L40_cli.log
 Energy CP2K/CLI/absdiff:   -7.643250217646E+01   -7.643250217570E+01    7.535447821283E-10
 Gradient diff sum/max:    3.007807260766E-06    1.098777168567E-06
 Virial diff sum/max:    1.722999689906E-01    1.088924967449E-01
 tblite reference CLI deviation exceeded ERROR_LIMIT =   1.0000E-05

 ENERGY| Total FORCE_EVAL ( QS ) energy [hartree]            -76.432502176456197

 -------------------------------------------------------------------------------
 ----                             MULTIGRID INFO                            ----
 -------------------------------------------------------------------------------
 total grid count     :           420              cutoff [a.u.]            1.00

 PW_GRID| Information for grid number                                          7
 PW_GRID| Cutoff [a.u.]                                                      1.0
 PW_GRID| spherical cutoff:                                                   NO
 PW_GRID|   Bounds   1            -18      17                Points:          36
 PW_GRID|   Bounds   2            -18      17                Points:          36
 PW_GRID|   Bounds   3            -18      17                Points:          36
 PW_GRID| Volume element (a.u.^3)   9.257         Volume (a.u.^3)    431893.4133
 PW_GRID| Grid span                                                    FULLSPACE

 POISSON| Solver                                                        PERIODIC
 POISSON| Periodicity                                                        XYZ

 RS_GRID| Information for grid number                                          7
 RS_GRID|   Bounds   1            -18      17                Points:          36
 RS_GRID|   Bounds   2            -18      17                Points:          36
 RS_GRID|   Bounds   3            -18      17                Points:          36

 Parameters for the always stable predictor-corrector (ASPC) method:

  ASPC order: 3

  B(1) =   3.000000
  B(2) =  -3.428571
  B(3) =   1.928571
  B(4) =  -0.571429
  B(5) =   0.071429

 Extrapolation method: ASPC

 Number of electrons:                                                          8
 Number of occupied orbitals:                                                  4
 Number of molecular orbitals:                                                 6

 Number of orbital functions:                                                  6
 Number of independent orbital functions:                                      6


 SCF WAVEFUNCTION OPTIMIZATION

  Step     Update method      Time    Convergence         Total energy    Change
  ------------------------------------------------------------------------------
     1 GXTB-Raw    0.10E+01    0.0     0.00000065       -76.4325021765 -7.64E+01
     2 GXTB-Simple 0.20E+00    0.0     0.00000007       -76.4325021765 -5.68E-14
     3 GXTB-Simple 0.20E+00    0.0     0.00000006       -76.4325021765 -5.68E-14
     4 GXTB-FDIIS  0.10E+01    0.0     0.00000027       -76.4325021765 -8.53E-14
     5 GXTB-FDIIS  0.10E+01    0.0     9.4555E-09       -76.4325021765  0.00E+00
     6 GXTB-FDIIS  0.10E+01    0.0     1.2646E-09       -76.4325021765  1.42E-14
     7 GXTB-FDIIS  0.10E+01    0.0     1.5043E-10       -76.4325021765  0.00E+00
     8 GXTB-FDIIS  0.10E+01    0.0     2.3315E-15       -76.4325021765  0.00E+00

  *** SCF run converged in     8 steps ***


  Core Hamiltonian energy:                                     -6.32232246723697
  Repulsive potential energy:                                   0.41026482373128
  Electrostatic energy:                                         0.14457858562080
  Self-consistent dispersion energy:                           -0.00003925973825
  Non-self consistent dispersion energy:                        0.00000009665358
  Correction for halogen bonding:                               0.00000000000000

  Total energy:                                               -76.43250217645620


 MULLIKEN POPULATION ANALYSIS

  # Atom   Element   Kind        Atomic population                    Net charge
       1     O          1                 6.655338                     -0.655338
       2     H          2                 0.672331                      0.327669
       3     H          2                 0.672331                      0.327669
 # Total charge                           8.000000                     -0.000000


 tblite reference CLI check
 Executable: tblite
 Method:     gxtb
 Guess:      auto
 Solver:     gvd
 Spin-pol.:  F
 Grad file:  H2O_stress_L40_cli.grad
 JSON file:  H2O_stress_L40_cli.json
 Log file:   H2O_stress_L40_cli.log
 Energy CP2K/CLI/absdiff:   -7.643250217646E+01   -7.643250217570E+01    7.535447821283E-10
 Gradient diff sum/max:    3.007807258638E-06    1.098777168047E-06
 Virial diff sum/max:    1.722999689906E-01    1.088924967449E-01
 tblite reference CLI deviation exceeded ERROR_LIMIT =   1.0000E-05

 ENERGY| Total FORCE_EVAL ( QS ) energy [hartree]            -76.432502176456197

 -------------------------------------------------------------------------------
 ----                             MULTIGRID INFO                            ----
 -------------------------------------------------------------------------------
 total grid count     :           420              cutoff [a.u.]            1.00

 PW_GRID| Information for grid number                                          8
 PW_GRID| Cutoff [a.u.]                                                      1.0
 PW_GRID| spherical cutoff:                                                   NO
 PW_GRID|   Bounds   1            -18      17                Points:          36
 PW_GRID|   Bounds   2            -18      17                Points:          36
 PW_GRID|   Bounds   3            -18      17                Points:          36
 PW_GRID| Volume element (a.u.^3)   9.257         Volume (a.u.^3)    431893.4133
 PW_GRID| Grid span                                                    FULLSPACE

 POISSON| Solver                                                        PERIODIC
 POISSON| Periodicity                                                        XYZ

 RS_GRID| Information for grid number                                          8
 RS_GRID|   Bounds   1            -18      17                Points:          36
 RS_GRID|   Bounds   2            -18      17                Points:          36
 RS_GRID|   Bounds   3            -18      17                Points:          36

 Parameters for the always stable predictor-corrector (ASPC) method:

  ASPC order: 3

  B(1) =   3.000000
  B(2) =  -3.428571
  B(3) =   1.928571
  B(4) =  -0.571429
  B(5) =   0.071429

 Extrapolation method: ASPC

 Number of electrons:                                                          8
 Number of occupied orbitals:                                                  4
 Number of molecular orbitals:                                                 6

 Number of orbital functions:                                                  6
 Number of independent orbital functions:                                      6


 SCF WAVEFUNCTION OPTIMIZATION

  Step     Update method      Time    Convergence         Total energy    Change
  ------------------------------------------------------------------------------
     1 GXTB-Raw    0.10E+01    0.0     0.00000033       -76.4325021765 -7.64E+01
     2 GXTB-Simple 0.20E+00    0.0     0.00000012       -76.4325021765 -5.68E-14
     3 GXTB-Simple 0.20E+00    0.0     0.00000010       -76.4325021765 -4.26E-14
     4 GXTB-FDIIS  0.10E+01    0.0     0.00000050       -76.4325021765 -8.53E-14
     5 GXTB-FDIIS  0.10E+01    0.0     0.00000003       -76.4325021765 -1.42E-14
     6 GXTB-FDIIS  0.10E+01    0.0     9.0226E-10       -76.4325021765  0.00E+00
     7 GXTB-FDIIS  0.10E+01    0.0     2.1210E-10       -76.4325021765  0.00E+00
     8 GXTB-FDIIS  0.10E+01    0.0     3.2787E-12       -76.4325021765  0.00E+00

  *** SCF run converged in     8 steps ***


  Core Hamiltonian energy:                                     -6.32232246723612
  Repulsive potential energy:                                   0.41026482372945
  Electrostatic energy:                                         0.14457858562078
  Self-consistent dispersion energy:                           -0.00003925973825
  Non-self consistent dispersion energy:                        0.00000009665358
  Correction for halogen bonding:                               0.00000000000000

  Total energy:                                               -76.43250217645699


 MULLIKEN POPULATION ANALYSIS

  # Atom   Element   Kind        Atomic population                    Net charge
       1     O          1                 6.655338                     -0.655338
       2     H          2                 0.672331                      0.327669
       3     H          2                 0.672331                      0.327669
 # Total charge                           8.000000                     -0.000000


 tblite reference CLI check
 Executable: tblite
 Method:     gxtb
 Guess:      auto
 Solver:     gvd
 Spin-pol.:  F
 Grad file:  H2O_stress_L40_cli.grad
 JSON file:  H2O_stress_L40_cli.json
 Log file:   H2O_stress_L40_cli.log
 Energy CP2K/CLI/absdiff:   -7.643250217646E+01   -7.643250217570E+01    7.535447821283E-10
 Gradient diff sum/max:    1.856081569811E-07    5.024779377872E-08
 Virial diff sum/max:    1.722981628920E-01    1.088924967423E-01
 tblite reference CLI deviation exceeded ERROR_LIMIT =   1.0000E-05

 ENERGY| Total FORCE_EVAL ( QS ) energy [hartree]            -76.432502176456993

 -------------------------------------------------------------------------------
 ----                             MULTIGRID INFO                            ----
 -------------------------------------------------------------------------------
 total grid count     :           420              cutoff [a.u.]            1.00

 PW_GRID| Information for grid number                                          9
 PW_GRID| Cutoff [a.u.]                                                      1.0
 PW_GRID| spherical cutoff:                                                   NO
 PW_GRID|   Bounds   1            -18      17                Points:          36
 PW_GRID|   Bounds   2            -18      17                Points:          36
 PW_GRID|   Bounds   3            -18      17                Points:          36
 PW_GRID| Volume element (a.u.^3)   9.257         Volume (a.u.^3)    431893.4133
 PW_GRID| Grid span                                                    FULLSPACE

 POISSON| Solver                                                        PERIODIC
 POISSON| Periodicity                                                        XYZ

 RS_GRID| Information for grid number                                          9
 RS_GRID|   Bounds   1            -18      17                Points:          36
 RS_GRID|   Bounds   2            -18      17                Points:          36
 RS_GRID|   Bounds   3            -18      17                Points:          36

 Parameters for the always stable predictor-corrector (ASPC) method:

  ASPC order: 3

  B(1) =   3.000000
  B(2) =  -3.428571
  B(3) =   1.928571
  B(4) =  -0.571429
  B(5) =   0.071429

 Extrapolation method: ASPC

 Number of electrons:                                                          8
 Number of occupied orbitals:                                                  4
 Number of molecular orbitals:                                                 6

 Number of orbital functions:                                                  6
 Number of independent orbital functions:                                      6


 SCF WAVEFUNCTION OPTIMIZATION

  Step     Update method      Time    Convergence         Total energy    Change
  ------------------------------------------------------------------------------
     1 GXTB-Raw    0.10E+01    0.0     0.00000053       -76.4325021765 -7.64E+01
     2 GXTB-Simple 0.20E+00    0.0     0.00000023       -76.4325021765 -1.71E-13
     3 GXTB-Simple 0.20E+00    0.0     0.00000020       -76.4325021765 -1.28E-13
     4 GXTB-FDIIS  0.10E+01    0.0     0.00000101       -76.4325021765 -3.13E-13
     5 GXTB-FDIIS  0.10E+01    0.0     0.00000004       -76.4325021765  0.00E+00
     6 GXTB-FDIIS  0.10E+01    0.0     1.4311E-13       -76.4325021765  0.00E+00

  *** SCF run converged in     6 steps ***


  Core Hamiltonian energy:                                     -6.32232246723612
  Repulsive potential energy:                                   0.41026482372945
  Electrostatic energy:                                         0.14457858562079
  Self-consistent dispersion energy:                           -0.00003925973825
  Non-self consistent dispersion energy:                        0.00000009665358
  Correction for halogen bonding:                               0.00000000000000

  Total energy:                                               -76.43250217645699


 MULLIKEN POPULATION ANALYSIS

  # Atom   Element   Kind        Atomic population                    Net charge
       1     O          1                 6.655338                     -0.655338
       2     H          2                 0.672331                      0.327669
       3     H          2                 0.672331                      0.327669
 # Total charge                           8.000000                      0.000000


 tblite reference CLI check
 Executable: tblite
 Method:     gxtb
 Guess:      auto
 Solver:     gvd
 Spin-pol.:  F
 Grad file:  H2O_stress_L40_cli.grad
 JSON file:  H2O_stress_L40_cli.json
 Log file:   H2O_stress_L40_cli.log
 Energy CP2K/CLI/absdiff:   -7.643250217646E+01   -7.643250217570E+01    7.535447821283E-10
 Gradient diff sum/max:    1.856081571462E-07    5.024779386130E-08
 Virial diff sum/max:    1.722981628920E-01    1.088924967423E-01
 tblite reference CLI deviation exceeded ERROR_LIMIT =   1.0000E-05

 ENERGY| Total FORCE_EVAL ( QS ) energy [hartree]            -76.432502176456993

 -------------------------------------------------------------------------------
 ----                             MULTIGRID INFO                            ----
 -------------------------------------------------------------------------------
 total grid count     :           420              cutoff [a.u.]            1.00

 PW_GRID| Information for grid number                                         10
 PW_GRID| Cutoff [a.u.]                                                      1.0
 PW_GRID| spherical cutoff:                                                   NO
 PW_GRID|   Bounds   1            -18      17                Points:          36
 PW_GRID|   Bounds   2            -18      17                Points:          36
 PW_GRID|   Bounds   3            -18      17                Points:          36
 PW_GRID| Volume element (a.u.^3)   9.257         Volume (a.u.^3)    431893.9847
 PW_GRID| Grid span                                                    FULLSPACE

 POISSON| Solver                                                        PERIODIC
 POISSON| Periodicity                                                        XYZ

 RS_GRID| Information for grid number                                         10
 RS_GRID|   Bounds   1            -18      17                Points:          36
 RS_GRID|   Bounds   2            -18      17                Points:          36
 RS_GRID|   Bounds   3            -18      17                Points:          36

 Parameters for the always stable predictor-corrector (ASPC) method:

  ASPC order: 3

  B(1) =   3.000000
  B(2) =  -3.428571
  B(3) =   1.928571
  B(4) =  -0.571429
  B(5) =   0.071429

 Extrapolation method: ASPC

 Number of electrons:                                                          8
 Number of occupied orbitals:                                                  4
 Number of molecular orbitals:                                                 6

 Number of orbital functions:                                                  6
 Number of independent orbital functions:                                      6


 SCF WAVEFUNCTION OPTIMIZATION

  Step     Update method      Time    Convergence         Total energy    Change
  ------------------------------------------------------------------------------
     1 GXTB-Raw    0.10E+01    0.0     0.00000027       -76.4325021764 -7.64E+01
     2 GXTB-Simple 0.20E+00    0.0     0.00000012       -76.4325021764 -5.68E-14
     3 GXTB-Simple 0.20E+00    0.0     0.00000010       -76.4325021764 -2.84E-14
     4 GXTB-FDIIS  0.10E+01    0.0     0.00000051       -76.4325021765 -7.11E-14
     5 GXTB-FDIIS  0.10E+01    0.0     0.00000002       -76.4325021765  0.00E+00
     6 GXTB-FDIIS  0.10E+01    0.0     1.2570E-12       -76.4325021765 -1.42E-14

  *** SCF run converged in     6 steps ***


  Core Hamiltonian energy:                                     -6.32232246723799
  Repulsive potential energy:                                   0.41026482373038
  Electrostatic energy:                                         0.14457858562060
  Self-consistent dispersion energy:                           -0.00003925973825
  Non-self consistent dispersion energy:                        0.00000009665358
  Correction for halogen bonding:                               0.00000000000000

  Total energy:                                               -76.43250217645004


 MULLIKEN POPULATION ANALYSIS

  # Atom   Element   Kind        Atomic population                    Net charge
       1     O          1                 6.655338                     -0.655338
       2     H          2                 0.672331                      0.327669
       3     H          2                 0.672331                      0.327669
 # Total charge                           8.000000                     -0.000000


 tblite reference CLI check
 Executable: tblite
 Method:     gxtb
 Guess:      auto
 Solver:     gvd
 Spin-pol.:  F
 Grad file:  H2O_stress_L40_cli.grad
 JSON file:  H2O_stress_L40_cli.json
 Log file:   H2O_stress_L40_cli.log
 Energy CP2K/CLI/absdiff:   -7.643250217645E+01   -7.643250217570E+01    7.535589929830E-10
 Gradient diff sum/max:    8.512385668163E-08    2.131375921588E-08
 Virial diff sum/max:    1.722978746759E-01    1.088924967437E-01
 tblite reference CLI deviation exceeded ERROR_LIMIT =   1.0000E-05

 ENERGY| Total FORCE_EVAL ( QS ) energy [hartree]            -76.432502176450043

 -------------------------------------------------------------------------------
 ----                             MULTIGRID INFO                            ----
 -------------------------------------------------------------------------------
 total grid count     :           420              cutoff [a.u.]            1.00

 PW_GRID| Information for grid number                                         11
 PW_GRID| Cutoff [a.u.]                                                      1.0
 PW_GRID| spherical cutoff:                                                   NO
 PW_GRID|   Bounds   1            -18      17                Points:          36
 PW_GRID|   Bounds   2            -18      17                Points:          36
 PW_GRID|   Bounds   3            -18      17                Points:          36
 PW_GRID| Volume element (a.u.^3)   9.257         Volume (a.u.^3)    431892.8419
 PW_GRID| Grid span                                                    FULLSPACE

 POISSON| Solver                                                        PERIODIC
 POISSON| Periodicity                                                        XYZ

 RS_GRID| Information for grid number                                         11
 RS_GRID|   Bounds   1            -18      17                Points:          36
 RS_GRID|   Bounds   2            -18      17                Points:          36
 RS_GRID|   Bounds   3            -18      17                Points:          36

 Parameters for the always stable predictor-corrector (ASPC) method:

  ASPC order: 3

  B(1) =   3.000000
  B(2) =  -3.428571
  B(3) =   1.928571
  B(4) =  -0.571429
  B(5) =   0.071429

 Extrapolation method: ASPC

 Number of electrons:                                                          8
 Number of occupied orbitals:                                                  4
 Number of molecular orbitals:                                                 6

 Number of orbital functions:                                                  6
 Number of independent orbital functions:                                      6


 SCF WAVEFUNCTION OPTIMIZATION

  Step     Update method      Time    Convergence         Total energy    Change
  ------------------------------------------------------------------------------
     1 GXTB-Raw    0.10E+01    0.0     1.7225E-11       -76.4325021765 -7.64E+01

  *** SCF run converged in     1 steps ***


  Core Hamiltonian energy:                                     -6.32232246722975
  Repulsive potential energy:                                   0.41026482373055
  Electrostatic energy:                                         0.14457858561486
  Self-consistent dispersion energy:                           -0.00003925973825
  Non-self consistent dispersion energy:                        0.00000009665358
  Correction for halogen bonding:                               0.00000000000000

  Total energy:                                               -76.43250217646376


 MULLIKEN POPULATION ANALYSIS

  # Atom   Element   Kind        Atomic population                    Net charge
       1     O          1                 6.655338                     -0.655338
       2     H          2                 0.672331                      0.327669
       3     H          2                 0.672331                      0.327669
 # Total charge                           8.000000                      0.000000


 tblite reference CLI check
 Executable: tblite
 Method:     gxtb
 Guess:      auto
 Solver:     gvd
 Spin-pol.:  F
 Grad file:  H2O_stress_L40_cli.grad
 JSON file:  H2O_stress_L40_cli.json
 Log file:   H2O_stress_L40_cli.log
 Energy CP2K/CLI/absdiff:   -7.643250217646E+01   -7.643250217571E+01    7.535447821283E-10
 Gradient diff sum/max:    8.510647728763E-08    2.130517888499E-08
 Virial diff sum/max:    1.722978748815E-01    1.088924967446E-01
 tblite reference CLI deviation exceeded ERROR_LIMIT =   1.0000E-05

 ENERGY| Total FORCE_EVAL ( QS ) energy [hartree]            -76.432502176463757

 -------------------------------------------------------------------------------
 ----                             MULTIGRID INFO                            ----
 -------------------------------------------------------------------------------
 total grid count     :           420              cutoff [a.u.]            1.00

 PW_GRID| Information for grid number                                         12
 PW_GRID| Cutoff [a.u.]                                                      1.0
 PW_GRID| spherical cutoff:                                                   NO
 PW_GRID|   Bounds   1            -18      17                Points:          36
 PW_GRID|   Bounds   2            -18      17                Points:          36
 PW_GRID|   Bounds   3            -18      17                Points:          36
 PW_GRID| Volume element (a.u.^3)   9.257         Volume (a.u.^3)    431893.4133
 PW_GRID| Grid span                                                    FULLSPACE

 POISSON| Solver                                                        PERIODIC
 POISSON| Periodicity                                                        XYZ

 RS_GRID| Information for grid number                                         12
 RS_GRID|   Bounds   1            -18      17                Points:          36
 RS_GRID|   Bounds   2            -18      17                Points:          36
 RS_GRID|   Bounds   3            -18      17                Points:          36

 Parameters for the always stable predictor-corrector (ASPC) method:

  ASPC order: 3

  B(1) =   3.000000
  B(2) =  -3.428571
  B(3) =   1.928571
  B(4) =  -0.571429
  B(5) =   0.071429

 Extrapolation method: ASPC

 Number of electrons:                                                          8
 Number of occupied orbitals:                                                  4
 Number of molecular orbitals:                                                 6

 Number of orbital functions:                                                  6
 Number of independent orbital functions:                                      6


 SCF WAVEFUNCTION OPTIMIZATION

  Step     Update method      Time    Convergence         Total energy    Change
  ------------------------------------------------------------------------------
     1 GXTB-Raw    0.10E+01    0.0     0.00000021       -76.4325021765 -7.64E+01
     2 GXTB-Simple 0.20E+00    0.0     0.00000008       -76.4325021765 -1.42E-14
     3 GXTB-Simple 0.20E+00    0.0     0.00000006       -76.4325021765  0.00E+00
     4 GXTB-FDIIS  0.10E+01    0.0     0.00000032       -76.4325021765 -5.68E-14
     5 GXTB-FDIIS  0.10E+01    0.0     7.8236E-09       -76.4325021765  1.42E-14
     6 GXTB-FDIIS  0.10E+01    0.0     2.4671E-12       -76.4325021765  0.00E+00

  *** SCF run converged in     6 steps ***


  Core Hamiltonian energy:                                     -6.32232246723648
  Repulsive potential energy:                                   0.41026482372999
  Electrostatic energy:                                         0.14457858562074
  Self-consistent dispersion energy:                           -0.00003925973825
  Non-self consistent dispersion energy:                        0.00000009665358
  Correction for halogen bonding:                               0.00000000000000

  Total energy:                                               -76.43250217645695


 MULLIKEN POPULATION ANALYSIS

  # Atom   Element   Kind        Atomic population                    Net charge
       1     O          1                 6.655338                     -0.655338
       2     H          2                 0.672331                      0.327669
       3     H          2                 0.672331                      0.327669
 # Total charge                           8.000000                      0.000000


 tblite reference CLI check
 Executable: tblite
 Method:     gxtb
 Guess:      auto
 Solver:     gvd
 Spin-pol.:  F
 Grad file:  H2O_stress_L40_cli.grad
 JSON file:  H2O_stress_L40_cli.json
 Log file:   H2O_stress_L40_cli.log
 Energy CP2K/CLI/absdiff:   -7.643250217646E+01   -7.643250217570E+01    7.535447821283E-10
 Gradient diff sum/max:    2.611928384010E-07    8.803949060246E-08
 Virial diff sum/max:    1.722980425426E-01    1.088924967435E-01
 tblite reference CLI deviation exceeded ERROR_LIMIT =   1.0000E-05

 ENERGY| Total FORCE_EVAL ( QS ) energy [hartree]            -76.432502176456950

 -------------------------------------------------------------------------------
 ----                             MULTIGRID INFO                            ----
 -------------------------------------------------------------------------------
 total grid count     :           420              cutoff [a.u.]            1.00

 PW_GRID| Information for grid number                                         13
 PW_GRID| Cutoff [a.u.]                                                      1.0
 PW_GRID| spherical cutoff:                                                   NO
 PW_GRID|   Bounds   1            -18      17                Points:          36
 PW_GRID|   Bounds   2            -18      17                Points:          36
 PW_GRID|   Bounds   3            -18      17                Points:          36
 PW_GRID| Volume element (a.u.^3)   9.257         Volume (a.u.^3)    431893.4133
 PW_GRID| Grid span                                                    FULLSPACE

 POISSON| Solver                                                        PERIODIC
 POISSON| Periodicity                                                        XYZ

 RS_GRID| Information for grid number                                         13
 RS_GRID|   Bounds   1            -18      17                Points:          36
 RS_GRID|   Bounds   2            -18      17                Points:          36
 RS_GRID|   Bounds   3            -18      17                Points:          36

 Parameters for the always stable predictor-corrector (ASPC) method:

  ASPC order: 3

  B(1) =   3.000000
  B(2) =  -3.428571
  B(3) =   1.928571
  B(4) =  -0.571429
  B(5) =   0.071429

 Extrapolation method: ASPC

 Number of electrons:                                                          8
 Number of occupied orbitals:                                                  4
 Number of molecular orbitals:                                                 6

 Number of orbital functions:                                                  6
 Number of independent orbital functions:                                      6


 SCF WAVEFUNCTION OPTIMIZATION

  Step     Update method      Time    Convergence         Total energy    Change
  ------------------------------------------------------------------------------
     1 GXTB-Raw    0.10E+01    0.0     0.00000043       -76.4325021765 -7.64E+01
     2 GXTB-Simple 0.20E+00    0.0     0.00000015       -76.4325021765 -9.95E-14
     3 GXTB-Simple 0.20E+00    0.0     0.00000013       -76.4325021765 -4.26E-14
     4 GXTB-FDIIS  0.10E+01    0.0     0.00000065       -76.4325021765 -1.28E-13
     5 GXTB-FDIIS  0.10E+01    0.0     0.00000002       -76.4325021765  0.00E+00
     6 GXTB-FDIIS  0.10E+01    0.0     5.1070E-14       -76.4325021765  0.00E+00

  *** SCF run converged in     6 steps ***


  Core Hamiltonian energy:                                     -6.32232246723647
  Repulsive potential energy:                                   0.41026482372999
  Electrostatic energy:                                         0.14457858562073
  Self-consistent dispersion energy:                           -0.00003925973825
  Non-self consistent dispersion energy:                        0.00000009665358
  Correction for halogen bonding:                               0.00000000000000

  Total energy:                                               -76.43250217645695


 MULLIKEN POPULATION ANALYSIS

  # Atom   Element   Kind        Atomic population                    Net charge
       1     O          1                 6.655338                     -0.655338
       2     H          2                 0.672331                      0.327669
       3     H          2                 0.672331                      0.327669
 # Total charge                           8.000000                      0.000000


 tblite reference CLI check
 Executable: tblite
 Method:     gxtb
 Guess:      auto
 Solver:     gvd
 Spin-pol.:  F
 Grad file:  H2O_stress_L40_cli.grad
 JSON file:  H2O_stress_L40_cli.json
 Log file:   H2O_stress_L40_cli.log
 Energy CP2K/CLI/absdiff:   -7.643250217646E+01   -7.643250217570E+01    7.535447821283E-10
 Gradient diff sum/max:    2.611928386353E-07    8.803949071960E-08
 Virial diff sum/max:    1.722980425426E-01    1.088924967435E-01
 tblite reference CLI deviation exceeded ERROR_LIMIT =   1.0000E-05

 ENERGY| Total FORCE_EVAL ( QS ) energy [hartree]            -76.432502176456950

 -------------------------------------------------------------------------------
 ----                             MULTIGRID INFO                            ----
 -------------------------------------------------------------------------------
 total grid count     :           420              cutoff [a.u.]            1.00

 PW_GRID| Information for grid number                                         14
 PW_GRID| Cutoff [a.u.]                                                      1.0
 PW_GRID| spherical cutoff:                                                   NO
 PW_GRID|   Bounds   1            -18      17                Points:          36
 PW_GRID|   Bounds   2            -18      17                Points:          36
 PW_GRID|   Bounds   3            -18      17                Points:          36
 PW_GRID| Volume element (a.u.^3)   9.257         Volume (a.u.^3)    431893.4133
 PW_GRID| Grid span                                                    FULLSPACE

 POISSON| Solver                                                        PERIODIC
 POISSON| Periodicity                                                        XYZ

 RS_GRID| Information for grid number                                         14
 RS_GRID|   Bounds   1            -18      17                Points:          36
 RS_GRID|   Bounds   2            -18      17                Points:          36
 RS_GRID|   Bounds   3            -18      17                Points:          36

 Parameters for the always stable predictor-corrector (ASPC) method:

  ASPC order: 3

  B(1) =   3.000000
  B(2) =  -3.428571
  B(3) =   1.928571
  B(4) =  -0.571429
  B(5) =   0.071429

 Extrapolation method: ASPC

 Number of electrons:                                                          8
 Number of occupied orbitals:                                                  4
[...]
  Repulsive potential energy:                                   0.41026544945593
  Electrostatic energy:                                         0.14457861183250
  Self-consistent dispersion energy:                           -0.00003925970761
  Non-self consistent dispersion energy:                        0.00000009665204
  Correction for halogen bonding:                               0.00000000000000

  Total energy:                                               -76.43250209258173


 MULLIKEN POPULATION ANALYSIS

  # Atom   Element   Kind        Atomic population                    Net charge
       1     O          1                 6.655338                     -0.655338
       2     H          2                 0.672331                      0.327669
       3     H          2                 0.672331                      0.327669
 # Total charge                           8.000000                      0.000000


 tblite reference CLI check
 Executable: tblite
 Method:     gxtb
 Guess:      auto
 Solver:     gvd
 Spin-pol.:  F
 Grad file:  H2O_stress_L40_cli.grad
 JSON file:  H2O_stress_L40_cli.json
 Log file:   H2O_stress_L40_cli.log
 Energy CP2K/CLI/absdiff:   -7.643250209258E+01   -7.643250209183E+01    7.535589929830E-10
 Gradient diff sum/max:    1.840029334078E-06    5.769975778835E-07
 Virial diff sum/max:    1.722992428530E-01    1.088934192792E-01
 tblite reference CLI deviation exceeded ERROR_LIMIT =   1.0000E-05

 ENERGY| Total FORCE_EVAL ( QS ) energy [hartree]            -76.432502092581728

 -------------------------------------------------------------------------------
 ----                             MULTIGRID INFO                            ----
 -------------------------------------------------------------------------------
 total grid count     :           420              cutoff [a.u.]            1.00

 PW_GRID| Information for grid number                                         20
 PW_GRID| Cutoff [a.u.]                                                      1.0
 PW_GRID| spherical cutoff:                                                   NO
 PW_GRID|   Bounds   1            -18      17                Points:          36
 PW_GRID|   Bounds   2            -18      17                Points:          36
 PW_GRID|   Bounds   3            -18      17                Points:          36
 PW_GRID| Volume element (a.u.^3)   9.257         Volume (a.u.^3)    431893.4133
 PW_GRID| Grid span                                                    FULLSPACE

 POISSON| Solver                                                        PERIODIC
 POISSON| Periodicity                                                        XYZ

 RS_GRID| Information for grid number                                         20
 RS_GRID|   Bounds   1            -18      17                Points:          36
 RS_GRID|   Bounds   2            -18      17                Points:          36
 RS_GRID|   Bounds   3            -18      17                Points:          36

 Parameters for the always stable predictor-corrector (ASPC) method:

  ASPC order: 3

  B(1) =   3.000000
  B(2) =  -3.428571
  B(3) =   1.928571
  B(4) =  -0.571429
  B(5) =   0.071429

 Extrapolation method: ASPC

 Number of electrons:                                                          8
 Number of occupied orbitals:                                                  4
 Number of molecular orbitals:                                                 6

 Number of orbital functions:                                                  6
 Number of independent orbital functions:                                      6


 SCF WAVEFUNCTION OPTIMIZATION

  Step     Update method      Time    Convergence         Total energy    Change
  ------------------------------------------------------------------------------
     1 GXTB-Raw    0.10E+01    0.0     0.00000033       -76.4325021765 -7.64E+01
     2 GXTB-Simple 0.20E+00    0.0     0.00000009       -76.4325021765 -1.42E-14
     3 GXTB-Simple 0.20E+00    0.0     0.00000008       -76.4325021765 -2.84E-14
     4 GXTB-FDIIS  0.10E+01    0.0     0.00000036       -76.4325021765 -1.42E-14
     5 GXTB-FDIIS  0.10E+01    0.0     0.00000002       -76.4325021765  0.00E+00
     6 GXTB-FDIIS  0.10E+01    0.0     9.9018E-09       -76.4325021765 -1.42E-14
     7 GXTB-FDIIS  0.10E+01    0.0     4.4487E-12       -76.4325021765  1.42E-14

  *** SCF run converged in     7 steps ***


  Core Hamiltonian energy:                                     -6.32232246723688
  Repulsive potential energy:                                   0.41026482373041
  Electrostatic energy:                                         0.14457858562075
  Self-consistent dispersion energy:                           -0.00003925973825
  Non-self consistent dispersion energy:                        0.00000009665358
  Correction for halogen bonding:                               0.00000000000000

  Total energy:                                               -76.43250217645689


 MULLIKEN POPULATION ANALYSIS

  # Atom   Element   Kind        Atomic population                    Net charge
       1     O          1                 6.655338                     -0.655338
       2     H          2                 0.672331                      0.327669
       3     H          2                 0.672331                      0.327669
 # Total charge                           8.000000                      0.000000


 tblite reference CLI check
 Executable: tblite
 Method:     gxtb
 Guess:      auto
 Solver:     gvd
 Spin-pol.:  F
 Grad file:  H2O_stress_L40_cli.grad
 JSON file:  H2O_stress_L40_cli.json
 Log file:   H2O_stress_L40_cli.log
 Energy CP2K/CLI/absdiff:   -7.643250217646E+01   -7.643250217570E+01    7.535305712736E-10
 Gradient diff sum/max:    8.511512023427E-08    2.130945174483E-08
 Virial diff sum/max:    1.722978747786E-01    1.088924967441E-01
 tblite reference CLI deviation exceeded ERROR_LIMIT =   1.0000E-05

 ENERGY| Total FORCE_EVAL ( QS ) energy [hartree]            -76.432502176456893
 DEBUG| Numerical pv_virial [a.u.]
 DEBUG|                   0.108892436971     -0.000000002685      0.000000000000
 DEBUG|                  -0.000000002685     -0.000005182942      0.000000000000
 DEBUG|                   0.000000000000      0.000000000000      0.063400172996

 DEBUG| Analytical pv_virial [a.u.]
 DEBUG|                   0.108892436300      0.000000000000      0.000000000000
 DEBUG|                   0.000000000000     -0.000005187508      0.000000000000
 DEBUG|                   0.000000000000      0.000000000000      0.063400170499

 DEBUG| Difference pv_virial [a.u.]
 DEBUG|                   0.000000000670     -0.000000002685     -0.000000000000
 DEBUG|                  -0.000000002685      0.000000004565     -0.000000000000
 DEBUG|                  -0.000000000000     -0.000000000000      0.000000002497
 DEBUG| Sum of differences                                        0.000000013103

 DEBUG| Relative error pv_virial
 DEBUG| Threshold value for error check [a.u.]                    1.00000000E-05
 DEBUG|                           0.00 %                 - %                 - %
 DEBUG|                              - %                 - %                 - %
 DEBUG|                              - %                 - %              0.00 %
 DEBUG| Maximum accepted error                                            0.20 %

 -------------------------------------------------------------------------------
 -                                                                             -
 -                                DBCSR STATISTICS                             -
 -                                                                             -
 -------------------------------------------------------------------------------
 COUNTER                                    TOTAL       BLAS       SMM       ACC
 flops     1 x     6 x     1                 3168     100.0%      0.0%      0.0%     
 flops     1 x     1 x     6                 5328     100.0%      0.0%      0.0%     
 flops     4 x     6 x     1                 6336     100.0%      0.0%      0.0%     
 flops     1 x     6 x     4                 6336     100.0%      0.0%      0.0%     
 flops     4 x     1 x     6                 7104     100.0%      0.0%      0.0%     
 flops     1 x     4 x     6                 7104     100.0%      0.0%      0.0%     
 flops     4 x     6 x     4                12672     100.0%      0.0%      0.0%     
 flops     4 x     4 x     6                28416     100.0%      0.0%      0.0%     
 flops inhomo. stacks                           0       0.0%      0.0%      0.0%
 flops total                        76.464000E+03     100.0%      0.0%      0.0%
 flops max/rank                     76.464000E+03     100.0%      0.0%      0.0%
 matmuls inhomo. stacks                         0       0.0%      0.0%      0.0%
 matmuls total                               1482     100.0%      0.0%      0.0%
 number of processed stacks                   856     100.0%      0.0%      0.0%
 average stack size                                     1.7       0.0       0.0
 marketing flops                    71.136000E+03
 -------------------------------------------------------------------------------
 # multiplications                            214
 max memory usage/rank               9.883439E+09
 # max total images/rank                        1
 # max 3D layers                                1
 # MPI messages exchanged                       0
 -------------------------------------------------------------------------------
 -                                                                             -
 -                      DBCSR MESSAGE PASSING PERFORMANCE                      -
 -                                                                             -
 -------------------------------------------------------------------------------
 ROUTINE             CALLS      AVE VOLUME [Bytes]
 MP_Bcast                9                     12.
 MP_Allreduce          973                      9.
 MP_Alltoall          5530                    254.
 MP_ISend              856                     79.
 MP_IRecv              856                     79.
 -------------------------------------------------------------------------------

 -------------------------------------------------------------------------------
 -                                                                             -
 -                          OFFLOAD MEMPOOL STATISTICS                         -
 -                                                                             -
 -------------------------------------------------------------------------------
 Memory consumption                Number of allocations  Used [MiB]  Size [MiB]
 Host                                                  1           0           0
 -------------------------------------------------------------------------------

 MEMORY| Estimated peak process memory [MiB]                                 123

 -------------------------------------------------------------------------------
 ----                             MULTIGRID INFO                            ----
 -------------------------------------------------------------------------------
 total grid count     :           420              cutoff [a.u.]            1.00

 -------------------------------------------------------------------------------
 -                                                                             -
 -                         MESSAGE PASSING PERFORMANCE                         -
 -                                                                             -
 -------------------------------------------------------------------------------

 ROUTINE             CALLS      AVE VOLUME [Bytes]
 MP_Group               20
 MP_Bcast              256                     26.
 MP_Allreduce         4237                     50.
 MP_Sync               148
 MP_comm_split         128
 -------------------------------------------------------------------------------


 -------------------------------------------------------------------------------
 -                                                                             -
 -                           R E F E R E N C E S                               -
 -                                                                             -
 -------------------------------------------------------------------------------
 
 CP2K version 2026.2 (Development Version), the CP2K developers group (2026).
 CP2K is freely available from https://www.cp2k.org/ .
 
 M. Iannuzzi, J. Wilhelm, F. Stein, A. Bussy, H. Elgabarty, D. Golze, A. Hehn, 
 M. Graml, S. Marek, B. Sertcan Gökmen, C. Schran, H. Forbert, R. Z. 
 Khaliullin, A. Kozhevnikov, M. Taillefumier, R. Meli, V. V. Rybkin, M. Brehm, 
 R. Schade, O. Schütt, J. V. Pototschnig, H. Mirhosseini, A. Knüpfer, D. Marx, 
 M. Krack, J. Hutter, T. D. Kühne.
 J. Phys. Chem. B 130, 1237-1310 (2026).
 The CP2K Program Package Made Simple.
 https://doi.org/10.1021/acs.jpcb.5c05851

 A. Katbashev, M. Stahn, T. Rose, V. Alizadeh, M. Friede, C. Plett, P. 
 Steinbach, S. Ehlert.
 J. Phys. Chem. A 129, 2667-2682 (2025).
 Overview on Building Blocks and Applications of Efficient and Robust Extended 
 Tight Binding.
 https://doi.org/10.1021/acs.jpca.4c08263

 T. D. Kühne, M. Iannuzzi, M. Del Ben, V. V. Rybkin, P. Seewald, F. Stein, T. 
 Laino, R. Z. Khaliullin, O. Schütt, F. Schiffmann, D. Golze, J. Wilhelm, S. 
 Chulkov, M. H. Bani-Hashemian, V. Weber, U. Borstnik, M. Taillefumier, A. S. 
 Jakobovits, A. Lazzaro, H. Pabst, T. Müller, R. Schade, M. Guidon, S. 
 Andermatt, N. Holmberg, G. K. Schenter, A. Hehn, A. Bussy, F. Belleflamme, G. 
 Tabacchi, A. Glöß, M. Lass, I. Bethune, C. J. Mundy, C. Plessl, M. Watkins, 
 J. VandeVondele, M. Krack, J. Hutter.
 J. Chem. Phys. 152, 194103 (2020).
 CP2K: An electronic structure and molecular dynamics software package - 
 Quickstep: Efficient and accurate electronic structure calculations.
 https://doi.org/10.1063/5.0007045

 P. Pracht, E. Caldeweyher, S. Ehlert, S. Grimme.
 ChemRxiv, (2019).
 A Robust Non-Self-Consistent Tight-Binding Quantum Chemistry Method for large 
 Molecules.
 https://doi.org/10.26434/chemrxiv.8326202.v1

 S. Grimme, C. Bannwarth, P. Shushkov.
 J. Chem. Theory Comput. 13, 1989 (2017).
 A Robust and Accurate Tight-Binding Quantum Chemical Method for Structures, 
 Vibrational Frequencies, and Noncovalent Interactions of Large Molecular 
 Systems Parametrized for All spd-Block Elements (Z = 1-86).
 https://doi.org/10.1021/acs.jctc.7b00118

 O. Schuett, P. Messmer, J. Hutter, J. VandeVondele.
 Electronic Structure Calculations on Graphics Processing Units, 173-190 (2016).
 GPU-Accelerated Sparse Matrix-Matrix Multiplication for Linear Scaling Density 
 Functional Theory.
 https://doi.org/10.1002/9781118670712.ch8

 U. Borstnik, J. VandeVondele, V. Weber, J. Hutter.
 Parallel Comput. 40, 47-58 (2014).
 Sparse matrix multiplication: The distributed block-compressed sparse row 
 library.
 https://doi.org/10.1016/j.parco.2014.03.012

 T. D. Kühne, M. Krack, F. R. Mohamed, M. Parrinello.
 Phys. Rev. Lett. 98, 066401 (2007).
 Efficient and accurate Car-Parrinello-like approach to Born-Oppenheimer 
 molecular dynamics.
 https://doi.org/10.1103/PhysRevLett.98.066401

 M. Frigo, S. G. Johnson.
 Proc. IEEE 93, 216-231 (2005).
 The design and implementation of FFTW3.
 https://doi.org/10.1109/JPROC.2004.840301

 J. Kolafa.
 J. Comput. Chem. 25, 335-342 (2004).
 Time-reversible always stable predictor-corrector method for molecular dynamics 
 of polarizable molecules.
 https://doi.org/10.1002/jcc.10385


 -------------------------------------------------------------------------------
 -                                                                             -
 -                                T I M I N G                                  -
 -                                                                             -
 -------------------------------------------------------------------------------
 SUBROUTINE                       CALLS  ASD         SELF TIME        TOTAL TIME
                                MAXIMUM       AVERAGE  MAXIMUM  AVERAGE  MAXIMUM
 CP2K                                 1  1.0    0.004    0.004    0.534    0.534
 qs_energies                         20  2.0    0.001    0.001    0.500    0.500
 tb_reference_cli_compare            20  3.0    0.218    0.218    0.218    0.218
 scf_env_do_scf                      20  3.0    0.000    0.000    0.130    0.130
 scf_env_do_scf_inner_loop          128  4.1    0.014    0.014    0.129    0.129
 qs_scf_new_mos                     128  5.1    0.002    0.002    0.093    0.093
 qs_env_rebuild_pw_env               22  3.1    0.000    0.000    0.089    0.089
 pw_env_rebuild                      20  4.0    0.001    0.001    0.088    0.088
 pw_grid_setup                       20  5.0    0.000    0.000    0.082    0.082
 pw_grid_setup_internal              20  6.0    0.003    0.003    0.082    0.082
 pw_grid_sort                        20  7.0    0.051    0.051    0.069    0.069
 calculate_dm_sparse                147  6.1    0.000    0.000    0.066    0.066
 cp_dbcsr_plus_fm_fm_t              148  7.1    0.001    0.001    0.066    0.066
 dbcsr_multiply_generic             214  8.0    0.004    0.004    0.062    0.062
 init_scf_run                        20  3.0    0.000    0.000    0.043    0.043
 scf_env_initial_rho_setup           20  4.0    0.000    0.000    0.039    0.039
 wfi_extrapolate                     20  5.0    0.001    0.001    0.039    0.039
 build_tblite_matrices               21  4.0    0.031    0.031    0.036    0.036
 qs_energies_init_hamiltonians       20  3.0    0.000    0.000    0.035    0.035
 qs_forces                            1  2.0    0.000    0.000    0.033    0.033
 make_m2s                           428  9.0    0.002    0.002    0.033    0.033
 dbcsr_complete_redistribute        576  8.2    0.010    0.010    0.026    0.026
 cp_dbcsr_sm_fm_multiply             66  6.0    0.000    0.000    0.025    0.025
 copy_dbcsr_to_fm                   214  6.2    0.001    0.001    0.025    0.025
 rebuild_ks_matrix                  148  5.8    0.000    0.000    0.019    0.019
 build_tblite_ks_matrix             148  6.8    0.016    0.016    0.019    0.019
 qs_ks_update_qs_env                147  4.8    0.000    0.000    0.018    0.018
 sort_shells                         20  8.1    0.018    0.018    0.018    0.018
 eigensolver                        128  6.1    0.005    0.005    0.018    0.018
 copy_fm_to_dbcsr                   362  7.9    0.001    0.001    0.018    0.018
 multiply_cannon                    214  9.0    0.009    0.009    0.015    0.015
 make_images                        428 10.0    0.004    0.004    0.015    0.015
 cp_dbcsr_sm_fm_multiply_core        66  7.0    0.000    0.000    0.013    0.013
 cp_fm_syevd                        128  7.1    0.000    0.000    0.012    0.012
 dbcsr_finalize                    3272  8.7    0.003    0.003    0.012    0.012
 dbcsr_create_new                  4826  9.3    0.008    0.008    0.011    0.011
 -------------------------------------------------------------------------------

 The number of warnings for this run is : 1
 
 -------------------------------------------------------------------------------
  **** **** ******  **  PROGRAM ENDED AT                 2026-07-21 16:08:09.792
 ***** ** ***  *** **   PROGRAM RAN ON                                     terok
 **    ****   ******    PROGRAM RAN BY                                  kuehne88
 ***** **    ** ** **   PROGRAM PROCESS ID                               1005678
  **** **  *******  **  PROGRAM STOPPED IN /home/kuehne88/work/h2o-molecular-lim
                                           it-20260721/stress_debug_8_50/raw/H2O
                                           _stress_L40
