 DBCSR| CPU Multiplication driver                                           XSMM (U)
 DBCSR| Multrec recursion limit                                              512 (U)
 DBCSR| Multiplication stack size                                           1000 (D)
 DBCSR| Maximum elements for images                                    UNLIMITED (U)
 DBCSR| Multiplicative factor virtual images                                   1 (U)
 DBCSR| Use multiplication densification                                       T (D)
 DBCSR| Multiplication size stacks                                             3 (U)
 DBCSR| Use memory pool for CPU allocation                                     F (U)
 DBCSR| Number of 3D layers                                               SINGLE (U)
 DBCSR| Use MPI memory allocation                                              F (U)
 DBCSR| Use RMA algorithm                                                      F (U)
 DBCSR| Use Communication thread                                               T (U)
 DBCSR| Communication thread load                                             87 (D)
 DBCSR| MPI: My process id                                                     0
 DBCSR| MPI: Number of processes                                               1
 DBCSR| OMP: Current number of threads                                         1
 DBCSR| OMP: Max number of threads                                             1
 DBCSR| Split modifier for TAS multiplication algorithm                  1.0E+00 (U)


  **** **** ******  **  PROGRAM STARTED AT               2026-05-23 22:46:49.228
 ***** ** ***  *** **   PROGRAM STARTED ON                            spark-c86c
 **    ****   ******    PROGRAM STARTED BY                              kuehne88
 ***** **    ** ** **   PROGRAM PROCESS ID                               2263982
  **** **  *******  **  PROGRAM STARTED IN /home/kuehne88/periodic-gfn2-benchmar
                                           ks/X23b/runs/cellopt_gamma/GFN1/ammon
                                           ia_GFN1_gamma_cellopt

 CP2K| version string:                 CP2K version 2026.1 (Development Version)
 CP2K| source code revision number:                                   0622d442e4
 CP2K| cp2kflags: omp fftw3 libxc parallel scalapack mpi_f08 xsmm spglib libdftd
 CP2K|            4 dftd4_v3 mctc-lib tblite
 CP2K| is freely available from                            https://www.cp2k.org/
 CP2K| Program compiled at                                   2026-05-23 22:05:08
 CP2K| Program compiled on                                            spark-c86c
 CP2K| Program compiled for                                              aarch64
 CP2K| Data directory path    /home/kuehne88/cp2k-master-tblite-20260523/install
 CP2K| Input file name                            ammonia_GFN1_gamma_cellopt.inp

 GLOBAL| Force Environment number                                              1
 GLOBAL| Basis set file name                                           BASIS_SET
 GLOBAL| Potential file name                                           POTENTIAL
 GLOBAL| MM Potential file name                                     MM_POTENTIAL
 GLOBAL| Coordinate file name                                      __STD_INPUT__
 GLOBAL| Method name                                                        CP2K
 GLOBAL| Project name                                ammonia_GFN1_gamma_cell_opt
 GLOBAL| Run type                                                       CELL_OPT
 GLOBAL| FFT library                                                       FFTW3
 GLOBAL| Diagonalization library                                       ScaLAPACK
 GLOBAL| Cholesky decomposition library                                ScaLAPACK
 GLOBAL| DGEMM library                                                      BLAS
 GLOBAL| Direct generalized diagonalization requested                          F
 GLOBAL| Orthonormality check for eigenvectors                          DISABLED
 GLOBAL| Matrix multiplication library                                 ScaLAPACK
 GLOBAL| All-to-all communication in single precision                          F
 GLOBAL| FFTs using library dependent lengths                                  F
 GLOBAL| Grid backend                                                       AUTO
 GLOBAL| Global print level                                                  LOW
 GLOBAL| MPI I/O enabled                                                       T
 GLOBAL| Total number of message passing processes                             1
 GLOBAL| Number of distributed systems (nodes)                                 1
 GLOBAL| Number of threads for this process                                    1
 GLOBAL| This output is from process                                           0
 GLOBAL| OpenMP stack size per thread (OMP_STACKSIZE)                    default
 GLOBAL| CPU model name                                                  UNKNOWN
 GLOBAL| CPUID                                                              2200
 GLOBAL| Compiled for CPUID                                                 2000

 *** HINT in environment.F:970 :: The compiler target flags (arm_arch64)   ***
 *** used to build this binary cannot exploit all extensions of this CPU   ***
 *** model (arm_sve256). Consider compiler target flags as part of FCFLAGS ***
 *** and CFLAGS (ARCH file).                                               ***


 MEMORY| system memory details [Kb]
 MEMORY|                        rank 0           min           max       average
 MEMORY| MemTotal            125508532     125508532     125508532     125508532
 MEMORY| MemFree             101572732     101572732     101572732     101572732
 MEMORY| Buffers                867392        867392        867392        867392
 MEMORY| Cached               13914472      13914472      13914472      13914472
 MEMORY| Slab                  1588484       1588484       1588484       1588484
 MEMORY| SReclaimable           910336        910336        910336        910336
 MEMORY| MemLikelyFree       117264932     117264932     117264932     117264932


 GENERATE|  Preliminary Number of Bonds generated:                             0
 GENERATE|  Achieved consistency in connectivity generation.


                  #####   #####        #     #   #     #       #          
                 #     # #     #      #    ##### #     #   # #####  ####  
                 #     # #           #       #   ###   #       #   #    # 
                 #     #  #####     #        #   #  #  #   #   #   ###### 
                 #   # #       #   #         #   #   # #   #   #   #      
                 #    #  #     #  #          #   #  #  # # #   #    #   # 
                  #### #  #####  #           #   ###   ##  #   #     ###  

                                   GFN1-xTB  
                                 Version 0.0                       
                            Johann V. Pototschnig                  



 TOTAL NUMBERS AND MAXIMUM NUMBERS

  Total number of            - Atomic kinds:                                   2
                             - Atoms:                                         16
                             - Shell sets:                                    32
                             - Shells:                                        32
                             - Primitive Cartesian functions:                180
                             - Cartesian basis functions:                     40
                             - Spherical basis functions:                     40

  Maximum angular momentum of the orbital basis functions:                     1


 SCF PARAMETERS         Density guess:                                     MOPAC
                        --------------------------------------------------------
                        max_scf:                                             300
                        max_scf_history:                                       0
                        max_diis:                                              4
                        --------------------------------------------------------
                        eps_scf:                                        1.00E-09
                        eps_scf_history:                                0.00E+00
                        eps_diis:                                       1.00E-01
                        eps_eigval:                                     1.00E-05
                        --------------------------------------------------------
                        level_shift [a.u.]:                             0.000000
                        added MOs                                        24    0
                        --------------------------------------------------------
                        Mixing method:                           DIRECT_P_MIXING
                        --------------------------------------------------------
                        Smear method:                                FERMI_DIRAC
                        Electronic temperature [K]:                        300.0
                        Electronic temperature [a.u.]:                  9.50E-04
                        Accuracy threshold:                             1.00E-06
                        --------------------------------------------------------
                        No outer SCF

 CELL_OPT| Pressure tolerance [bar]:                                       100.0
 CELL_OPT| Keep volume of cell:                                               NO
 CELL_OPT| Keep angles between the cell vectors:                              NO
 CELL_OPT| Keep cell symmetry:                                                NO
 CELL_OPT| Constraint:                                                      NONE

 BFGS| Use rational function optimization for step estimation:                NO
 BFGS| Use model Hessian for initial guess:                                   NO
 BFGS| Restart Hessian:                                                       NO
 BFGS| Trust radius:                                                       0.472

 *******************************************************************************
 ***                     STARTING   CELL   OPTIMIZATION                      ***
 ***                                   BFGS                                  ***
 *******************************************************************************

 CELL| Volume [angstrom^3]:                                           135.045176
 CELL| Vector a [angstrom]:       5.130     0.000     0.000   |a| =     5.130500
 CELL| Vector b [angstrom]:       0.000     5.130     0.000   |b| =     5.130500
 CELL| Vector c [angstrom]:       0.000     0.000     5.130   |c| =     5.130500
 CELL| Angle (b,c), alpha [degree]:                                    90.000000
 CELL| Angle (a,c), beta  [degree]:                                    90.000000
 CELL| Angle (a,b), gamma [degree]:                                    90.000000
 CELL| Numerically orthorhombic:                                             YES
 CELL| Periodicity                                                           XYZ

 Extrapolation method: initial_guess

 Number of electrons:                                                         32
 Number of occupied orbitals:                                                 16
 Number of molecular orbitals:                                                40

 Number of orbital functions:                                                 40
 Number of independent orbital functions:                                     40


 SCF WAVEFUNCTION OPTIMIZATION

  Step     Update method      Time    Convergence         Total energy    Change
  ------------------------------------------------------------------------------
     1 TBLite/Diag 0.40E+00    0.0     0.72792784       -19.2953786020 -1.93E+01
     2 TBLite/Diag 0.40E+00    0.0     0.06943508       -19.3470573661 -5.17E-02
     3 TBLite/Diag 0.40E+00    0.0     0.05161071       -19.3559290906 -8.87E-03
     4 TBLite/Diag 0.40E+00    0.0     0.00866032       -19.3563027759 -3.74E-04
     5 TBLite/Diag 0.40E+00    0.0     0.00010386       -19.3563028306 -5.47E-08
     6 TBLite/Diag 0.40E+00    0.0     0.00000016       -19.3563028306 -1.99E-13
     7 TBLite/Diag 0.40E+00    0.0     3.4985E-12       -19.3563028306 -1.07E-14

  *** SCF run converged in     7 steps ***


  Core Hamiltonian energy:                                    -19.68282596901110
  Repulsive potential energy:                                   0.26655670591232
  Electrostatic energy:                                         0.07766421512691
  Self-consistent dispersion energy:                            0.00000000000000
  Non-self consistent dispersion energy:                       -0.01769778263955
  Correction for halogen bonding:                               0.00000000000000
  Electronic entropic energy:                                  -0.00000000000000
  Fermi energy:                                                -0.21066084465438

  Total energy:                                               -19.35630283061142
  Total energy (extrapolated to T->0):                        -19.35630283061142

 ENERGY| Total FORCE_EVAL ( QS ) energy [hartree]            -19.356302830611416

 OPT| **************************************************************************
 OPT| Step number                                                              0
 OPT| Optimization method                                                   BFGS
 OPT| Total energy [hartree]                                      -19.3563028306
 OPT| Internal pressure [bar]                                   22761.9051647933
 OPT| Used time [s]                                                        0.176
 OPT| **************************************************************************
 OPT| Estimated peak process memory [MiB]                                    165

 --------------------------
 OPTIMIZATION STEP:      1
 --------------------------

 CELL| Volume [angstrom^3]:                                           135.349290
 CELL| Vector a [angstrom]:       5.134     0.000     0.000   |a| =     5.134348
 CELL| Vector b [angstrom]:       0.000     5.134     0.000   |b| =     5.134348
 CELL| Vector c [angstrom]:       0.000     0.000     5.134   |c| =     5.134348
 CELL| Angle (b,c), alpha [degree]:                                    90.000000
 CELL| Angle (a,c), beta  [degree]:                                    90.000000
 CELL| Angle (a,b), gamma [degree]:                                    90.000000
 CELL| Numerically orthorhombic:                                             YES
 CELL| Periodicity                                                           XYZ

 Extrapolation method: ASPC

 Number of electrons:                                                         32
 Number of occupied orbitals:                                                 16
 Number of molecular orbitals:                                                40

 Number of orbital functions:                                                 40
 Number of independent orbital functions:                                     40


 SCF WAVEFUNCTION OPTIMIZATION

  Step     Update method      Time    Convergence         Total energy    Change
  ------------------------------------------------------------------------------
     1 TBLite/Diag 0.40E+00    0.0     0.04458120       -19.3604032425 -1.94E+01
     2 TBLite/Diag 0.40E+00    0.0     0.00090144       -19.3604128909 -9.65E-06
     3 TBLite/Diag 0.40E+00    0.0     0.00068652       -19.3604143988 -1.51E-06
     4 TBLite/Diag 0.40E+00    0.0     0.00013803       -19.3604145011 -1.02E-07
     5 TBLite/Diag 0.40E+00    0.0     0.00000032       -19.3604145011 -5.36E-13
     6 TBLite/Diag 0.40E+00    0.0     1.1453E-12       -19.3604145011  1.78E-14

  *** SCF run converged in     6 steps ***


  Core Hamiltonian energy:                                    -19.65514361334473
  Repulsive potential energy:                                   0.23484553023028
  Electrostatic energy:                                         0.07753458031397
  Self-consistent dispersion energy:                            0.00000000000000
  Non-self consistent dispersion energy:                       -0.01765099827523
  Correction for halogen bonding:                               0.00000000000000
  Electronic entropic energy:                                  -0.00000000000000
  Fermi energy:                                                -0.21220204676727

  Total energy:                                               -19.36041450107572
  Total energy (extrapolated to T->0):                        -19.36041450107572

 ENERGY| Total FORCE_EVAL ( QS ) energy [hartree]            -19.360414501075720

 OPT| **************************************************************************
 OPT| Step number                                                              1
 OPT| Optimization method                                                   BFGS
 OPT| Total energy [hartree]                                      -19.3604145011
 OPT| Internal pressure [bar]                                   -6906.8937730741
 OPT| Effective energy change [hartree]                            -0.0041116705
 OPT| Predicted energy change [hartree]                            -0.0031405570
 OPT| Scaling factor                                                0.0000000000
 OPT| Step size                                                     0.0160505826
 OPT| Trust radius                                                  0.4724315332
 OPT| Decrease in energy                                                     YES
 OPT| Used time [s]                                                        0.177
 OPT|
 OPT| Maximum step size                                             0.0160505826
 OPT| Convergence limit for maximum step size                       0.0030000000
 OPT| Maximum step size is converged                                          NO
 OPT|
 OPT| RMS step size                                                 0.0107850326
 OPT| Convergence limit for RMS step size                           0.0015000000
 OPT| RMS step size is converged                                              NO
 OPT|
 OPT| Maximum gradient                                              0.0054091766
 OPT| Convergence limit for maximum gradient                        0.0004500000
 OPT| Maximum gradient is converged                                           NO
 OPT|
 OPT| RMS gradient                                                  0.0036773783
 OPT| Convergence limit for RMS gradient                            0.0003000000
 OPT| RMS gradient is converged                                               NO
 OPT|
 OPT| Pressure deviation [bar]                                  -6906.8937730741
 OPT| Pressure tolerance [bar]                                    100.0000000000
 OPT| Pressure is converged                                                   NO
 OPT| **************************************************************************
 OPT| Estimated peak process memory after this step [MiB]                    166

 --------------------------
 OPTIMIZATION STEP:      2
 --------------------------

 CELL| Volume [angstrom^3]:                                           135.222858
 CELL| Vector a [angstrom]:       5.133     0.000     0.000   |a| =     5.132749
 CELL| Vector b [angstrom]:       0.000     5.133     0.000   |b| =     5.132749
 CELL| Vector c [angstrom]:       0.000     0.000     5.133   |c| =     5.132749
 CELL| Angle (b,c), alpha [degree]:                                    90.000000
 CELL| Angle (a,c), beta  [degree]:                                    90.000000
 CELL| Angle (a,b), gamma [degree]:                                    90.000000
 CELL| Numerically orthorhombic:                                             YES
 CELL| Periodicity                                                           XYZ

 Extrapolation method: ASPC

 Number of electrons:                                                         32
 Number of occupied orbitals:                                                 16
 Number of molecular orbitals:                                                40

 Number of orbital functions:                                                 40
 Number of independent orbital functions:                                     40


 SCF WAVEFUNCTION OPTIMIZATION

  Step     Update method      Time    Convergence         Total energy    Change
  ------------------------------------------------------------------------------
     1 TBLite/Diag 0.40E+00    0.0     0.01898083       -19.3611094067 -1.94E+01
     2 TBLite/Diag 0.40E+00    0.0     0.00035388       -19.3611109079 -1.50E-06
     3 TBLite/Diag 0.40E+00    0.0     0.00026950       -19.3611111337 -2.26E-07
     4 TBLite/Diag 0.40E+00    0.0     0.00005801       -19.3611111521 -1.84E-08
     5 TBLite/Diag 0.40E+00    0.0     0.00000011       -19.3611111521 -1.42E-14
     6 TBLite/Diag 0.40E+00    0.0     1.0458E-13       -19.3611111521 -4.26E-14

  *** SCF run converged in     6 steps ***


  Core Hamiltonian energy:                                    -19.64232079595657
  Repulsive potential energy:                                   0.22141897390408
  Electrostatic energy:                                         0.07745596468260
  Self-consistent dispersion energy:                            0.00000000000000
  Non-self consistent dispersion energy:                       -0.01766529469654
  Correction for halogen bonding:                               0.00000000000000
  Electronic entropic energy:                                  -0.00000000000000
  Fermi energy:                                                -0.21275517084859

  Total energy:                                               -19.36111115206642
  Total energy (extrapolated to T->0):                        -19.36111115206642

 ENERGY| Total FORCE_EVAL ( QS ) energy [hartree]            -19.361111152066417

 OPT| **************************************************************************
 OPT| Step number                                                              2
 OPT| Optimization method                                                   BFGS
 OPT| Total energy [hartree]                                      -19.3611111521
 OPT| Internal pressure [bar]                                  -20500.9775638638
 OPT| Effective energy change [hartree]                            -0.0006966510
 OPT| Predicted energy change [hartree]                            -0.0005673633
 OPT| Scaling factor                                                0.0000000000
 OPT| Step size                                                     0.0084421892
 OPT| Trust radius                                                  0.4724315332
 OPT| Decrease in energy                                                     YES
 OPT| Used time [s]                                                        0.178
 OPT|
 OPT| Maximum step size                                             0.0084421892
 OPT| Convergence limit for maximum step size                       0.0030000000
 OPT| Maximum step size is converged                                          NO
 OPT|
 OPT| RMS step size                                                 0.0057154444
 OPT| Convergence limit for RMS step size                           0.0015000000
 OPT| RMS step size is converged                                              NO
 OPT|
 OPT| Maximum gradient                                              0.0065556354
 OPT| Convergence limit for maximum gradient                        0.0004500000
 OPT| Maximum gradient is converged                                           NO
 OPT|
 OPT| RMS gradient                                                  0.0018812166
 OPT| Convergence limit for RMS gradient                            0.0003000000
 OPT| RMS gradient is converged                                               NO
 OPT|
 OPT| Pressure deviation [bar]                                 -20500.9775638638
 OPT| Pressure tolerance [bar]                                    100.0000000000
 OPT| Pressure is converged                                                   NO
 OPT| **************************************************************************
 OPT| Estimated peak process memory after this step [MiB]                    166

 --------------------------
 OPTIMIZATION STEP:      3
 --------------------------

 CELL| Volume [angstrom^3]:                                           134.847570
 CELL| Vector a [angstrom]:       5.128     0.000     0.000   |a| =     5.127996
 CELL| Vector b [angstrom]:       0.000     5.128     0.000   |b| =     5.127996
 CELL| Vector c [angstrom]:       0.000     0.000     5.128   |c| =     5.127996
 CELL| Angle (b,c), alpha [degree]:                                    90.000000
 CELL| Angle (a,c), beta  [degree]:                                    90.000000
 CELL| Angle (a,b), gamma [degree]:                                    90.000000
 CELL| Numerically orthorhombic:                                             YES
 CELL| Periodicity                                                           XYZ

 Extrapolation method: ASPC

 Number of electrons:                                                         32
 Number of occupied orbitals:                                                 16
 Number of molecular orbitals:                                                40

 Number of orbital functions:                                                 40
 Number of independent orbital functions:                                     40


 SCF WAVEFUNCTION OPTIMIZATION

  Step     Update method      Time    Convergence         Total energy    Change
  ------------------------------------------------------------------------------
     1 TBLite/Diag 0.40E+00    0.0     0.00388718       -19.3613898328 -1.94E+01
     2 TBLite/Diag 0.40E+00    0.0     0.00002716       -19.3613898416 -8.85E-09
     3 TBLite/Diag 0.40E+00    0.0     0.00002336       -19.3613898428 -1.15E-09
     4 TBLite/Diag 0.40E+00    0.0     0.00000719       -19.3613898431 -2.82E-10
     5 TBLite/Diag 0.40E+00    0.0     7.1349E-10       -19.3613898431 -3.91E-14

  *** SCF run converged in     5 steps ***


  Core Hamiltonian energy:                                    -19.63882164537363
  Repulsive potential energy:                                   0.21771920183271
  Electrostatic energy:                                         0.07742758649566
  Self-consistent dispersion energy:                            0.00000000000000
  Non-self consistent dispersion energy:                       -0.01771498600607
  Correction for halogen bonding:                               0.00000000000000
  Electronic entropic energy:                                  -0.00000000000000
  Fermi energy:                                                -0.21265980883963

  Total energy:                                               -19.36138984305133
  Total energy (extrapolated to T->0):                        -19.36138984305133

 ENERGY| Total FORCE_EVAL ( QS ) energy [hartree]            -19.361389843051334

 OPT| **************************************************************************
 OPT| Step number                                                              3
 OPT| Optimization method                                                   BFGS
 OPT| Total energy [hartree]                                      -19.3613898431
 OPT| Internal pressure [bar]                                  -25152.7725164525
 OPT| Effective energy change [hartree]                            -0.0002786910
 OPT| Predicted energy change [hartree]                            -0.0001591351
 OPT| Scaling factor                                                0.0000000000
 OPT| Step size                                                     0.0089814108
 OPT| Trust radius                                                  0.4724315332
 OPT| Decrease in energy                                                     YES
 OPT| Used time [s]                                                        0.177
 OPT|
 OPT| Maximum step size                                             0.0089814108
 OPT| Convergence limit for maximum step size                       0.0030000000
 OPT| Maximum step size is converged                                          NO
 OPT|
 OPT| RMS step size                                                 0.0035393205
 OPT| Convergence limit for RMS step size                           0.0015000000
 OPT| RMS step size is converged                                              NO
 OPT|
 OPT| Maximum gradient                                              0.0080282600
 OPT| Convergence limit for maximum gradient                        0.0004500000
 OPT| Maximum gradient is converged                                           NO
 OPT|
 OPT| RMS gradient                                                  0.0021298189
 OPT| Convergence limit for RMS gradient                            0.0003000000
 OPT| RMS gradient is converged                                               NO
 OPT|
 OPT| Pressure deviation [bar]                                 -25152.7725164525
 OPT| Pressure tolerance [bar]                                    100.0000000000
 OPT| Pressure is converged                                                   NO
 OPT| **************************************************************************
 OPT| Estimated peak process memory after this step [MiB]                    166

 --------------------------
 OPTIMIZATION STEP:      4
 --------------------------

 CELL| Volume [angstrom^3]:                                           132.412910
 CELL| Vector a [angstrom]:       5.097     0.000     0.000   |a| =     5.096947
 CELL| Vector b [angstrom]:       0.000     5.097     0.000   |b| =     5.096947
 CELL| Vector c [angstrom]:       0.000     0.000     5.097   |c| =     5.096947
 CELL| Angle (b,c), alpha [degree]:                                    90.000000
 CELL| Angle (a,c), beta  [degree]:                                    90.000000
 CELL| Angle (a,b), gamma [degree]:                                    90.000000
 CELL| Numerically orthorhombic:                                             YES
 CELL| Periodicity                                                           XYZ

 Extrapolation method: ASPC

 Number of electrons:                                                         32
 Number of occupied orbitals:                                                 16
 Number of molecular orbitals:                                                40

 Number of orbital functions:                                                 40
 Number of independent orbital functions:                                     40


 SCF WAVEFUNCTION OPTIMIZATION

  Step     Update method      Time    Convergence         Total energy    Change
  ------------------------------------------------------------------------------
     1 TBLite/Diag 0.40E+00    0.0     0.01129546       -19.3626400376 -1.94E+01
     2 TBLite/Diag 0.40E+00    0.0     0.00027456       -19.3626409302 -8.93E-07
     3 TBLite/Diag 0.40E+00    0.0     0.00016242       -19.3626410762 -1.46E-07
     4 TBLite/Diag 0.40E+00    0.0     0.00000226       -19.3626410762 -2.73E-11
     5 TBLite/Diag 0.40E+00    0.0     7.1941E-10       -19.3626410762  2.13E-14

  *** SCF run converged in     5 steps ***


  Core Hamiltonian energy:                                    -19.62982026680596
  Repulsive potential energy:                                   0.20788772558751
  Electrostatic energy:                                         0.07733771301079
  Self-consistent dispersion energy:                            0.00000000000000
  Non-self consistent dispersion energy:                       -0.01804624802012
  Correction for halogen bonding:                               0.00000000000000
  Electronic entropic energy:                                  -0.00000000000000
  Fermi energy:                                                -0.21122800315276

  Total energy:                                               -19.36264107622778
  Total energy (extrapolated to T->0):                        -19.36264107622778

 ENERGY| Total FORCE_EVAL ( QS ) energy [hartree]            -19.362641076227778

 OPT| **************************************************************************
 OPT| Step number                                                              4
 OPT| Optimization method                                                   BFGS
 OPT| Total energy [hartree]                                      -19.3626410762
 OPT| Internal pressure [bar]                                  -40780.3591321527
 OPT| Effective energy change [hartree]                            -0.0012512332
 OPT| Predicted energy change [hartree]                            -0.0008097339
 OPT| Scaling factor                                                0.0000000000
 OPT| Step size                                                     0.0586749514
 OPT| Trust radius                                                  0.4724315332
 OPT| Decrease in energy                                                     YES
 OPT| Used time [s]                                                        0.179
 OPT|
 OPT| Maximum step size                                             0.0586749514
 OPT| Convergence limit for maximum step size                       0.0030000000
 OPT| Maximum step size is converged                                          NO
 OPT|
 OPT| RMS step size                                                 0.0190474373
 OPT| Convergence limit for RMS step size                           0.0015000000
 OPT| RMS step size is converged                                              NO
 OPT|
 OPT| Maximum gradient                                              0.0128591249
 OPT| Convergence limit for maximum gradient                        0.0004500000
 OPT| Maximum gradient is converged                                           NO
 OPT|
 OPT| RMS gradient                                                  0.0041953721
 OPT| Convergence limit for RMS gradient                            0.0003000000
 OPT| RMS gradient is converged                                               NO
 OPT|
 OPT| Pressure deviation [bar]                                 -40780.3591321527
 OPT| Pressure tolerance [bar]                                    100.0000000000
 OPT| Pressure is converged                                                   NO
 OPT| **************************************************************************
 OPT| Estimated peak process memory after this step [MiB]                    167

 --------------------------
 OPTIMIZATION STEP:      5
 --------------------------

 CELL| Volume [angstrom^3]:                                           127.082598
 CELL| Vector a [angstrom]:       5.028     0.000     0.000   |a| =     5.027615
 CELL| Vector b [angstrom]:       0.000     5.028     0.000   |b| =     5.027615
 CELL| Vector c [angstrom]:       0.000     0.000     5.028   |c| =     5.027615
 CELL| Angle (b,c), alpha [degree]:                                    90.000000
 CELL| Angle (a,c), beta  [degree]:                                    90.000000
 CELL| Angle (a,b), gamma [degree]:                                    90.000000
 CELL| Numerically orthorhombic:                                             YES
 CELL| Periodicity                                                           XYZ

 Extrapolation method: ASPC

 Number of electrons:                                                         32
 Number of occupied orbitals:                                                 16
 Number of molecular orbitals:                                                40

 Number of orbital functions:                                                 40
 Number of independent orbital functions:                                     40


 SCF WAVEFUNCTION OPTIMIZATION

  Step     Update method      Time    Convergence         Total energy    Change
  ------------------------------------------------------------------------------
     1 TBLite/Diag 0.40E+00    0.0     0.02447675       -19.3648181142 -1.94E+01
     2 TBLite/Diag 0.40E+00    0.0     0.00116785       -19.3648338420 -1.57E-05
     3 TBLite/Diag 0.40E+00    0.0     0.00075138       -19.3648365617 -2.72E-06
     4 TBLite/Diag 0.40E+00    0.0     0.00002296       -19.3648365645 -2.78E-09
     5 TBLite/Diag 0.40E+00    0.0     0.00000033       -19.3648365645 -5.33E-13
     6 TBLite/Diag 0.40E+00    0.0     3.2241E-13       -19.3648365645  1.78E-14

  *** SCF run converged in     6 steps ***


  Core Hamiltonian energy:                                    -19.62251993168648
  Repulsive potential energy:                                   0.19927137750557
  Electrostatic energy:                                         0.07722712266858
  Self-consistent dispersion energy:                            0.00000000000000
  Non-self consistent dispersion energy:                       -0.01881513302285
  Correction for halogen bonding:                               0.00000000000000
  Electronic entropic energy:                                  -0.00000000000000
  Fermi energy:                                                -0.20673602408147

  Total energy:                                               -19.36483656453519
  Total energy (extrapolated to T->0):                        -19.36483656453519

 ENERGY| Total FORCE_EVAL ( QS ) energy [hartree]            -19.364836564535185

 OPT| **************************************************************************
 OPT| Step number                                                              5
 OPT| Optimization method                                                   BFGS
 OPT| Total energy [hartree]                                      -19.3648365645
 OPT| Internal pressure [bar]                                  -58909.1055503333
 OPT| Effective energy change [hartree]                            -0.0021954883
 OPT| Predicted energy change [hartree]                            -0.0013806964
 OPT| Scaling factor                                                0.0000000000
 OPT| Step size                                                     0.1310180039
 OPT| Trust radius                                                  0.4724315332
 OPT| Decrease in energy                                                     YES
 OPT| Used time [s]                                                        0.188
 OPT|
 OPT| Maximum step size                                             0.1310180039
 OPT| Convergence limit for maximum step size                       0.0030000000
 OPT| Maximum step size is converged                                          NO
 OPT|
 OPT| RMS step size                                                 0.0388241130
 OPT| Convergence limit for RMS step size                           0.0015000000
 OPT| RMS step size is converged                                              NO
 OPT|
 OPT| Maximum gradient                                              0.0180736819
 OPT| Convergence limit for maximum gradient                        0.0004500000
 OPT| Maximum gradient is converged                                           NO
 OPT|
 OPT| RMS gradient                                                  0.0069940873
 OPT| Convergence limit for RMS gradient                            0.0003000000
 OPT| RMS gradient is converged                                               NO
 OPT|
 OPT| Pressure deviation [bar]                                 -58909.1055503333
 OPT| Pressure tolerance [bar]                                    100.0000000000
 OPT| Pressure is converged                                                   NO
 OPT| **************************************************************************
 OPT| Estimated peak process memory after this step [MiB]                    167

 --------------------------
 OPTIMIZATION STEP:      6
 --------------------------

 CELL| Volume [angstrom^3]:                                           118.777665
 CELL| Vector a [angstrom]:       4.916     0.000     0.000   |a| =     4.915620
 CELL| Vector b [angstrom]:       0.000     4.916     0.000   |b| =     4.915620
 CELL| Vector c [angstrom]:       0.000     0.000     4.916   |c| =     4.915620
 CELL| Angle (b,c), alpha [degree]:                                    90.000000
 CELL| Angle (a,c), beta  [degree]:                                    90.000000
 CELL| Angle (a,b), gamma [degree]:                                    90.000000
 CELL| Numerically orthorhombic:                                             YES
 CELL| Periodicity                                                           XYZ

 Extrapolation method: ASPC

 Number of electrons:                                                         32
 Number of occupied orbitals:                                                 16
 Number of molecular orbitals:                                                40

 Number of orbital functions:                                                 40
 Number of independent orbital functions:                                     40


 SCF WAVEFUNCTION OPTIMIZATION

  Step     Update method      Time    Convergence         Total energy    Change
  ------------------------------------------------------------------------------
     1 TBLite/Diag 0.40E+00    0.0     0.03666908       -19.3678501385 -1.94E+01
     2 TBLite/Diag 0.40E+00    0.0     0.00222813       -19.3679053175 -5.52E-05
     3 TBLite/Diag 0.40E+00    0.0     0.00157622       -19.3679160182 -1.07E-05
     4 TBLite/Diag 0.40E+00    0.0     0.00007001       -19.3679160420 -2.38E-08
     5 TBLite/Diag 0.40E+00    0.0     0.00000084       -19.3679160420 -3.30E-12
     6 TBLite/Diag 0.40E+00    0.0     1.2284E-12       -19.3679160420 -1.78E-14

  *** SCF run converged in     6 steps ***


  Core Hamiltonian energy:                                    -19.62283545017742
  Repulsive potential energy:                                   0.19796128325130
  Electrostatic energy:                                         0.07710106146659
  Self-consistent dispersion energy:                            0.00000000000000
  Non-self consistent dispersion energy:                       -0.02014293652845
  Correction for halogen bonding:                               0.00000000000000
  Electronic entropic energy:                                  -0.00000000000000
  Fermi energy:                                                -0.19676630618169

  Total energy:                                               -19.36791604198798
  Total energy (extrapolated to T->0):                        -19.36791604198798

 ENERGY| Total FORCE_EVAL ( QS ) energy [hartree]            -19.367916041987982

 OPT| **************************************************************************
 OPT| Step number                                                              6
 OPT| Optimization method                                                   BFGS
 OPT| Total energy [hartree]                                      -19.3679160420
 OPT| Internal pressure [bar]                                  -60348.8251288289
 OPT| Effective energy change [hartree]                            -0.0030794775
 OPT| Predicted energy change [hartree]                            -0.0020115505
 OPT| Scaling factor                                                0.0000000000
 OPT| Step size                                                     0.2116411019
 OPT| Trust radius                                                  0.4724315332
 OPT| Decrease in energy                                                     YES
 OPT| Used time [s]                                                        0.195
 OPT|
 OPT| Maximum step size                                             0.2116411019
 OPT| Convergence limit for maximum step size                       0.0030000000
 OPT| Maximum step size is converged                                          NO
 OPT|
 OPT| RMS step size                                                 0.0588615515
 OPT| Convergence limit for RMS step size                           0.0015000000
 OPT| RMS step size is converged                                              NO
 OPT|
 OPT| Maximum gradient                                              0.0176996831
 OPT| Convergence limit for maximum gradient                        0.0004500000
 OPT| Maximum gradient is converged                                           NO
 OPT|
 OPT| RMS gradient                                                  0.0081967640
 OPT| Convergence limit for RMS gradient                            0.0003000000
 OPT| RMS gradient is converged                                               NO
 OPT|
 OPT| Pressure deviation [bar]                                 -60348.8251288289
 OPT| Pressure tolerance [bar]                                    100.0000000000
 OPT| Pressure is converged                                                   NO
 OPT| **************************************************************************
 OPT| Estimated peak process memory after this step [MiB]                    167

 --------------------------
 OPTIMIZATION STEP:      7
 --------------------------

 CELL| Volume [angstrom^3]:                                           116.396934
 CELL| Vector a [angstrom]:       4.883     0.000     0.000   |a| =     4.882555
 CELL| Vector b [angstrom]:       0.000     4.883     0.000   |b| =     4.882555
 CELL| Vector c [angstrom]:       0.000     0.000     4.883   |c| =     4.882555
 CELL| Angle (b,c), alpha [degree]:                                    90.000000
 CELL| Angle (a,c), beta  [degree]:                                    90.000000
 CELL| Angle (a,b), gamma [degree]:                                    90.000000
 CELL| Numerically orthorhombic:                                             YES
 CELL| Periodicity                                                           XYZ

 Extrapolation method: ASPC

 Number of electrons:                                                         32
 Number of occupied orbitals:                                                 16
 Number of molecular orbitals:                                                40

 Number of orbital functions:                                                 40
 Number of independent orbital functions:                                     40


 SCF WAVEFUNCTION OPTIMIZATION

  Step     Update method      Time    Convergence         Total energy    Change
  ------------------------------------------------------------------------------
     1 TBLite/Diag 0.40E+00    0.0     0.01606621       -19.3701301237 -1.94E+01
     2 TBLite/Diag 0.40E+00    0.0     0.00077902       -19.3701368201 -6.70E-06
     3 TBLite/Diag 0.40E+00    0.0     0.00059981       -19.3701381718 -1.35E-06
     4 TBLite/Diag 0.40E+00    0.0     0.00005474       -19.3701381858 -1.40E-08
     5 TBLite/Diag 0.40E+00    0.0     0.00000027       -19.3701381858 -3.20E-13
     6 TBLite/Diag 0.40E+00    0.0     1.8630E-13       -19.3701381858  3.55E-15

  *** SCF run converged in     6 steps ***


  Core Hamiltonian energy:                                    -19.63557269702046
  Repulsive potential energy:                                   0.20911245308853
  Electrostatic energy:                                         0.07688134351388
  Self-consistent dispersion energy:                            0.00000000000000
  Non-self consistent dispersion energy:                       -0.02055928536977
  Correction for halogen bonding:                               0.00000000000000
  Electronic entropic energy:                                  -0.00000000000000
  Fermi energy:                                                -0.19253880327883

  Total energy:                                               -19.37013818578782
  Total energy (extrapolated to T->0):                        -19.37013818578782

 ENERGY| Total FORCE_EVAL ( QS ) energy [hartree]            -19.370138185787816

 OPT| **************************************************************************
 OPT| Step number                                                              7
 OPT| Optimization method                                                   BFGS
 OPT| Total energy [hartree]                                      -19.3701381858
 OPT| Internal pressure [bar]                                  -40571.1121883410
 OPT| Effective energy change [hartree]                            -0.0022221438
 OPT| Predicted energy change [hartree]                            -0.0013414128
 OPT| Scaling factor                                                0.0000000000
 OPT| Step size                                                     0.0624821328
 OPT| Trust radius                                                  0.4724315332
 OPT| Decrease in energy                                                     YES
 OPT| Used time [s]                                                        0.197
 OPT|
 OPT| Maximum step size                                             0.0624821328
 OPT| Convergence limit for maximum step size                       0.0030000000
 OPT| Maximum step size is converged                                          NO
 OPT|
 OPT| RMS step size                                                 0.0150024158
 OPT| Convergence limit for RMS step size                           0.0015000000
 OPT| RMS step size is converged                                              NO
 OPT|
 OPT| Maximum gradient                                              0.0117395493
 OPT| Convergence limit for maximum gradient                        0.0004500000
 OPT| Maximum gradient is converged                                           NO
 OPT|
 OPT| RMS gradient                                                  0.0057194020
 OPT| Convergence limit for RMS gradient                            0.0003000000
 OPT| RMS gradient is converged                                               NO
 OPT|
 OPT| Pressure deviation [bar]                                 -40571.1121883410
 OPT| Pressure tolerance [bar]                                    100.0000000000
 OPT| Pressure is converged                                                   NO
 OPT| **************************************************************************
 OPT| Estimated peak process memory after this step [MiB]                    167

 --------------------------
 OPTIMIZATION STEP:      8
 --------------------------

 CELL| Volume [angstrom^3]:                                           116.237524
 CELL| Vector a [angstrom]:       4.880     0.000     0.000   |a| =     4.880325
 CELL| Vector b [angstrom]:       0.000     4.880     0.000   |b| =     4.880325
 CELL| Vector c [angstrom]:       0.000     0.000     4.880   |c| =     4.880325
 CELL| Angle (b,c), alpha [degree]:                                    90.000000
 CELL| Angle (a,c), beta  [degree]:                                    90.000000
 CELL| Angle (a,b), gamma [degree]:                                    90.000000
 CELL| Numerically orthorhombic:                                             YES
 CELL| Periodicity                                                           XYZ

 Extrapolation method: ASPC

 Number of electrons:                                                         32
 Number of occupied orbitals:                                                 16
 Number of molecular orbitals:                                                40

 Number of orbital functions:                                                 40
 Number of independent orbital functions:                                     40


 SCF WAVEFUNCTION OPTIMIZATION

  Step     Update method      Time    Convergence         Total energy    Change
  ------------------------------------------------------------------------------
     1 TBLite/Diag 0.40E+00    0.0     0.02508757       -19.3720548294 -1.94E+01
     2 TBLite/Diag 0.40E+00    0.0     0.00047733       -19.3720573736 -2.54E-06
     3 TBLite/Diag 0.40E+00    0.0     0.00040600       -19.3720579013 -5.28E-07
     4 TBLite/Diag 0.40E+00    0.0     0.00006032       -19.3720579181 -1.68E-08
     5 TBLite/Diag 0.40E+00    0.0     0.00000021       -19.3720579181 -2.10E-13
     6 TBLite/Diag 0.40E+00    0.0     3.6815E-13       -19.3720579181  3.55E-15

  *** SCF run converged in     6 steps ***


  Core Hamiltonian energy:                                    -19.66499220172246
  Repulsive potential energy:                                   0.23736745618044
  Electrostatic energy:                                         0.07616168935191
  Self-consistent dispersion energy:                            0.00000000000000
  Non-self consistent dispersion energy:                       -0.02059486188665
  Correction for halogen bonding:                               0.00000000000000
  Electronic entropic energy:                                  -0.00000000000000
  Fermi energy:                                                -0.19064075536965

  Total energy:                                               -19.37205791807676
  Total energy (extrapolated to T->0):                        -19.37205791807676

 ENERGY| Total FORCE_EVAL ( QS ) energy [hartree]            -19.372057918076759

 OPT| **************************************************************************
 OPT| Step number                                                              8
 OPT| Optimization method                                                   BFGS
 OPT| Total energy [hartree]                                      -19.3720579181
 OPT| Internal pressure [bar]                                   -3953.6413327708
 OPT| Effective energy change [hartree]                            -0.0019197323
 OPT| Predicted energy change [hartree]                            -0.0023259498
 OPT| Scaling factor                                                0.0000000000
 OPT| Step size                                                     0.0297134655
 OPT| Trust radius                                                  0.4724315332
 OPT| Decrease in energy                                                     YES
 OPT| Used time [s]                                                        0.197
 OPT|
 OPT| Maximum step size                                             0.0297134655
 OPT| Convergence limit for maximum step size                       0.0030000000
 OPT| Maximum step size is converged                                          NO
 OPT|
 OPT| RMS step size                                                 0.0167565415
 OPT| Convergence limit for RMS step size                           0.0015000000
 OPT| RMS step size is converged                                              NO
 OPT|
 OPT| Maximum gradient                                              0.0052286919
 OPT| Convergence limit for maximum gradient                        0.0004500000
 OPT| Maximum gradient is converged                                           NO
 OPT|
 OPT| RMS gradient                                                  0.0034545906
 OPT| Convergence limit for RMS gradient                            0.0003000000
 OPT| RMS gradient is converged                                               NO
 OPT|
 OPT| Pressure deviation [bar]                                  -3953.6413327708
 OPT| Pressure tolerance [bar]                                    100.0000000000
 OPT| Pressure is converged                                                   NO
 OPT| **************************************************************************
 OPT| Estimated peak process memory after this step [MiB]                    167

 --------------------------
 OPTIMIZATION STEP:      9
 --------------------------

 CELL| Volume [angstrom^3]:                                           113.933945
 CELL| Vector a [angstrom]:       4.848     0.000     0.000   |a| =     4.847871
 CELL| Vector b [angstrom]:       0.000     4.848     0.000   |b| =     4.847871
 CELL| Vector c [angstrom]:       0.000     0.000     4.848   |c| =     4.847871
 CELL| Angle (b,c), alpha [degree]:                                    90.000000
 CELL| Angle (a,c), beta  [degree]:                                    90.000000
 CELL| Angle (a,b), gamma [degree]:                                    90.000000
 CELL| Numerically orthorhombic:                                             YES
 CELL| Periodicity                                                           XYZ

 Extrapolation method: ASPC

 Number of electrons:                                                         32
 Number of occupied orbitals:                                                 16
 Number of molecular orbitals:                                                40

 Number of orbital functions:                                                 40
 Number of independent orbital functions:                                     40


 SCF WAVEFUNCTION OPTIMIZATION

  Step     Update method      Time    Convergence         Total energy    Change
  ------------------------------------------------------------------------------
     1 TBLite/Diag 0.40E+00    0.0     0.00597802       -19.3725489100 -1.94E+01
     2 TBLite/Diag 0.40E+00    0.0     0.00030677       -19.3725499638 -1.05E-06
     3 TBLite/Diag 0.40E+00    0.0     0.00022267       -19.3725501923 -2.28E-07
     4 TBLite/Diag 0.40E+00    0.0     0.00000136       -19.3725501923 -8.74E-12
     5 TBLite/Diag 0.40E+00    0.0     0.00000002       -19.3725501923  1.03E-13
     6 TBLite/Diag 0.40E+00    0.0     4.3077E-14       -19.3725501923 -2.49E-14

  *** SCF run converged in     6 steps ***


  Core Hamiltonian energy:                                    -19.66342273134646
  Repulsive potential energy:                                   0.23570918188924
  Electrostatic energy:                                         0.07617518034988
  Self-consistent dispersion energy:                            0.00000000000000
  Non-self consistent dispersion energy:                       -0.02101182316881
  Correction for halogen bonding:                               0.00000000000000
  Electronic entropic energy:                                  -0.00000000000000
  Fermi energy:                                                -0.18715338900432

  Total energy:                                               -19.37255019227615
  Total energy (extrapolated to T->0):                        -19.37255019227615

 ENERGY| Total FORCE_EVAL ( QS ) energy [hartree]            -19.372550192276154

 OPT| **************************************************************************
 OPT| Step number                                                              9
 OPT| Optimization method                                                   BFGS
 OPT| Total energy [hartree]                                      -19.3725501923
 OPT| Internal pressure [bar]                                    3958.2590611040
 OPT| Effective energy change [hartree]                            -0.0004922742
 OPT| Predicted energy change [hartree]                            -0.0004153253
 OPT| Scaling factor                                                0.0000000000
 OPT| Step size                                                     0.0613301957
 OPT| Trust radius                                                  0.4724315332
 OPT| Decrease in energy                                                     YES
 OPT| Used time [s]                                                        0.199
 OPT|
 OPT| Maximum step size                                             0.0613301957
 OPT| Convergence limit for maximum step size                       0.0030000000
 OPT| Maximum step size is converged                                          NO
 OPT|
 OPT| RMS step size                                                 0.0160713754
 OPT| Convergence limit for RMS step size                           0.0015000000
 OPT| RMS step size is converged                                              NO
 OPT|
 OPT| Maximum gradient                                              0.0048926707
 OPT| Convergence limit for maximum gradient                        0.0004500000
 OPT| Maximum gradient is converged                                           NO
 OPT|
 OPT| RMS gradient                                                  0.0031812690
 OPT| Convergence limit for RMS gradient                            0.0003000000
 OPT| RMS gradient is converged                                               NO
 OPT|
 OPT| Pressure deviation [bar]                                   3958.2590611040
 OPT| Pressure tolerance [bar]                                    100.0000000000
 OPT| Pressure is converged                                                   NO
 OPT| **************************************************************************
 OPT| Estimated peak process memory after this step [MiB]                    167

 --------------------------
 OPTIMIZATION STEP:     10
 --------------------------

 CELL| Volume [angstrom^3]:                                           113.068168
 CELL| Vector a [angstrom]:       4.836     0.000     0.000   |a| =     4.835560
 CELL| Vector b [angstrom]:       0.000     4.836     0.000   |b| =     4.835560
 CELL| Vector c [angstrom]:       0.000     0.000     4.836   |c| =     4.835560
 CELL| Angle (b,c), alpha [degree]:                                    90.000000
 CELL| Angle (a,c), beta  [degree]:                                    90.000000
 CELL| Angle (a,b), gamma [degree]:                                    90.000000
 CELL| Numerically orthorhombic:                                             YES
 CELL| Periodicity                                                           XYZ

 Extrapolation method: ASPC

 Number of electrons:                                                         32
 Number of occupied orbitals:                                                 16
 Number of molecular orbitals:                                                40

 Number of orbital functions:                                                 40
 Number of independent orbital functions:                                     40


 SCF WAVEFUNCTION OPTIMIZATION

  Step     Update method      Time    Convergence         Total energy    Change
  ------------------------------------------------------------------------------
     1 TBLite/Diag 0.40E+00    0.0     0.01954136       -19.3732172072 -1.94E+01
     2 TBLite/Diag 0.40E+00    0.0     0.00013000       -19.3732174004 -1.93E-07
     3 TBLite/Diag 0.40E+00    0.0     0.00012761       -19.3732174367 -3.63E-08
     4 TBLite/Diag 0.40E+00    0.0     0.00003305       -19.3732174419 -5.15E-09
     5 TBLite/Diag 0.40E+00    0.0     0.00000015       -19.3732174419 -1.63E-13
     6 TBLite/Diag 0.40E+00    0.0     1.9162E-13       -19.3732174419  2.49E-14

  *** SCF run converged in     6 steps ***


  Core Hamiltonian energy:                                    -19.65684934621391
  Repulsive potential energy:                                   0.22864324050550
  Electrostatic energy:                                         0.07616123462970
  Self-consistent dispersion energy:                            0.00000000000000
  Non-self consistent dispersion energy:                       -0.02117257078666
  Correction for halogen bonding:                               0.00000000000000
  Electronic entropic energy:                                  -0.00000000000000
  Fermi energy:                                                -0.18615782105057

  Total energy:                                               -19.37321744186538
  Total energy (extrapolated to T->0):                        -19.37321744186538

 ENERGY| Total FORCE_EVAL ( QS ) energy [hartree]            -19.373217441865378

 OPT| **************************************************************************
 OPT| Step number                                                             10
 OPT| Optimization method                                                   BFGS
 OPT| Total energy [hartree]                                      -19.3732174419
 OPT| Internal pressure [bar]                                     834.2327897522
 OPT| Effective energy change [hartree]                            -0.0006672496
 OPT| Predicted energy change [hartree]                            -0.0004894778
 OPT| Scaling factor                                                0.0000000000
 OPT| Step size                                                     0.0232640265
 OPT| Trust radius                                                  0.4724315332
 OPT| Decrease in energy                                                     YES
 OPT| Used time [s]                                                        0.201
 OPT|
 OPT| Maximum step size                                             0.0232640265
 OPT| Convergence limit for maximum step size                       0.0030000000
 OPT| Maximum step size is converged                                          NO
 OPT|
 OPT| RMS step size                                                 0.0082817447
 OPT| Convergence limit for RMS step size                           0.0015000000
 OPT| RMS step size is converged                                              NO
 OPT|
 OPT| Maximum gradient                                              0.0025800503
 OPT| Convergence limit for maximum gradient                        0.0004500000
 OPT| Maximum gradient is converged                                           NO
 OPT|
 OPT| RMS gradient                                                  0.0018488614
 OPT| Convergence limit for RMS gradient                            0.0003000000
 OPT| RMS gradient is converged                                               NO
 OPT|
 OPT| Pressure deviation [bar]                                    834.2327897522
 OPT| Pressure tolerance [bar]                                    100.0000000000
 OPT| Pressure is converged                                                   NO
 OPT| **************************************************************************
 OPT| Estimated peak process memory after this step [MiB]                    167

 --------------------------
 OPTIMIZATION STEP:     11
 --------------------------

 CELL| Volume [angstrom^3]:                                           112.745825
 CELL| Vector a [angstrom]:       4.831     0.000     0.000   |a| =     4.830961
 CELL| Vector b [angstrom]:       0.000     4.831     0.000   |b| =     4.830961
 CELL| Vector c [angstrom]:       0.000     0.000     4.831   |c| =     4.830961
 CELL| Angle (b,c), alpha [degree]:                                    90.000000
 CELL| Angle (a,c), beta  [degree]:                                    90.000000
 CELL| Angle (a,b), gamma [degree]:                                    90.000000
 CELL| Numerically orthorhombic:                                             YES
 CELL| Periodicity                                                           XYZ

 Extrapolation method: ASPC

 Number of electrons:                                                         32
 Number of occupied orbitals:                                                 16
 Number of molecular orbitals:                                                40

 Number of orbital functions:                                                 40
 Number of independent orbital functions:                                     40


 SCF WAVEFUNCTION OPTIMIZATION

  Step     Update method      Time    Convergence         Total energy    Change
  ------------------------------------------------------------------------------
     1 TBLite/Diag 0.40E+00    0.0     0.03170405       -19.3738232096 -1.94E+01
     2 TBLite/Diag 0.40E+00    0.0     0.00031295       -19.3738243854 -1.18E-06
     3 TBLite/Diag 0.40E+00    0.0     0.00029494       -19.3738246092 -2.24E-07
     4 TBLite/Diag 0.40E+00    0.0     0.00007007       -19.3738246337 -2.45E-08
     5 TBLite/Diag 0.40E+00    0.0     0.00000028       -19.3738246337 -3.87E-13
     6 TBLite/Diag 0.40E+00    0.0     7.5961E-13       -19.3738246337 -1.42E-14

  *** SCF run converged in     6 steps ***


  Core Hamiltonian energy:                                    -19.65055828970112
  Repulsive potential energy:                                   0.22200728500640
  Electrostatic energy:                                         0.07596113762614
  Self-consistent dispersion energy:                            0.00000000000000
  Non-self consistent dispersion energy:                       -0.02123476661497
  Correction for halogen bonding:                               0.00000000000000
  Electronic entropic energy:                                  -0.00000000000000
  Fermi energy:                                                -0.18611343396341

  Total energy:                                               -19.37382463368355
  Total energy (extrapolated to T->0):                        -19.37382463368355

 ENERGY| Total FORCE_EVAL ( QS ) energy [hartree]            -19.373824633683551

 OPT| **************************************************************************
 OPT| Step number                                                             11
 OPT| Optimization method                                                   BFGS
 OPT| Total energy [hartree]                                      -19.3738246337
 OPT| Internal pressure [bar]                                   -2207.7623387543
 OPT| Effective energy change [hartree]                            -0.0006071918
 OPT| Predicted energy change [hartree]                            -0.0006274731
 OPT| Scaling factor                                                0.0000000000
 OPT| Step size                                                     0.0183723363
 OPT| Trust radius                                                  0.4724315332
 OPT| Decrease in energy                                                     YES
 OPT| Used time [s]                                                        0.204
 OPT|
 OPT| Maximum step size                                             0.0183723363
 OPT| Convergence limit for maximum step size                       0.0030000000
 OPT| Maximum step size is converged                                          NO
 OPT|
 OPT| RMS step size                                                 0.0130884159
 OPT| Convergence limit for RMS step size                           0.0015000000
 OPT| RMS step size is converged                                              NO
 OPT|
 OPT| Maximum gradient                                              0.0013654197
 OPT| Convergence limit for maximum gradient                        0.0004500000
 OPT| Maximum gradient is converged                                           NO
 OPT|
 OPT| RMS gradient                                                  0.0009614026
 OPT| Convergence limit for RMS gradient                            0.0003000000
 OPT| RMS gradient is converged                                               NO
 OPT|
 OPT| Pressure deviation [bar]                                  -2207.7623387543
 OPT| Pressure tolerance [bar]                                    100.0000000000
 OPT| Pressure is converged                                                   NO
 OPT| **************************************************************************
 OPT| Estimated peak process memory after this step [MiB]                    167

 --------------------------
 OPTIMIZATION STEP:     12
 --------------------------

 CELL| Volume [angstrom^3]:                                           112.959103
 CELL| Vector a [angstrom]:       4.834     0.000     0.000   |a| =     4.834005
 CELL| Vector b [angstrom]:       0.000     4.834     0.000   |b| =     4.834005
 CELL| Vector c [angstrom]:       0.000     0.000     4.834   |c| =     4.834005
 CELL| Angle (b,c), alpha [degree]:                                    90.000000
 CELL| Angle (a,c), beta  [degree]:                                    90.000000
 CELL| Angle (a,b), gamma [degree]:                                    90.000000
 CELL| Numerically orthorhombic:                                             YES
 CELL| Periodicity                                                           XYZ

 Extrapolation method: ASPC

 Number of electrons:                                                         32
 Number of occupied orbitals:                                                 16
 Number of molecular orbitals:                                                40

 Number of orbital functions:                                                 40
 Number of independent orbital functions:                                     40


 SCF WAVEFUNCTION OPTIMIZATION

  Step     Update method      Time    Convergence         Total energy    Change
  ------------------------------------------------------------------------------
     1 TBLite/Diag 0.40E+00    0.0     0.00340258       -19.3738799769 -1.94E+01
     2 TBLite/Diag 0.40E+00    0.0     0.00001335       -19.3738799790 -2.15E-09
     3 TBLite/Diag 0.40E+00    0.0     0.00001181       -19.3738799795 -4.30E-10
     4 TBLite/Diag 0.40E+00    0.0     0.00000222       -19.3738799795 -2.46E-11
     5 TBLite/Diag 0.40E+00    0.0     1.1517E-11       -19.3738799795 -3.55E-14

  *** SCF run converged in     5 steps ***


  Core Hamiltonian energy:                                    -19.65249314646139
  Repulsive potential energy:                                   0.22392179169859
  Electrostatic energy:                                         0.07588698521784
  Self-consistent dispersion energy:                            0.00000000000000
  Non-self consistent dispersion energy:                       -0.02119560995250
  Correction for halogen bonding:                               0.00000000000000
  Electronic entropic energy:                                  -0.00000000000000
  Fermi energy:                                                -0.18638938562822

  Total energy:                                               -19.37387997949745
  Total energy (extrapolated to T->0):                        -19.37387997949745

 ENERGY| Total FORCE_EVAL ( QS ) energy [hartree]            -19.373879979497453

 OPT| **************************************************************************
 OPT| Step number                                                             12
 OPT| Optimization method                                                   BFGS
 OPT| Total energy [hartree]                                      -19.3738799795
 OPT| Internal pressure [bar]                                    -339.7456522137
 OPT| Effective energy change [hartree]                            -0.0000553458
 OPT| Predicted energy change [hartree]                            -0.0000459941
 OPT| Scaling factor                                                0.0000000000
 OPT| Step size                                                     0.0057528435
 OPT| Trust radius                                                  0.4724315332
 OPT| Decrease in energy                                                     YES
 OPT| Used time [s]                                                        0.198
 OPT|
 OPT| Maximum step size                                             0.0057528435
 OPT| Convergence limit for maximum step size                       0.0030000000
 OPT| Maximum step size is converged                                          NO
 OPT|
 OPT| RMS step size                                                 0.0031842908
 OPT| Convergence limit for RMS step size                           0.0015000000
 OPT| RMS step size is converged                                              NO
 OPT|
 OPT| Maximum gradient                                              0.0009811402
 OPT| Convergence limit for maximum gradient                        0.0004500000
 OPT| Maximum gradient is converged                                           NO
 OPT|
 OPT| RMS gradient                                                  0.0006286797
 OPT| Convergence limit for RMS gradient                            0.0003000000
 OPT| RMS gradient is converged                                               NO
 OPT|
 OPT| Pressure deviation [bar]                                   -339.7456522137
 OPT| Pressure tolerance [bar]                                    100.0000000000
 OPT| Pressure is converged                                                   NO
 OPT| **************************************************************************
 OPT| Estimated peak process memory after this step [MiB]                    167

 --------------------------
 OPTIMIZATION STEP:     13
 --------------------------

 CELL| Volume [angstrom^3]:                                           113.107140
 CELL| Vector a [angstrom]:       4.836     0.000     0.000   |a| =     4.836116
 CELL| Vector b [angstrom]:       0.000     4.836     0.000   |b| =     4.836116
 CELL| Vector c [angstrom]:       0.000     0.000     4.836   |c| =     4.836116
 CELL| Angle (b,c), alpha [degree]:                                    90.000000
 CELL| Angle (a,c), beta  [degree]:                                    90.000000
 CELL| Angle (a,b), gamma [degree]:                                    90.000000
 CELL| Numerically orthorhombic:                                             YES
 CELL| Periodicity                                                           XYZ

 Extrapolation method: ASPC

 Number of electrons:                                                         32
 Number of occupied orbitals:                                                 16
 Number of molecular orbitals:                                                40

 Number of orbital functions:                                                 40
 Number of independent orbital functions:                                     40


 SCF WAVEFUNCTION OPTIMIZATION

  Step     Update method      Time    Convergence         Total energy    Change
  ------------------------------------------------------------------------------
     1 TBLite/Diag 0.40E+00    0.0     0.00138023       -19.3739093978 -1.94E+01
     2 TBLite/Diag 0.40E+00    0.0     0.00000025       -19.3739093978 -7.21E-13
     3 TBLite/Diag 0.40E+00    0.0     0.00000027       -19.3739093978 -1.39E-13
     4 TBLite/Diag 0.40E+00    0.0     0.00000008       -19.3739093978 -8.53E-14
     5 TBLite/Diag 0.40E+00    0.0     4.0654E-11       -19.3739093978 -3.55E-15

  *** SCF run converged in     5 steps ***


  Core Hamiltonian energy:                                    -19.65398364975100
  Repulsive potential energy:                                   0.22540137584003
  Electrostatic energy:                                         0.07584152812882
  Self-consistent dispersion energy:                            0.00000000000000
  Non-self consistent dispersion energy:                       -0.02116865202305
  Correction for halogen bonding:                               0.00000000000000
  Electronic entropic energy:                                  -0.00000000000000
  Fermi energy:                                                -0.18659092426159

  Total energy:                                               -19.37390939780519
  Total energy (extrapolated to T->0):                        -19.37390939780519

 ENERGY| Total FORCE_EVAL ( QS ) energy [hartree]            -19.373909397805193

 OPT| **************************************************************************
 OPT| Step number                                                             13
 OPT| Optimization method                                                   BFGS
 OPT| Total energy [hartree]                                      -19.3739093978
 OPT| Internal pressure [bar]                                     915.2541295186
[...]
 OPT| Pressure is converged                                                   NO
 OPT| **************************************************************************
 OPT| Estimated peak process memory after this step [MiB]                    167

 --------------------------
 OPTIMIZATION STEP:     31
 --------------------------

 CELL| Volume [angstrom^3]:                                           112.827103
 CELL| Vector a [angstrom]:       4.832     0.000     0.000   |a| =     4.832121
 CELL| Vector b [angstrom]:       0.000     4.832     0.000   |b| =     4.832121
 CELL| Vector c [angstrom]:      -0.000    -0.000     4.832   |c| =     4.832121
 CELL| Angle (b,c), alpha [degree]:                                    90.000000
 CELL| Angle (a,c), beta  [degree]:                                    90.000000
 CELL| Angle (a,b), gamma [degree]:                                    90.000000
 CELL| Numerically orthorhombic:                                              NO
 CELL| Periodicity                                                           XYZ

 Extrapolation method: ASPC

 Number of electrons:                                                         32
 Number of occupied orbitals:                                                 16
 Number of molecular orbitals:                                                40

 Number of orbital functions:                                                 40
 Number of independent orbital functions:                                     40


 SCF WAVEFUNCTION OPTIMIZATION

  Step     Update method      Time    Convergence         Total energy    Change
  ------------------------------------------------------------------------------
     1 TBLite/Diag 0.40E+00    0.0     0.00037954       -19.3758367213 -1.94E+01
     2 TBLite/Diag 0.40E+00    0.0     0.00000964       -19.3758367225 -1.12E-09
     3 TBLite/Diag 0.40E+00    0.0     0.00000810       -19.3758367227 -2.38E-10
     4 TBLite/Diag 0.40E+00    0.0     0.00000105       -19.3758367227 -5.48E-12
     5 TBLite/Diag 0.40E+00    0.0     1.5374E-12       -19.3758367227  1.42E-14

  *** SCF run converged in     5 steps ***


  Core Hamiltonian energy:                                    -19.65580746052829
  Repulsive potential energy:                                   0.22616277637722
  Electrostatic energy:                                         0.07505153315462
  Self-consistent dispersion energy:                            0.00000000000000
  Non-self consistent dispersion energy:                       -0.02124357170304
  Correction for halogen bonding:                               0.00000000000000
  Electronic entropic energy:                                  -0.00000000000000
  Fermi energy:                                                -0.18963598554261

  Total energy:                                               -19.37583672269949
  Total energy (extrapolated to T->0):                        -19.37583672269949

 ENERGY| Total FORCE_EVAL ( QS ) energy [hartree]            -19.375836722699489

 OPT| **************************************************************************
 OPT| Step number                                                             31
 OPT| Optimization method                                                   BFGS
 OPT| Total energy [hartree]                                      -19.3758367227
 OPT| Internal pressure [bar]                                      10.0790223436
 OPT| Effective energy change [hartree]                            -0.0000003523
 OPT| Predicted energy change [hartree]                            -0.0000003688
 OPT| Scaling factor                                                0.0000000000
 OPT| Step size                                                     0.0011130473
 OPT| Trust radius                                                  0.4724315332
 OPT| Decrease in energy                                                     YES
 OPT| Used time [s]                                                        0.101
 OPT|
 OPT| Maximum step size                                             0.0011130473
 OPT| Convergence limit for maximum step size                       0.0030000000
 OPT| Maximum step size is converged                                         YES
 OPT|
 OPT| RMS step size                                                 0.0003383343
 OPT| Convergence limit for RMS step size                           0.0015000000
 OPT| RMS step size is converged                                             YES
 OPT|
 OPT| Maximum gradient                                              0.0000095054
 OPT| Convergence limit for maximum gradient                        0.0004500000
 OPT| Maximum gradient is converged                                          YES
 OPT|
 OPT| RMS gradient                                                  0.0000068170
 OPT| Convergence limit for RMS gradient                            0.0003000000
 OPT| RMS gradient is converged                                              YES
 OPT|
 OPT| Pressure deviation [bar]                                     10.0790223436
 OPT| Pressure tolerance [bar]                                    100.0000000000
 OPT| Pressure is converged                                                  YES
 OPT| **************************************************************************
 OPT| Estimated peak process memory after this step [MiB]                    167

 *******************************************************************************
 ***                    GEOMETRY OPTIMIZATION COMPLETED                      ***
 *******************************************************************************

 write_final_structure: Optimization converged, writing XYZ file gladly:
  ammonia_GFN1_gamma_cell_opt-FINAL-1_31.xyz

 write_final_structure: Optimization converged, writing CIF file gladly:
  ammonia_GFN1_gamma_cell_opt-FINAL-1_31.cif

 write_final_structure: Done!

                    Reevaluating energy at the minimum

 CELL| Volume [angstrom^3]:                                           112.827103
 CELL| Vector a [angstrom]:       4.832     0.000     0.000   |a| =     4.832121
 CELL| Vector b [angstrom]:       0.000     4.832     0.000   |b| =     4.832121
 CELL| Vector c [angstrom]:      -0.000    -0.000     4.832   |c| =     4.832121
 CELL| Angle (b,c), alpha [degree]:                                    90.000000
 CELL| Angle (a,c), beta  [degree]:                                    90.000000
 CELL| Angle (a,b), gamma [degree]:                                    90.000000
 CELL| Numerically orthorhombic:                                              NO
 CELL| Periodicity                                                           XYZ

 Extrapolation method: ASPC

 Number of electrons:                                                         32
 Number of occupied orbitals:                                                 16
 Number of molecular orbitals:                                                40

 Number of orbital functions:                                                 40
 Number of independent orbital functions:                                     40


 SCF WAVEFUNCTION OPTIMIZATION

  Step     Update method      Time    Convergence         Total energy    Change
  ------------------------------------------------------------------------------
     1 TBLite/Diag 0.40E+00    0.0     3.8025E-15       -19.3758367227 -1.94E+01

  *** SCF run converged in     1 steps ***


  Core Hamiltonian energy:                                    -19.65580746052829
  Repulsive potential energy:                                   0.22616277637722
  Electrostatic energy:                                         0.07505153315462
  Self-consistent dispersion energy:                            0.00000000000000
  Non-self consistent dispersion energy:                       -0.02124357170304
  Correction for halogen bonding:                               0.00000000000000
  Electronic entropic energy:                                  -0.00000000000000
  Fermi energy:                                                -0.18963598554261

  Total energy:                                               -19.37583672269949
  Total energy (extrapolated to T->0):                        -19.37583672269949

 ENERGY| Total FORCE_EVAL ( QS ) energy [hartree]            -19.375836722699489

 -------------------------------------------------------------------------------
 -                                                                             -
 -                                DBCSR STATISTICS                             -
 -                                                                             -
 -------------------------------------------------------------------------------
 COUNTER                                    TOTAL       BLAS       SMM       ACC
 flops     4 x     8 x     4               614400       0.0%    100.0%      0.0%     
 flops     4 x     8 x     2               921600       0.0%    100.0%      0.0%     
 flops     2 x     8 x     4               921600       0.0%    100.0%      0.0%     
 flops     2 x     8 x     2              1382400       0.0%    100.0%      0.0%     
 flops     4 x    32 x     4              2457600       0.0%    100.0%      0.0%     
 flops     4 x     4 x    40              3046400       0.0%    100.0%      0.0%     
 flops     4 x     2 x    40              3655680       0.0%    100.0%      0.0%     
 flops     2 x     4 x    40              3655680       0.0%    100.0%      0.0%     
 flops     4 x    32 x     2              3686400       0.0%    100.0%      0.0%     
 flops     2 x    32 x     4              3686400       0.0%    100.0%      0.0%     
 flops     2 x    32 x     2              5529600       0.0%    100.0%      0.0%     
 flops     2 x     2 x    40              5940480       0.0%    100.0%      0.0%     
 flops inhomo. stacks                           0       0.0%      0.0%      0.0%
 flops total                        35.498240E+06       0.0%    100.0%      0.0%
 flops max/rank                     35.498240E+06       0.0%    100.0%      0.0%
 matmuls inhomo. stacks                         0       0.0%      0.0%      0.0%
 matmuls total                             109168       0.0%    100.0%      0.0%
 number of processed stacks                  2152       0.0%    100.0%      0.0%
 average stack size                                     0.0      50.7       0.0
 marketing flops                    31.385600E+06
 -------------------------------------------------------------------------------
 # multiplications                            388
 max memory usage/rank              13.671342E+09
 # max total images/rank                        1
 # max 3D layers                                1
 # MPI messages exchanged                       0
 -------------------------------------------------------------------------------
 -                                                                             -
 -                      DBCSR MESSAGE PASSING PERFORMANCE                      -
 -                                                                             -
 -------------------------------------------------------------------------------
 ROUTINE             CALLS      AVE VOLUME [Bytes]
 MP_Bcast               13                     12.
 MP_Allreduce         1683                      8.
 MP_Alltoall         11134                   8811.
 MP_ISend             1552                   1506.
 MP_IRecv             1552                   1506.
 -------------------------------------------------------------------------------

 -------------------------------------------------------------------------------
 -                                                                             -
 -                          OFFLOAD MEMPOOL STATISTICS                         -
 -                                                                             -
 -------------------------------------------------------------------------------
 Memory consumption                Number of allocations  Used [MiB]  Size [MiB]
 Device                                                1           0           0
 Host                                                  1           0           0
 -------------------------------------------------------------------------------

 MEMORY| Estimated peak process memory [MiB]                                 167

 -------------------------------------------------------------------------------
 -                                                                             -
 -                         MESSAGE PASSING PERFORMANCE                         -
 -                                                                             -
 -------------------------------------------------------------------------------

 ROUTINE             CALLS      AVE VOLUME [Bytes]
 MP_Group               32
 MP_Bcast              474                    170.
 MP_Allreduce         4317                    132.
 MP_Sync               269
 MP_comm_split         237
 -------------------------------------------------------------------------------


 -------------------------------------------------------------------------------
 -                                                                             -
 -                           R E F E R E N C E S                               -
 -                                                                             -
 -------------------------------------------------------------------------------
 
 CP2K version 2026.1 (Development Version), the CP2K developers group (2026).
 CP2K is freely available from https://www.cp2k.org/ .
 
 M. Iannuzzi, J. Wilhelm, F. Stein, A. Bussy, H. Elgabarty, D. Golze, A. Hehn, 
 M. Graml, S. Marek, B. Sertcan Gökmen, C. Schran, H. Forbert, R. Z. 
 Khaliullin, A. Kozhevnikov, M. Taillefumier, R. Meli, V. V. Rybkin, M. Brehm, 
 R. Schade, O. Schütt, J. V. Pototschnig, H. Mirhosseini, A. Knüpfer, D. Marx, 
 M. Krack, J. Hutter, T. D. Kühne.
 J. Phys. Chem. B 130, 1237-1310 (2026).
 The CP2K Program Package Made Simple.
 https://doi.org/10.1021/acs.jpcb.5c05851

 A. Katbashev, M. Stahn, T. Rose, V. Alizadeh, M. Friede, C. Plett, P. 
 Steinbach, S. Ehlert.
 J. Phys. Chem. A 129, 2667-2682 (2025).
 Overview on Building Blocks and Applications of Efficient and Robust Extended 
 Tight Binding.
 https://doi.org/10.1021/acs.jpca.4c08263

 T. D. Kühne, M. Iannuzzi, M. Del Ben, V. V. Rybkin, P. Seewald, F. Stein, T. 
 Laino, R. Z. Khaliullin, O. Schütt, F. Schiffmann, D. Golze, J. Wilhelm, S. 
 Chulkov, M. H. Bani-Hashemian, V. Weber, U. Borstnik, M. Taillefumier, A. S. 
 Jakobovits, A. Lazzaro, H. Pabst, T. Müller, R. Schade, M. Guidon, S. 
 Andermatt, N. Holmberg, G. K. Schenter, A. Hehn, A. Bussy, F. Belleflamme, G. 
 Tabacchi, A. Glöß, M. Lass, I. Bethune, C. J. Mundy, C. Plessl, M. Watkins, 
 J. VandeVondele, M. Krack, J. Hutter.
 J. Chem. Phys. 152, 194103 (2020).
 CP2K: An electronic structure and molecular dynamics software package - 
 Quickstep: Efficient and accurate electronic structure calculations.
 https://doi.org/10.1063/5.0007045

 P. Pracht, E. Caldeweyher, S. Ehlert, S. Grimme.
 ChemRxiv, (2019).
 A Robust Non-Self-Consistent Tight-Binding Quantum Chemistry Method for large 
 Molecules.
 https://doi.org/10.26434/chemrxiv.8326202.v1

 S. Grimme, C. Bannwarth, P. Shushkov.
 J. Chem. Theory Comput. 13, 1989 (2017).
 A Robust and Accurate Tight-Binding Quantum Chemical Method for Structures, 
 Vibrational Frequencies, and Noncovalent Interactions of Large Molecular 
 Systems Parametrized for All spd-Block Elements (Z = 1-86).
 https://doi.org/10.1021/acs.jctc.7b00118

 O. Schuett, P. Messmer, J. Hutter, J. VandeVondele.
 Electronic Structure Calculations on Graphics Processing Units, 173-190 (2016).
 GPU-Accelerated Sparse Matrix-Matrix Multiplication for Linear Scaling Density 
 Functional Theory.
 https://doi.org/10.1002/9781118670712.ch8

 A. Heinecke, G. Henry, M. Hutchinson, H. Pabst.
 Proceedings of Intl. Supercomputing Conference, 981-991 (2016).
 LIBXSMM: Accelerating Small Matrix Multiplications by Runtime Code Generation.
 https://doi.org/10.1109/SC.2016.83

 U. Borstnik, J. VandeVondele, V. Weber, J. Hutter.
 Parallel Comput. 40, 47-58 (2014).
 Sparse matrix multiplication: The distributed block-compressed sparse row 
 library.
 https://doi.org/10.1016/j.parco.2014.03.012

 T. D. Kühne, M. Krack, F. R. Mohamed, M. Parrinello.
 Phys. Rev. Lett. 98, 066401 (2007).
 Efficient and accurate Car-Parrinello-like approach to Born-Oppenheimer 
 molecular dynamics.
 https://doi.org/10.1103/PhysRevLett.98.066401

 M. Frigo, S. G. Johnson.
 Proc. IEEE 93, 216-231 (2005).
 The design and implementation of FFTW3.
 https://doi.org/10.1109/JPROC.2004.840301

 J. Kolafa.
 J. Comput. Chem. 25, 335-342 (2004).
 Time-reversible always stable predictor-corrector method for molecular dynamics 
 of polarizable molecules.
 https://doi.org/10.1002/jcc.10385

 N. D. Mermin.
 Phys. Rev. 137, A1441-A1443 (1965).
 Thermal Properties of the Inhomogeneous Electron Gas.
 https://doi.org/10.1103/PhysRev.137.A1441


 -------------------------------------------------------------------------------
 -                                                                             -
 -                                T I M I N G                                  -
 -                                                                             -
 -------------------------------------------------------------------------------
 SUBROUTINE                       CALLS  ASD         SELF TIME        TOTAL TIME
                                MAXIMUM       AVERAGE  MAXIMUM  AVERAGE  MAXIMUM
 CP2K                                 1  1.0    0.002    0.002    4.524    4.524
 cp_cell_opt                          1  2.0    0.000    0.000    4.517    4.517
 geoopt_bfgs                          1  3.0    0.004    0.004    4.517    4.517
 cp_eval_at                          33  4.0    0.004    0.004    4.477    4.477
 qs_forces                           32  5.0    0.002    0.002    4.450    4.450
 build_tblite_matrices               65  7.0    2.190    2.190    2.221    2.221
 rebuild_ks_matrix                  206  9.5    0.000    0.000    1.856    1.856
 build_tblite_ks_matrix             206 10.5    1.854    1.854    1.856    1.856
 qs_ks_update_qs_env_forces          32  6.0    0.000    0.000    1.844    1.844
 qs_energies                         33  6.0    0.001    0.001    1.296    1.296
 qs_energies_init_hamiltonians       33  7.0    0.000    0.000    0.937    0.937
 scf_env_do_scf                      33  7.0    0.000    0.000    0.234    0.234
 scf_env_do_scf_inner_loop          174  8.0    0.009    0.009    0.233    0.233
 qs_scf_new_mos                     174  9.0    0.001    0.001    0.190    0.190
 dbcsr_multiply_generic             388 12.0    0.006    0.006    0.112    0.112
 cp_dbcsr_plus_fm_fm_t              238 10.7    0.001    0.001    0.112    0.112
 calculate_dm_sparse                206 10.0    0.001    0.001    0.098    0.098
 init_scf_run                        33  7.0    0.000    0.000    0.097    0.097
 -------------------------------------------------------------------------------

 The number of warnings for this run is : 0
 
 -------------------------------------------------------------------------------
  **** **** ******  **  PROGRAM ENDED AT                 2026-05-23 22:46:54.122
 ***** ** ***  *** **   PROGRAM RAN ON                                spark-c86c
 **    ****   ******    PROGRAM RAN BY                                  kuehne88
 ***** **    ** ** **   PROGRAM PROCESS ID                               2263982
  **** **  *******  **  PROGRAM STOPPED IN /home/kuehne88/periodic-gfn2-benchmar
                                           ks/X23b/runs/cellopt_gamma/GFN1/ammon
                                           ia_GFN1_gamma_cellopt
