 DBCSR| CPU Multiplication driver                                           XSMM (U)
 DBCSR| Multrec recursion limit                                              512 (U)
 DBCSR| Multiplication stack size                                           1000 (D)
 DBCSR| Maximum elements for images                                    UNLIMITED (U)
 DBCSR| Multiplicative factor virtual images                                   1 (U)
 DBCSR| Use multiplication densification                                       T (D)
 DBCSR| Multiplication size stacks                                             3 (U)
 DBCSR| Use memory pool for CPU allocation                                     F (U)
 DBCSR| Number of 3D layers                                               SINGLE (U)
 DBCSR| Use MPI memory allocation                                              F (U)
 DBCSR| Use RMA algorithm                                                      F (U)
 DBCSR| Use Communication thread                                               T (U)
 DBCSR| Communication thread load                                             87 (D)
 DBCSR| MPI: My process id                                                     0
 DBCSR| MPI: Number of processes                                               1
 DBCSR| OMP: Current number of threads                                         1
 DBCSR| OMP: Max number of threads                                             1
 DBCSR| Split modifier for TAS multiplication algorithm                  1.0E+00 (U)


  **** **** ******  **  PROGRAM STARTED AT               2026-05-23 22:46:49.517
 ***** ** ***  *** **   PROGRAM STARTED ON                            spark-c86c
 **    ****   ******    PROGRAM STARTED BY                              kuehne88
 ***** **    ** ** **   PROGRAM PROCESS ID                               2264165
  **** **  *******  **  PROGRAM STARTED IN /home/kuehne88/periodic-gfn2-benchmar
                                           ks/X23b/runs/cellopt_gamma/GFN1/anthr
                                           acene_GFN1_gamma_cellopt

 CP2K| version string:                 CP2K version 2026.1 (Development Version)
 CP2K| source code revision number:                                   0622d442e4
 CP2K| cp2kflags: omp fftw3 libxc parallel scalapack mpi_f08 xsmm spglib libdftd
 CP2K|            4 dftd4_v3 mctc-lib tblite
 CP2K| is freely available from                            https://www.cp2k.org/
 CP2K| Program compiled at                                   2026-05-23 22:05:08
 CP2K| Program compiled on                                            spark-c86c
 CP2K| Program compiled for                                              aarch64
 CP2K| Data directory path    /home/kuehne88/cp2k-master-tblite-20260523/install
 CP2K| Input file name                         anthracene_GFN1_gamma_cellopt.inp

 GLOBAL| Force Environment number                                              1
 GLOBAL| Basis set file name                                           BASIS_SET
 GLOBAL| Potential file name                                           POTENTIAL
 GLOBAL| MM Potential file name                                     MM_POTENTIAL
 GLOBAL| Coordinate file name                                      __STD_INPUT__
 GLOBAL| Method name                                                        CP2K
 GLOBAL| Project name                             anthracene_GFN1_gamma_cell_opt
 GLOBAL| Run type                                                       CELL_OPT
 GLOBAL| FFT library                                                       FFTW3
 GLOBAL| Diagonalization library                                       ScaLAPACK
 GLOBAL| Cholesky decomposition library                                ScaLAPACK
 GLOBAL| DGEMM library                                                      BLAS
 GLOBAL| Direct generalized diagonalization requested                          F
 GLOBAL| Orthonormality check for eigenvectors                          DISABLED
 GLOBAL| Matrix multiplication library                                 ScaLAPACK
 GLOBAL| All-to-all communication in single precision                          F
 GLOBAL| FFTs using library dependent lengths                                  F
 GLOBAL| Grid backend                                                       AUTO
 GLOBAL| Global print level                                                  LOW
 GLOBAL| MPI I/O enabled                                                       T
 GLOBAL| Total number of message passing processes                             1
 GLOBAL| Number of distributed systems (nodes)                                 1
 GLOBAL| Number of threads for this process                                    1
 GLOBAL| This output is from process                                           0
 GLOBAL| OpenMP stack size per thread (OMP_STACKSIZE)                    default
 GLOBAL| CPU model name                                                  UNKNOWN
 GLOBAL| CPUID                                                              2200
 GLOBAL| Compiled for CPUID                                                 2000

 *** HINT in environment.F:970 :: The compiler target flags (arm_arch64)   ***
 *** used to build this binary cannot exploit all extensions of this CPU   ***
 *** model (arm_sve256). Consider compiler target flags as part of FCFLAGS ***
 *** and CFLAGS (ARCH file).                                               ***


 MEMORY| system memory details [Kb]
 MEMORY|                        rank 0           min           max       average
 MEMORY| MemTotal            125508532     125508532     125508532     125508532
 MEMORY| MemFree             101589788     101589788     101589788     101589788
 MEMORY| Buffers                867392        867392        867392        867392
 MEMORY| Cached               13914832      13914832      13914832      13914832
 MEMORY| Slab                  1588512       1588512       1588512       1588512
 MEMORY| SReclaimable           910340        910340        910340        910340
 MEMORY| MemLikelyFree       117282352     117282352     117282352     117282352


 GENERATE|  Preliminary Number of Bonds generated:                             0
 GENERATE|  Achieved consistency in connectivity generation.


                  #####   #####        #     #   #     #       #          
                 #     # #     #      #    ##### #     #   # #####  ####  
                 #     # #           #       #   ###   #       #   #    # 
                 #     #  #####     #        #   #  #  #   #   #   ###### 
                 #   # #       #   #         #   #   # #   #   #   #      
                 #    #  #     #  #          #   #  #  # # #   #    #   # 
                  #### #  #####  #           #   ###   ##  #   #     ###  

                                   GFN1-xTB  
                                 Version 0.0                       
                            Johann V. Pototschnig                  



 TOTAL NUMBERS AND MAXIMUM NUMBERS

  Total number of            - Atomic kinds:                                   2
                             - Atoms:                                         48
                             - Shell sets:                                    96
                             - Shells:                                        96
                             - Primitive Cartesian functions:                556
                             - Cartesian basis functions:                    152
                             - Spherical basis functions:                    152

  Maximum angular momentum of the orbital basis functions:                     1


 SCF PARAMETERS         Density guess:                                     MOPAC
                        --------------------------------------------------------
                        max_scf:                                             300
                        max_scf_history:                                       0
                        max_diis:                                              4
                        --------------------------------------------------------
                        eps_scf:                                        1.00E-09
                        eps_scf_history:                                0.00E+00
                        eps_diis:                                       1.00E-01
                        eps_eigval:                                     1.00E-05
                        --------------------------------------------------------
                        level_shift [a.u.]:                             0.000000
                        added MOs                                        86    0
                        --------------------------------------------------------
                        Mixing method:                           DIRECT_P_MIXING
                        --------------------------------------------------------
                        Smear method:                                FERMI_DIRAC
                        Electronic temperature [K]:                        300.0
                        Electronic temperature [a.u.]:                  9.50E-04
                        Accuracy threshold:                             1.00E-06
                        --------------------------------------------------------
                        No outer SCF

 CELL_OPT| Pressure tolerance [bar]:                                       100.0
 CELL_OPT| Keep volume of cell:                                               NO
 CELL_OPT| Keep angles between the cell vectors:                              NO
 CELL_OPT| Keep cell symmetry:                                                NO
 CELL_OPT| Constraint:                                                      NONE

 BFGS| Use rational function optimization for step estimation:                NO
 BFGS| Use model Hessian for initial guess:                                   NO
 BFGS| Restart Hessian:                                                       NO
 BFGS| Trust radius:                                                       0.472

 *******************************************************************************
 ***                     STARTING   CELL   OPTIMIZATION                      ***
 ***                                   BFGS                                  ***
 *******************************************************************************

 CELL| Volume [angstrom^3]:                                           456.469453
 CELL| Vector a [angstrom]:       8.414     0.000     0.000   |a| =     8.414400
 CELL| Vector b [angstrom]:       0.000     5.990     0.000   |b| =     5.990300
 CELL| Vector c [angstrom]:      -6.410     0.000     9.056   |c| =    11.095300
 CELL| Angle (b,c), alpha [degree]:                                    90.000000
 CELL| Angle (a,c), beta  [degree]:                                   125.293000
 CELL| Angle (a,b), gamma [degree]:                                    90.000000
 CELL| Numerically orthorhombic:                                              NO
 CELL| Periodicity                                                           XYZ

 Extrapolation method: initial_guess

 Number of electrons:                                                        132
 Number of occupied orbitals:                                                 66
 Number of molecular orbitals:                                               152

 Number of orbital functions:                                                152
 Number of independent orbital functions:                                    152


 SCF WAVEFUNCTION OPTIMIZATION

  Step     Update method      Time    Convergence         Total energy    Change
  ------------------------------------------------------------------------------
     1 TBLite/Diag 0.40E+00    0.0     1.34735406       -69.8654580390 -6.99E+01
     2 TBLite/Diag 0.40E+00    0.0     0.00433010       -69.8657489275 -2.91E-04
     3 TBLite/Diag 0.40E+00    0.0     0.00331844       -69.8657282853  2.06E-05
     4 TBLite/Diag 0.40E+00    0.0     0.00224666       -69.8657599554 -3.17E-05
     5 TBLite/Diag 0.40E+00    0.0     0.00093008       -69.8657709725 -1.10E-05
     6 TBLite/Diag 0.40E+00    0.0     0.00018969       -69.8657714102 -4.38E-07
     7 TBLite/Diag 0.40E+00    0.0     0.00002848       -69.8657714190 -8.80E-09
     8 TBLite/Diag 0.40E+00    0.0     0.00000453       -69.8657714193 -3.25E-10
     9 TBLite/Diag 0.40E+00    0.0     0.00000265       -69.8657714193 -3.18E-11
    10 TBLite/Diag 0.40E+00    0.0     0.00000023       -69.8657714193 -8.38E-13
    11 TBLite/Diag 0.40E+00    0.0     0.00000002       -69.8657714193  4.69E-13
    12 TBLite/Diag 0.40E+00    0.0     0.00000001       -69.8657714193 -3.27E-13
    13 TBLite/Diag 0.40E+00    0.0     2.6713E-10       -69.8657714193  3.13E-13

  *** SCF run converged in    13 steps ***


  Core Hamiltonian energy:                                    -71.43568476605756
  Repulsive potential energy:                                   1.67034044983793
  Electrostatic energy:                                         0.00268413473020
  Self-consistent dispersion energy:                            0.00000000000000
  Non-self consistent dispersion energy:                       -0.10311123784713
  Correction for halogen bonding:                               0.00000000000000
  Electronic entropic energy:                                  -0.00000000000000
  Fermi energy:                                                -0.35550675917013

  Total energy:                                               -69.86577141933657
  Total energy (extrapolated to T->0):                        -69.86577141933657

 ENERGY| Total FORCE_EVAL ( QS ) energy [hartree]            -69.865771419336568

 OPT| **************************************************************************
 OPT| Step number                                                              0
 OPT| Optimization method                                                   BFGS
 OPT| Total energy [hartree]                                      -69.8657714193
 OPT| Internal pressure [bar]                                   97850.8543963805
 OPT| Used time [s]                                                        0.774
 OPT| **************************************************************************
 OPT| Estimated peak process memory [MiB]                                    171

 --------------------------
 OPTIMIZATION STEP:      1
 --------------------------

 CELL| Volume [angstrom^3]:                                           464.861617
 CELL| Vector a [angstrom]:       8.426     0.000     0.000   |a| =     8.425832
 CELL| Vector b [angstrom]:       0.000     6.075     0.000   |b| =     6.074873
 CELL| Vector c [angstrom]:      -6.414     0.000     9.082   |c| =    11.118547
 CELL| Angle (b,c), alpha [degree]:                                    90.000000
 CELL| Angle (a,c), beta  [degree]:                                   125.232416
 CELL| Angle (a,b), gamma [degree]:                                    90.000000
 CELL| Numerically orthorhombic:                                              NO
 CELL| Periodicity                                                           XYZ

 Extrapolation method: ASPC

 Number of electrons:                                                        132
 Number of occupied orbitals:                                                 66
 Number of molecular orbitals:                                               152

 Number of orbital functions:                                                152
 Number of independent orbital functions:                                    152


 SCF WAVEFUNCTION OPTIMIZATION

  Step     Update method      Time    Convergence         Total energy    Change
  ------------------------------------------------------------------------------
     1 TBLite/Diag 0.40E+00    0.0     0.09647432       -69.9945294425 -7.00E+01
     2 TBLite/Diag 0.40E+00    0.0     0.00566029       -69.9950216332 -4.92E-04
     3 TBLite/Diag 0.40E+00    0.0     0.00329166       -69.9950654492 -4.38E-05
     4 TBLite/Diag 0.40E+00    0.0     0.00052461       -69.9950665219 -1.07E-06
     5 TBLite/Diag 0.40E+00    0.0     0.00050236       -69.9950669298 -4.08E-07
     6 TBLite/Diag 0.40E+00    0.0     0.00020250       -69.9950678412 -9.11E-07
     7 TBLite/Diag 0.40E+00    0.0     0.00003084       -69.9950678499 -8.63E-09
     8 TBLite/Diag 0.40E+00    0.0     0.00000620       -69.9950678504 -5.00E-10
     9 TBLite/Diag 0.40E+00    0.0     0.00000037       -69.9950678504 -2.60E-12
    10 TBLite/Diag 0.40E+00    0.0     0.00000015       -69.9950678504 -1.71E-13
    11 TBLite/Diag 0.40E+00    0.0     5.5436E-09       -69.9950678504  2.42E-13
    12 TBLite/Diag 0.40E+00    0.0     1.0209E-09       -69.9950678504 -1.28E-13
    13 TBLite/Diag 0.40E+00    0.0     1.2763E-10       -69.9950678504 -2.56E-13

  *** SCF run converged in    13 steps ***


  Core Hamiltonian energy:                                    -71.30518499569777
  Repulsive potential energy:                                   1.40838692238804
  Electrostatic energy:                                         0.00253605009442
  Self-consistent dispersion energy:                            0.00000000000000
  Non-self consistent dispersion energy:                       -0.10080582713849
  Correction for halogen bonding:                               0.00000000000000
  Electronic entropic energy:                                  -0.00000000000000
  Fermi energy:                                                -0.35325775285072

  Total energy:                                               -69.99506785035379
  Total energy (extrapolated to T->0):                        -69.99506785035379

 ENERGY| Total FORCE_EVAL ( QS ) energy [hartree]            -69.995067850353792

 OPT| **************************************************************************
 OPT| Step number                                                              1
 OPT| Optimization method                                                   BFGS
 OPT| Total energy [hartree]                                      -69.9950678504
 OPT| Internal pressure [bar]                                   36755.9259660762
 OPT| Effective energy change [hartree]                            -0.1292964310
 OPT| Predicted energy change [hartree]                            -0.1625182740
 OPT| Scaling factor                                                0.0000000000
 OPT| Step size                                                     0.1598200039
 OPT| Trust radius                                                  0.4724315332
 OPT| Decrease in energy                                                     YES
 OPT| Used time [s]                                                        0.791
 OPT|
 OPT| Maximum step size                                             0.1598200039
 OPT| Convergence limit for maximum step size                       0.0030000000
 OPT| Maximum step size is converged                                          NO
 OPT|
 OPT| RMS step size                                                 0.0465500840
 OPT| Convergence limit for RMS step size                           0.0015000000
 OPT| RMS step size is converged                                              NO
 OPT|
 OPT| Maximum gradient                                              0.0366866524
 OPT| Convergence limit for maximum gradient                        0.0004500000
 OPT| Maximum gradient is converged                                           NO
 OPT|
 OPT| RMS gradient                                                  0.0137990737
 OPT| Convergence limit for RMS gradient                            0.0003000000
 OPT| RMS gradient is converged                                               NO
 OPT|
 OPT| Pressure deviation [bar]                                  36755.9259660762
 OPT| Pressure tolerance [bar]                                    100.0000000000
 OPT| Pressure is converged                                                   NO
 OPT| **************************************************************************
 OPT| Estimated peak process memory after this step [MiB]                    173

 --------------------------
 OPTIMIZATION STEP:      2
 --------------------------

 CELL| Volume [angstrom^3]:                                           467.580370
 CELL| Vector a [angstrom]:       8.427     0.000     0.000   |a| =     8.426658
 CELL| Vector b [angstrom]:       0.000     6.098     0.000   |b| =     6.098036
 CELL| Vector c [angstrom]:      -6.422     0.000     9.099   |c| =    11.137297
 CELL| Angle (b,c), alpha [degree]:                                    90.000000
 CELL| Angle (a,c), beta  [degree]:                                   125.212702
 CELL| Angle (a,b), gamma [degree]:                                    90.000000
 CELL| Numerically orthorhombic:                                              NO
 CELL| Periodicity                                                           XYZ

 Extrapolation method: ASPC

 Number of electrons:                                                        132
 Number of occupied orbitals:                                                 66
 Number of molecular orbitals:                                               152

 Number of orbital functions:                                                152
 Number of independent orbital functions:                                    152


 SCF WAVEFUNCTION OPTIMIZATION

  Step     Update method      Time    Convergence         Total energy    Change
  ------------------------------------------------------------------------------
     1 TBLite/Diag 0.40E+00    0.0     0.02627361       -70.0086235630 -7.00E+01
     2 TBLite/Diag 0.40E+00    0.0     0.00246863       -70.0086808663 -5.73E-05
     3 TBLite/Diag 0.40E+00    0.0     0.00140490       -70.0086944271 -1.36E-05
     4 TBLite/Diag 0.40E+00    0.0     0.00068415       -70.0086980489 -3.62E-06
     5 TBLite/Diag 0.40E+00    0.0     0.00018628       -70.0086987776 -7.29E-07
     6 TBLite/Diag 0.40E+00    0.0     0.00003672       -70.0086987953 -1.77E-08
     7 TBLite/Diag 0.40E+00    0.0     0.00000918       -70.0086987959 -6.05E-10
     8 TBLite/Diag 0.40E+00    0.0     0.00000267       -70.0086987960 -1.33E-10
     9 TBLite/Diag 0.40E+00    0.0     0.00000018       -70.0086987960 -6.25E-13
    10 TBLite/Diag 0.40E+00    0.0     0.00000002       -70.0086987960  3.27E-13
    11 TBLite/Diag 0.40E+00    0.0     1.3510E-09       -70.0086987960 -2.13E-13
    12 TBLite/Diag 0.40E+00    0.0     2.5321E-10       -70.0086987960  2.70E-13

  *** SCF run converged in    12 steps ***


  Core Hamiltonian energy:                                    -71.24785312849798
  Repulsive potential energy:                                   1.33694329813753
  Electrostatic energy:                                         0.00259429559204
  Self-consistent dispersion energy:                            0.00000000000000
  Non-self consistent dispersion energy:                       -0.10038326127779
  Correction for halogen bonding:                               0.00000000000000
  Electronic entropic energy:                                  -0.00000000000000
  Fermi energy:                                                -0.35804480251430

  Total energy:                                               -70.00869879604620
  Total energy (extrapolated to T->0):                        -70.00869879604620

 ENERGY| Total FORCE_EVAL ( QS ) energy [hartree]            -70.008698796046204

 OPT| **************************************************************************
 OPT| Step number                                                              2
 OPT| Optimization method                                                   BFGS
 OPT| Total energy [hartree]                                      -70.0086987960
 OPT| Internal pressure [bar]                                   10072.7211634126
 OPT| Effective energy change [hartree]                            -0.0136309457
 OPT| Predicted energy change [hartree]                            -0.0119684678
 OPT| Scaling factor                                                0.0000000000
 OPT| Step size                                                     0.0437712356
 OPT| Trust radius                                                  0.4724315332
 OPT| Decrease in energy                                                     YES
 OPT| Used time [s]                                                        0.659
 OPT|
 OPT| Maximum step size                                             0.0437712356
 OPT| Convergence limit for maximum step size                       0.0030000000
 OPT| Maximum step size is converged                                          NO
 OPT|
 OPT| RMS step size                                                 0.0119101923
 OPT| Convergence limit for RMS step size                           0.0015000000
 OPT| RMS step size is converged                                              NO
 OPT|
 OPT| Maximum gradient                                              0.0172459800
 OPT| Convergence limit for maximum gradient                        0.0004500000
 OPT| Maximum gradient is converged                                           NO
 OPT|
 OPT| RMS gradient                                                  0.0037999628
 OPT| Convergence limit for RMS gradient                            0.0003000000
 OPT| RMS gradient is converged                                               NO
 OPT|
 OPT| Pressure deviation [bar]                                  10072.7211634126
 OPT| Pressure tolerance [bar]                                    100.0000000000
 OPT| Pressure is converged                                                   NO
 OPT| **************************************************************************
 OPT| Estimated peak process memory after this step [MiB]                    174

 --------------------------
 OPTIMIZATION STEP:      3
 --------------------------

 CELL| Volume [angstrom^3]:                                           468.867770
 CELL| Vector a [angstrom]:       8.427     0.000     0.000   |a| =     8.426522
 CELL| Vector b [angstrom]:       0.000     6.111     0.000   |b| =     6.111265
 CELL| Vector c [angstrom]:      -6.424     0.000     9.105   |c| =    11.142822
 CELL| Angle (b,c), alpha [degree]:                                    90.000000
 CELL| Angle (a,c), beta  [degree]:                                   125.204372
 CELL| Angle (a,b), gamma [degree]:                                    90.000000
 CELL| Numerically orthorhombic:                                              NO
 CELL| Periodicity                                                           XYZ

 Extrapolation method: ASPC

 Number of electrons:                                                        132
 Number of occupied orbitals:                                                 66
 Number of molecular orbitals:                                               152

 Number of orbital functions:                                                152
 Number of independent orbital functions:                                    152


 SCF WAVEFUNCTION OPTIMIZATION

  Step     Update method      Time    Convergence         Total energy    Change
  ------------------------------------------------------------------------------
     1 TBLite/Diag 0.40E+00    0.0     0.00873848       -70.0104843137 -7.00E+01
     2 TBLite/Diag 0.40E+00    0.0     0.00121776       -70.0104915487 -7.23E-06
     3 TBLite/Diag 0.40E+00    0.0     0.00049631       -70.0104940321 -2.48E-06
     4 TBLite/Diag 0.40E+00    0.0     0.00018981       -70.0104941655 -1.33E-07
     5 TBLite/Diag 0.40E+00    0.0     0.00008045       -70.0104942871 -1.22E-07
     6 TBLite/Diag 0.40E+00    0.0     0.00002348       -70.0104942890 -1.94E-09
     7 TBLite/Diag 0.40E+00    0.0     0.00000440       -70.0104942892 -2.31E-10
     8 TBLite/Diag 0.40E+00    0.0     0.00000088       -70.0104942893 -8.60E-12
     9 TBLite/Diag 0.40E+00    0.0     0.00000007       -70.0104942893 -2.98E-13
    10 TBLite/Diag 0.40E+00    0.0     0.00000003       -70.0104942893  7.11E-14
    11 TBLite/Diag 0.40E+00    0.0     6.2863E-10       -70.0104942893  2.84E-14

  *** SCF run converged in    11 steps ***


  Core Hamiltonian energy:                                    -71.22620865132397
  Repulsive potential energy:                                   1.31334239903350
  Electrostatic energy:                                         0.00258585569061
  Self-consistent dispersion energy:                            0.00000000000000
  Non-self consistent dispersion energy:                       -0.10021389265387
  Correction for halogen bonding:                               0.00000000000000
  Electronic entropic energy:                                  -0.00000000000000
  Fermi energy:                                                -0.35778548766616

  Total energy:                                               -70.01049428925373
  Total energy (extrapolated to T->0):                        -70.01049428925373

 ENERGY| Total FORCE_EVAL ( QS ) energy [hartree]            -70.010494289253728

 OPT| **************************************************************************
 OPT| Step number                                                              3
 OPT| Optimization method                                                   BFGS
 OPT| Total energy [hartree]                                      -70.0104942893
 OPT| Internal pressure [bar]                                    -278.2267650745
 OPT| Effective energy change [hartree]                            -0.0017954932
 OPT| Predicted energy change [hartree]                            -0.0013477998
 OPT| Scaling factor                                                0.0000000000
 OPT| Step size                                                     0.0249992160
 OPT| Trust radius                                                  0.4724315332
 OPT| Decrease in energy                                                     YES
 OPT| Used time [s]                                                        0.775
 OPT|
 OPT| Maximum step size                                             0.0249992160
 OPT| Convergence limit for maximum step size                       0.0030000000
 OPT| Maximum step size is converged                                          NO
 OPT|
 OPT| RMS step size                                                 0.0048165078
 OPT| Convergence limit for RMS step size                           0.0015000000
 OPT| RMS step size is converged                                              NO
 OPT|
 OPT| Maximum gradient                                              0.0039685246
 OPT| Convergence limit for maximum gradient                        0.0004500000
 OPT| Maximum gradient is converged                                           NO
 OPT|
 OPT| RMS gradient                                                  0.0017483719
 OPT| Convergence limit for RMS gradient                            0.0003000000
 OPT| RMS gradient is converged                                               NO
 OPT|
 OPT| Pressure deviation [bar]                                   -278.2267650745
 OPT| Pressure tolerance [bar]                                    100.0000000000
 OPT| Pressure is converged                                                   NO
 OPT| **************************************************************************
 OPT| Estimated peak process memory after this step [MiB]                    174

 --------------------------
 OPTIMIZATION STEP:      4
 --------------------------

 CELL| Volume [angstrom^3]:                                           469.316860
 CELL| Vector a [angstrom]:       8.425     0.000     0.000   |a| =     8.424837
 CELL| Vector b [angstrom]:       0.000     6.117     0.000   |b| =     6.117166
 CELL| Vector c [angstrom]:      -6.424     0.000     9.107   |c| =    11.144583
 CELL| Angle (b,c), alpha [degree]:                                    90.000000
 CELL| Angle (a,c), beta  [degree]:                                   125.201596
 CELL| Angle (a,b), gamma [degree]:                                    90.000000
 CELL| Numerically orthorhombic:                                              NO
 CELL| Periodicity                                                           XYZ

 Extrapolation method: ASPC

 Number of electrons:                                                        132
 Number of occupied orbitals:                                                 66
 Number of molecular orbitals:                                               152

 Number of orbital functions:                                                152
 Number of independent orbital functions:                                    152


 SCF WAVEFUNCTION OPTIMIZATION

  Step     Update method      Time    Convergence         Total energy    Change
  ------------------------------------------------------------------------------
     1 TBLite/Diag 0.40E+00    0.0     0.00333655       -70.0110338273 -7.00E+01
     2 TBLite/Diag 0.40E+00    0.0     0.00067570       -70.0110358608 -2.03E-06
     3 TBLite/Diag 0.40E+00    0.0     0.00022465       -70.0110361274 -2.67E-07
     4 TBLite/Diag 0.40E+00    0.0     0.00014449       -70.0110361452 -1.77E-08
     5 TBLite/Diag 0.40E+00    0.0     0.00008026       -70.0110362411 -9.60E-08
     6 TBLite/Diag 0.40E+00    0.0     0.00001419       -70.0110362431 -1.94E-09
     7 TBLite/Diag 0.40E+00    0.0     0.00000153       -70.0110362431 -1.52E-11
     8 TBLite/Diag 0.40E+00    0.0     0.00000028       -70.0110362431 -8.53E-13
     9 TBLite/Diag 0.40E+00    0.0     0.00000005       -70.0110362431 -2.84E-13
    10 TBLite/Diag 0.40E+00    0.0     0.00000001       -70.0110362431 -2.84E-14
    11 TBLite/Diag 0.40E+00    0.0     3.4074E-10       -70.0110362431 -1.28E-13

  *** SCF run converged in    11 steps ***


  Core Hamiltonian energy:                                    -71.21475848190060
  Repulsive potential energy:                                   1.30132627155406
  Electrostatic energy:                                         0.00257276608798
  Self-consistent dispersion energy:                            0.00000000000000
  Non-self consistent dispersion energy:                       -0.10017679883133
  Correction for halogen bonding:                               0.00000000000000
  Electronic entropic energy:                                  -0.00000000000000
  Fermi energy:                                                -0.35746565807989

  Total energy:                                               -70.01103624308989
  Total energy (extrapolated to T->0):                        -70.01103624308989

 ENERGY| Total FORCE_EVAL ( QS ) energy [hartree]            -70.011036243089890

 OPT| **************************************************************************
 OPT| Step number                                                              4
 OPT| Optimization method                                                   BFGS
 OPT| Total energy [hartree]                                      -70.0110362431
 OPT| Internal pressure [bar]                                   -5438.6725146296
 OPT| Effective energy change [hartree]                            -0.0005419538
 OPT| Predicted energy change [hartree]                            -0.0004074313
 OPT| Scaling factor                                                0.0000000000
 OPT| Step size                                                     0.0111518281
 OPT| Trust radius                                                  0.4724315332
 OPT| Decrease in energy                                                     YES
 OPT| Used time [s]                                                        0.775
 OPT|
 OPT| Maximum step size                                             0.0111518281
 OPT| Convergence limit for maximum step size                       0.0030000000
 OPT| Maximum step size is converged                                          NO
 OPT|
 OPT| RMS step size                                                 0.0033396531
 OPT| Convergence limit for RMS step size                           0.0015000000
 OPT| RMS step size is converged                                              NO
 OPT|
 OPT| Maximum gradient                                              0.0043839447
 OPT| Convergence limit for maximum gradient                        0.0004500000
 OPT| Maximum gradient is converged                                           NO
 OPT|
 OPT| RMS gradient                                                  0.0011573522
 OPT| Convergence limit for RMS gradient                            0.0003000000
 OPT| RMS gradient is converged                                               NO
 OPT|
 OPT| Pressure deviation [bar]                                  -5438.6725146296
 OPT| Pressure tolerance [bar]                                    100.0000000000
 OPT| Pressure is converged                                                   NO
 OPT| **************************************************************************
 OPT| Estimated peak process memory after this step [MiB]                    175

 --------------------------
 OPTIMIZATION STEP:      5
 --------------------------

 CELL| Volume [angstrom^3]:                                           469.081896
 CELL| Vector a [angstrom]:       8.422     0.000     0.000   |a| =     8.421992
 CELL| Vector b [angstrom]:       0.000     6.117     0.000   |b| =     6.117141
 CELL| Vector c [angstrom]:      -6.424     0.000     9.105   |c| =    11.143162
 CELL| Angle (b,c), alpha [degree]:                                    90.000000
 CELL| Angle (a,c), beta  [degree]:                                   125.204142
 CELL| Angle (a,b), gamma [degree]:                                    90.000000
 CELL| Numerically orthorhombic:                                              NO
 CELL| Periodicity                                                           XYZ

 Extrapolation method: ASPC

 Number of electrons:                                                        132
 Number of occupied orbitals:                                                 66
 Number of molecular orbitals:                                               152

 Number of orbital functions:                                                152
 Number of independent orbital functions:                                    152


 SCF WAVEFUNCTION OPTIMIZATION

  Step     Update method      Time    Convergence         Total energy    Change
  ------------------------------------------------------------------------------
     1 TBLite/Diag 0.40E+00    0.0     0.00264807       -70.0113191478 -7.00E+01
     2 TBLite/Diag 0.40E+00    0.0     0.00034468       -70.0113196474 -5.00E-07
     3 TBLite/Diag 0.40E+00    0.0     0.00010141       -70.0113197219 -7.45E-08
     4 TBLite/Diag 0.40E+00    0.0     0.00005884       -70.0113197160  5.83E-09
     5 TBLite/Diag 0.40E+00    0.0     0.00003797       -70.0113197373 -2.13E-08
     6 TBLite/Diag 0.40E+00    0.0     0.00000484       -70.0113197377 -3.48E-10
     7 TBLite/Diag 0.40E+00    0.0     0.00000059       -70.0113197377 -2.63E-12
     8 TBLite/Diag 0.40E+00    0.0     0.00000016       -70.0113197377 -1.71E-13
     9 TBLite/Diag 0.40E+00    0.0     0.00000002       -70.0113197377  0.00E+00
    10 TBLite/Diag 0.40E+00    0.0     7.1788E-09       -70.0113197377  1.42E-14
    11 TBLite/Diag 0.40E+00    0.0     3.5032E-10       -70.0113197377  8.53E-14

  *** SCF run converged in    11 steps ***


  Core Hamiltonian energy:                                    -71.21145581258651
  Repulsive potential energy:                                   1.29782139292612
  Electrostatic energy:                                         0.00256502657356
  Self-consistent dispersion energy:                            0.00000000000000
  Non-self consistent dispersion energy:                       -0.10025034460433
  Correction for halogen bonding:                               0.00000000000000
  Electronic entropic energy:                                  -0.00000000000000
  Fermi energy:                                                -0.35727830853865

  Total energy:                                               -70.01131973769115
  Total energy (extrapolated to T->0):                        -70.01131973769115

 ENERGY| Total FORCE_EVAL ( QS ) energy [hartree]            -70.011319737691153

 OPT| **************************************************************************
 OPT| Step number                                                              5
 OPT| Optimization method                                                   BFGS
 OPT| Total energy [hartree]                                      -70.0113197377
 OPT| Internal pressure [bar]                                   -6850.4925388732
 OPT| Effective energy change [hartree]                            -0.0002834946
 OPT| Predicted energy change [hartree]                            -0.0001768386
 OPT| Scaling factor                                                0.0000000000
 OPT| Step size                                                     0.0053764335
 OPT| Trust radius                                                  0.4724315332
 OPT| Decrease in energy                                                     YES
 OPT| Used time [s]                                                        0.780
 OPT|
 OPT| Maximum step size                                             0.0053764335
 OPT| Convergence limit for maximum step size                       0.0030000000
 OPT| Maximum step size is converged                                          NO
 OPT|
 OPT| RMS step size                                                 0.0025419213
 OPT| Convergence limit for RMS step size                           0.0015000000
 OPT| RMS step size is converged                                              NO
 OPT|
 OPT| Maximum gradient                                              0.0070949064
 OPT| Convergence limit for maximum gradient                        0.0004500000
 OPT| Maximum gradient is converged                                           NO
 OPT|
 OPT| RMS gradient                                                  0.0011150273
 OPT| Convergence limit for RMS gradient                            0.0003000000
 OPT| RMS gradient is converged                                               NO
 OPT|
 OPT| Pressure deviation [bar]                                  -6850.4925388732
 OPT| Pressure tolerance [bar]                                    100.0000000000
 OPT| Pressure is converged                                                   NO
 OPT| **************************************************************************
 OPT| Estimated peak process memory after this step [MiB]                    175

 --------------------------
 OPTIMIZATION STEP:      6
 --------------------------

 CELL| Volume [angstrom^3]:                                           467.920068
 CELL| Vector a [angstrom]:       8.415     0.000     0.000   |a| =     8.414523
 CELL| Vector b [angstrom]:       0.000     6.111     0.000   |b| =     6.111280
 CELL| Vector c [angstrom]:      -6.422     0.000     9.099   |c| =    11.137614
 CELL| Angle (b,c), alpha [degree]:                                    90.000000
 CELL| Angle (a,c), beta  [degree]:                                   125.215198
 CELL| Angle (a,b), gamma [degree]:                                    90.000000
 CELL| Numerically orthorhombic:                                              NO
 CELL| Periodicity                                                           XYZ

 Extrapolation method: ASPC

 Number of electrons:                                                        132
 Number of occupied orbitals:                                                 66
 Number of molecular orbitals:                                               152

 Number of orbital functions:                                                152
 Number of independent orbital functions:                                    152


 SCF WAVEFUNCTION OPTIMIZATION

  Step     Update method      Time    Convergence         Total energy    Change
  ------------------------------------------------------------------------------
     1 TBLite/Diag 0.40E+00    0.0     0.00561123       -70.0117623111 -7.00E+01
     2 TBLite/Diag 0.40E+00    0.0     0.00040276       -70.0117630704 -7.59E-07
     3 TBLite/Diag 0.40E+00    0.0     0.00012276       -70.0117632084 -1.38E-07
     4 TBLite/Diag 0.40E+00    0.0     0.00005264       -70.0117632091 -7.49E-10
     5 TBLite/Diag 0.40E+00    0.0     0.00003139       -70.0117632248 -1.57E-08
     6 TBLite/Diag 0.40E+00    0.0     0.00000368       -70.0117632249 -9.71E-11
     7 TBLite/Diag 0.40E+00    0.0     0.00000097       -70.0117632249 -7.32E-12
     8 TBLite/Diag 0.40E+00    0.0     0.00000034       -70.0117632249 -1.66E-12
     9 TBLite/Diag 0.40E+00    0.0     0.00000004       -70.0117632249  7.11E-14
    10 TBLite/Diag 0.40E+00    0.0     9.1653E-09       -70.0117632249  7.11E-14
    11 TBLite/Diag 0.40E+00    0.0     7.2682E-10       -70.0117632249  1.85E-13

  *** SCF run converged in    11 steps ***


  Core Hamiltonian energy:                                    -71.21118133183451
  Repulsive potential energy:                                   1.29738481318422
  Electrostatic energy:                                         0.00255524573336
  Self-consistent dispersion energy:                            0.00000000000000
  Non-self consistent dispersion energy:                       -0.10052195200920
  Correction for halogen bonding:                               0.00000000000000
  Electronic entropic energy:                                  -0.00000000000000
  Fermi energy:                                                -0.35711465802029

  Total energy:                                               -70.01176322492613
  Total energy (extrapolated to T->0):                        -70.01176322492613

 ENERGY| Total FORCE_EVAL ( QS ) energy [hartree]            -70.011763224926128

 OPT| **************************************************************************
 OPT| Step number                                                              6
 OPT| Optimization method                                                   BFGS
 OPT| Total energy [hartree]                                      -70.0117632249
 OPT| Internal pressure [bar]                                   -6814.1675725032
 OPT| Effective energy change [hartree]                            -0.0004434872
 OPT| Predicted energy change [hartree]                            -0.0003047374
 OPT| Scaling factor                                                0.0000000000
 OPT| Step size                                                     0.0141142462
 OPT| Trust radius                                                  0.4724315332
 OPT| Decrease in energy                                                     YES
 OPT| Used time [s]                                                        0.780
 OPT|
 OPT| Maximum step size                                             0.0141142462
 OPT| Convergence limit for maximum step size                       0.0030000000
 OPT| Maximum step size is converged                                          NO
 OPT|
 OPT| RMS step size                                                 0.0051975729
 OPT| Convergence limit for RMS step size                           0.0015000000
 OPT| RMS step size is converged                                              NO
 OPT|
 OPT| Maximum gradient                                              0.0083372833
 OPT| Convergence limit for maximum gradient                        0.0004500000
 OPT| Maximum gradient is converged                                           NO
 OPT|
 OPT| RMS gradient                                                  0.0012362926
 OPT| Convergence limit for RMS gradient                            0.0003000000
 OPT| RMS gradient is converged                                               NO
 OPT|
 OPT| Pressure deviation [bar]                                  -6814.1675725032
 OPT| Pressure tolerance [bar]                                    100.0000000000
 OPT| Pressure is converged                                                   NO
 OPT| **************************************************************************
 OPT| Estimated peak process memory after this step [MiB]                    175

 --------------------------
 OPTIMIZATION STEP:      7
 --------------------------

 CELL| Volume [angstrom^3]:                                           466.169946
 CELL| Vector a [angstrom]:       8.405     0.000     0.000   |a| =     8.405366
 CELL| Vector b [angstrom]:       0.000     6.100     0.000   |b| =     6.100473
 CELL| Vector c [angstrom]:      -6.421     0.000     9.091   |c| =    11.130111
 CELL| Angle (b,c), alpha [degree]:                                    90.000000
 CELL| Angle (a,c), beta  [degree]:                                   125.232594
 CELL| Angle (a,b), gamma [degree]:                                    90.000000
 CELL| Numerically orthorhombic:                                              NO
 CELL| Periodicity                                                           XYZ

 Extrapolation method: ASPC

 Number of electrons:                                                        132
 Number of occupied orbitals:                                                 66
 Number of molecular orbitals:                                               152

 Number of orbital functions:                                                152
 Number of independent orbital functions:                                    152


 SCF WAVEFUNCTION OPTIMIZATION

  Step     Update method      Time    Convergence         Total energy    Change
  ------------------------------------------------------------------------------
     1 TBLite/Diag 0.40E+00    0.0     0.00590318       -70.0121225253 -7.00E+01
     2 TBLite/Diag 0.40E+00    0.0     0.00014413       -70.0121227573 -2.32E-07
     3 TBLite/Diag 0.40E+00    0.0     0.00009914       -70.0121227491  8.20E-09
     4 TBLite/Diag 0.40E+00    0.0     0.00005955       -70.0121227956 -4.65E-08
     5 TBLite/Diag 0.40E+00    0.0     0.00001065       -70.0121227971 -1.45E-09
     6 TBLite/Diag 0.40E+00    0.0     0.00000252       -70.0121227971 -6.75E-11
     7 TBLite/Diag 0.40E+00    0.0     0.00000083       -70.0121227971 -6.41E-12
     8 TBLite/Diag 0.40E+00    0.0     0.00000021       -70.0121227971 -9.95E-14
     9 TBLite/Diag 0.40E+00    0.0     7.6189E-09       -70.0121227971 -1.42E-14
    10 TBLite/Diag 0.40E+00    0.0     2.3446E-09       -70.0121227971 -1.56E-13
    11 TBLite/Diag 0.40E+00    0.0     1.5032E-10       -70.0121227971 -1.42E-14

  *** SCF run converged in    11 steps ***


  Core Hamiltonian energy:                                    -71.21568974994696
  Repulsive potential energy:                                   1.30192441529225
  Electrostatic energy:                                         0.00254957154190
  Self-consistent dispersion energy:                            0.00000000000000
  Non-self consistent dispersion energy:                       -0.10090703402628
  Correction for halogen bonding:                               0.00000000000000
  Electronic entropic energy:                                  -0.00000000000000
  Fermi energy:                                                -0.35716080179274

  Total energy:                                               -70.01212279713909
  Total energy (extrapolated to T->0):                        -70.01212279713909

 ENERGY| Total FORCE_EVAL ( QS ) energy [hartree]            -70.012122797139085

 OPT| **************************************************************************
 OPT| Step number                                                              7
 OPT| Optimization method                                                   BFGS
 OPT| Total energy [hartree]                                      -70.0121227971
 OPT| Internal pressure [bar]                                   -4658.9451723965
 OPT| Effective energy change [hartree]                            -0.0003595722
 OPT| Predicted energy change [hartree]                            -0.0002500221
 OPT| Scaling factor                                                0.0000000000
 OPT| Step size                                                     0.0204232818
 OPT| Trust radius                                                  0.4724315332
 OPT| Decrease in energy                                                     YES
 OPT| Used time [s]                                                        0.783
 OPT|
 OPT| Maximum step size                                             0.0204232818
 OPT| Convergence limit for maximum step size                       0.0030000000
 OPT| Maximum step size is converged                                          NO
 OPT|
 OPT| RMS step size                                                 0.0054641327
 OPT| Convergence limit for RMS step size                           0.0015000000
 OPT| RMS step size is converged                                              NO
 OPT|
 OPT| Maximum gradient                                              0.0063802006
 OPT| Convergence limit for maximum gradient                        0.0004500000
 OPT| Maximum gradient is converged                                           NO
 OPT|
 OPT| RMS gradient                                                  0.0011340389
 OPT| Convergence limit for RMS gradient                            0.0003000000
 OPT| RMS gradient is converged                                               NO
 OPT|
 OPT| Pressure deviation [bar]                                  -4658.9451723965
 OPT| Pressure tolerance [bar]                                    100.0000000000
 OPT| Pressure is converged                                                   NO
 OPT| **************************************************************************
 OPT| Estimated peak process memory after this step [MiB]                    175

 --------------------------
 OPTIMIZATION STEP:      8
 --------------------------

 CELL| Volume [angstrom^3]:                                           464.381854
 CELL| Vector a [angstrom]:       8.397     0.000     0.000   |a| =     8.396766
 CELL| Vector b [angstrom]:       0.000     6.088     0.000   |b| =     6.088436
 CELL| Vector c [angstrom]:      -6.420     0.000     9.084   |c| =    11.123437
 CELL| Angle (b,c), alpha [degree]:                                    90.000000
 CELL| Angle (a,c), beta  [degree]:                                   125.252429
 CELL| Angle (a,b), gamma [degree]:                                    90.000000
 CELL| Numerically orthorhombic:                                              NO
 CELL| Periodicity                                                           XYZ

 Extrapolation method: ASPC

 Number of electrons:                                                        132
 Number of occupied orbitals:                                                 66
 Number of molecular orbitals:                                               152

 Number of orbital functions:                                                152
 Number of independent orbital functions:                                    152


 SCF WAVEFUNCTION OPTIMIZATION

  Step     Update method      Time    Convergence         Total energy    Change
  ------------------------------------------------------------------------------
     1 TBLite/Diag 0.40E+00    0.0     0.00498607       -70.0123713033 -7.00E+01
     2 TBLite/Diag 0.40E+00    0.0     0.00011655       -70.0123714439 -1.41E-07
     3 TBLite/Diag 0.40E+00    0.0     0.00004982       -70.0123714380  6.00E-09
     4 TBLite/Diag 0.40E+00    0.0     0.00004503       -70.0123714454 -7.43E-09
     5 TBLite/Diag 0.40E+00    0.0     0.00002031       -70.0123714509 -5.57E-09
     6 TBLite/Diag 0.40E+00    0.0     0.00000439       -70.0123714512 -2.77E-10
     7 TBLite/Diag 0.40E+00    0.0     0.00000066       -70.0123714512 -3.60E-12
     8 TBLite/Diag 0.40E+00    0.0     0.00000020       -70.0123714512  1.56E-13
     9 TBLite/Diag 0.40E+00    0.0     0.00000001       -70.0123714512 -2.70E-13
    10 TBLite/Diag 0.40E+00    0.0     6.4673E-09       -70.0123714512  3.55E-13
    11 TBLite/Diag 0.40E+00    0.0     5.1588E-10       -70.0123714512 -3.98E-13

  *** SCF run converged in    11 steps ***


  Core Hamiltonian energy:                                    -71.22201944722434
  Repulsive potential energy:                                   1.30839769155557
  Electrostatic energy:                                         0.00254677246451
  Self-consistent dispersion energy:                            0.00000000000000
  Non-self consistent dispersion energy:                       -0.10129646802295
  Correction for halogen bonding:                               0.00000000000000
  Electronic entropic energy:                                  -0.00000000000000
  Fermi energy:                                                -0.35735944891242

  Total energy:                                               -70.01237145122721
  Total energy (extrapolated to T->0):                        -70.01237145122721

 ENERGY| Total FORCE_EVAL ( QS ) energy [hartree]            -70.012371451227210

 OPT| **************************************************************************
 OPT| Step number                                                              8
 OPT| Optimization method                                                   BFGS
 OPT| Total energy [hartree]                                      -70.0123714512
 OPT| Internal pressure [bar]                                   -1792.7161604526
 OPT| Effective energy change [hartree]                            -0.0002486541
 OPT| Predicted energy change [hartree]                            -0.0001779415
 OPT| Scaling factor                                                0.0000000000
 OPT| Step size                                                     0.0227465304
 OPT| Trust radius                                                  0.4724315332
 OPT| Decrease in energy                                                     YES
 OPT| Used time [s]                                                        0.785
 OPT|
 OPT| Maximum step size                                             0.0227465304
 OPT| Convergence limit for maximum step size                       0.0030000000
 OPT| Maximum step size is converged                                          NO
 OPT|
 OPT| RMS step size                                                 0.0044919566
 OPT| Convergence limit for RMS step size                           0.0015000000
 OPT| RMS step size is converged                                              NO
 OPT|
 OPT| Maximum gradient                                              0.0028906608
 OPT| Convergence limit for maximum gradient                        0.0004500000
 OPT| Maximum gradient is converged                                           NO
 OPT|
 OPT| RMS gradient                                                  0.0008551493
 OPT| Convergence limit for RMS gradient                            0.0003000000
 OPT| RMS gradient is converged                                               NO
 OPT|
 OPT| Pressure deviation [bar]                                  -1792.7161604526
 OPT| Pressure tolerance [bar]                                    100.0000000000
 OPT| Pressure is converged                                                   NO
 OPT| **************************************************************************
 OPT| Estimated peak process memory after this step [MiB]                    175

 --------------------------
 OPTIMIZATION STEP:      9
 --------------------------

 CELL| Volume [angstrom^3]:                                           463.045589
 CELL| Vector a [angstrom]:       8.390     0.000     0.000   |a| =     8.390195
 CELL| Vector b [angstrom]:       0.000     6.079     0.000   |b| =     6.079101
 CELL| Vector c [angstrom]:      -6.421     0.000     9.078   |c| =    11.119636
 CELL| Angle (b,c), alpha [degree]:                                    90.000000
 CELL| Angle (a,c), beta  [degree]:                                   125.270467
 CELL| Angle (a,b), gamma [degree]:                                    90.000000
 CELL| Numerically orthorhombic:                                              NO
 CELL| Periodicity                                                           XYZ

 Extrapolation method: ASPC

 Number of electrons:                                                        132
 Number of occupied orbitals:                                                 66
 Number of molecular orbitals:                                               152

 Number of orbital functions:                                                152
 Number of independent orbital functions:                                    152


 SCF WAVEFUNCTION OPTIMIZATION

  Step     Update method      Time    Convergence         Total energy    Change
  ------------------------------------------------------------------------------
     1 TBLite/Diag 0.40E+00    0.0     0.00260560       -70.0125384132 -7.00E+01
     2 TBLite/Diag 0.40E+00    0.0     0.00017118       -70.0125385872 -1.74E-07
     3 TBLite/Diag 0.40E+00    0.0     0.00011186       -70.0125385755  1.17E-08
     4 TBLite/Diag 0.40E+00    0.0     0.00007281       -70.0125386276 -5.21E-08
     5 TBLite/Diag 0.40E+00    0.0     0.00002013       -70.0125386339 -6.31E-09
     6 TBLite/Diag 0.40E+00    0.0     0.00000365       -70.0125386341 -2.02E-10
     7 TBLite/Diag 0.40E+00    0.0     0.00000027       -70.0125386341 -3.84E-13
     8 TBLite/Diag 0.40E+00    0.0     0.00000013       -70.0125386341  5.68E-14
     9 TBLite/Diag 0.40E+00    0.0     0.00000001       -70.0125386341  4.26E-14
    10 TBLite/Diag 0.40E+00    0.0     3.9456E-09       -70.0125386341  8.53E-14
    11 TBLite/Diag 0.40E+00    0.0     1.6513E-10       -70.0125386341  1.85E-13

  *** SCF run converged in    11 steps ***


  Core Hamiltonian energy:                                    -71.22608588156669
  Repulsive potential energy:                                   1.31259915686075
  Electrostatic energy:                                         0.00254392305905
  Self-consistent dispersion energy:                            0.00000000000000
  Non-self consistent dispersion energy:                       -0.10159583242926
  Correction for halogen bonding:                               0.00000000000000
  Electronic entropic energy:                                  -0.00000000000000
  Fermi energy:                                                -0.35755991068400

  Total energy:                                               -70.01253863407614
  Total energy (extrapolated to T->0):                        -70.01253863407614

 ENERGY| Total FORCE_EVAL ( QS ) energy [hartree]            -70.012538634076137

 OPT| **************************************************************************
 OPT| Step number                                                              9
 OPT| Optimization method                                                   BFGS
 OPT| Total energy [hartree]                                      -70.0125386341
 OPT| Internal pressure [bar]                                     -21.0494597410
 OPT| Effective energy change [hartree]                            -0.0001671828
 OPT| Predicted energy change [hartree]                            -0.0001091843
 OPT| Scaling factor                                                0.0000000000
 OPT| Step size                                                     0.0176406703
 OPT| Trust radius                                                  0.4724315332
 OPT| Decrease in energy                                                     YES
 OPT| Used time [s]                                                        0.786
 OPT|
 OPT| Maximum step size                                             0.0176406703
 OPT| Convergence limit for maximum step size                       0.0030000000
 OPT| Maximum step size is converged                                          NO
 OPT|
 OPT| RMS step size                                                 0.0030756019
 OPT| Convergence limit for RMS step size                           0.0015000000
 OPT| RMS step size is converged                                              NO
 OPT|
 OPT| Maximum gradient                                              0.0019936824
 OPT| Convergence limit for maximum gradient                        0.0004500000
 OPT| Maximum gradient is converged                                           NO
 OPT|
 OPT| RMS gradient                                                  0.0008125250
 OPT| Convergence limit for RMS gradient                            0.0003000000
 OPT| RMS gradient is converged                                               NO
 OPT|
 OPT| Pressure deviation [bar]                                    -21.0494597410
 OPT| Pressure tolerance [bar]                                    100.0000000000
 OPT| Pressure is converged                                                  YES
 OPT| **************************************************************************
 OPT| Estimated peak process memory after this step [MiB]                    175

 --------------------------
 OPTIMIZATION STEP:     10
 --------------------------

 CELL| Volume [angstrom^3]:                                           461.276197
 CELL| Vector a [angstrom]:       8.381     0.000     0.000   |a| =     8.380630
 CELL| Vector b [angstrom]:       0.000     6.067     0.000   |b| =     6.066826
 CELL| Vector c [angstrom]:      -6.423     0.000     9.072   |c| =    11.116100
 CELL| Angle (b,c), alpha [degree]:                                    90.000000
 CELL| Angle (a,c), beta  [degree]:                                   125.298697
 CELL| Angle (a,b), gamma [degree]:                                    90.000000
 CELL| Numerically orthorhombic:                                              NO
 CELL| Periodicity                                                           XYZ

 Extrapolation method: ASPC

 Number of electrons:                                                        132
 Number of occupied orbitals:                                                 66
 Number of molecular orbitals:                                               152

 Number of orbital functions:                                                152
 Number of independent orbital functions:                                    152


 SCF WAVEFUNCTION OPTIMIZATION

  Step     Update method      Time    Convergence         Total energy    Change
  ------------------------------------------------------------------------------
     1 TBLite/Diag 0.40E+00    0.0     0.00265250       -70.0127645475 -7.00E+01
     2 TBLite/Diag 0.40E+00    0.0     0.00019801       -70.0127648261 -2.79E-07
     3 TBLite/Diag 0.40E+00    0.0     0.00012222       -70.0127649065 -8.04E-08
     4 TBLite/Diag 0.40E+00    0.0     0.00004548       -70.0127649352 -2.87E-08
     5 TBLite/Diag 0.40E+00    0.0     0.00001003       -70.0127649373 -2.11E-09
     6 TBLite/Diag 0.40E+00    0.0     0.00000291       -70.0127649374 -7.89E-11
     7 TBLite/Diag 0.40E+00    0.0     0.00000029       -70.0127649374 -3.13E-13
     8 TBLite/Diag 0.40E+00    0.0     0.00000008       -70.0127649374  1.56E-13
     9 TBLite/Diag 0.40E+00    0.0     0.00000002       -70.0127649374 -1.28E-13
    10 TBLite/Diag 0.40E+00    0.0     3.5354E-09       -70.0127649374 -9.95E-14
    11 TBLite/Diag 0.40E+00    0.0     1.7834E-10       -70.0127649374  4.12E-13

  *** SCF run converged in    11 steps ***


  Core Hamiltonian energy:                                    -71.22859893973452
  Repulsive potential energy:                                   1.31530821066927
  Electrostatic energy:                                         0.00253647253522
  Self-consistent dispersion energy:                            0.00000000000000
  Non-self consistent dispersion energy:                       -0.10201068082072
  Correction for halogen bonding:                               0.00000000000000
  Electronic entropic energy:                                  -0.00000000000000
  Fermi energy:                                                -0.35779857236119

  Total energy:                                               -70.01276493735074
  Total energy (extrapolated to T->0):                        -70.01276493735074

 ENERGY| Total FORCE_EVAL ( QS ) energy [hartree]            -70.012764937350738

 OPT| **************************************************************************
 OPT| Step number                                                             10
 OPT| Optimization method                                                   BFGS
 OPT| Total energy [hartree]                                      -70.0127649374
 OPT| Internal pressure [bar]                                    1081.5280610890
 OPT| Effective energy change [hartree]                            -0.0002263033
 OPT| Predicted energy change [hartree]                            -0.0001419098
 OPT| Scaling factor                                                0.0000000000
 OPT| Step size                                                     0.0231960068
 OPT| Trust radius                                                  0.4724315332
 OPT| Decrease in energy                                                     YES
 OPT| Used time [s]                                                        0.786
 OPT|
 OPT| Maximum step size                                             0.0231960068
 OPT| Convergence limit for maximum step size                       0.0030000000
 OPT| Maximum step size is converged                                          NO
 OPT|
 OPT| RMS step size                                                 0.0043401157
 OPT| Convergence limit for RMS step size                           0.0015000000
 OPT| RMS step size is converged                                              NO
 OPT|
 OPT| Maximum gradient                                              0.0021465034
 OPT| Convergence limit for maximum gradient                        0.0004500000
 OPT| Maximum gradient is converged                                           NO
 OPT|
 OPT| RMS gradient                                                  0.0010555112
 OPT| Convergence limit for RMS gradient                            0.0003000000
 OPT| RMS gradient is converged                                               NO
 OPT|
 OPT| Pressure deviation [bar]                                   1081.5280610890
 OPT| Pressure tolerance [bar]                                    100.0000000000
 OPT| Pressure is converged                                                   NO
 OPT| **************************************************************************
 OPT| Estimated peak process memory after this step [MiB]                    175

 --------------------------
 OPTIMIZATION STEP:     11
 --------------------------

 CELL| Volume [angstrom^3]:                                           458.089958
 CELL| Vector a [angstrom]:       8.362     0.000     0.000   |a| =     8.362133
 CELL| Vector b [angstrom]:       0.000     6.045     0.000   |b| =     6.044991
 CELL| Vector c [angstrom]:      -6.429    -0.000     9.062   |c| =    11.111320
 CELL| Angle (b,c), alpha [degree]:                                    90.000000
 CELL| Angle (a,c), beta  [degree]:                                   125.354170
 CELL| Angle (a,b), gamma [degree]:                                    90.000000
 CELL| Numerically orthorhombic:                                              NO
 CELL| Periodicity                                                           XYZ

 Extrapolation method: ASPC

 Number of electrons:                                                        132
 Number of occupied orbitals:                                                 66
 Number of molecular orbitals:                                               152

 Number of orbital functions:                                                152
 Number of independent orbital functions:                                    152


 SCF WAVEFUNCTION OPTIMIZATION

  Step     Update method      Time    Convergence         Total energy    Change
  ------------------------------------------------------------------------------
     1 TBLite/Diag 0.40E+00    0.0     0.00494935       -70.0131575457 -7.00E+01
     2 TBLite/Diag 0.40E+00    0.0     0.00027393       -70.0131580055 -4.60E-07
     3 TBLite/Diag 0.40E+00    0.0     0.00012702       -70.0131582179 -2.12E-07
     4 TBLite/Diag 0.40E+00    0.0     0.00003183       -70.0131582233 -5.37E-09
     5 TBLite/Diag 0.40E+00    0.0     0.00000981       -70.0131582240 -6.79E-10
     6 TBLite/Diag 0.40E+00    0.0     0.00000195       -70.0131582240 -4.84E-11
     7 TBLite/Diag 0.40E+00    0.0     0.00000049       -70.0131582240 -3.00E-12
     8 TBLite/Diag 0.40E+00    0.0     0.00000019       -70.0131582240  5.68E-14
     9 TBLite/Diag 0.40E+00    0.0     4.2971E-09       -70.0131582240 -2.84E-14
    10 TBLite/Diag 0.40E+00    0.0     2.3595E-09       -70.0131582240 -1.71E-13
    11 TBLite/Diag 0.40E+00    0.0     1.6625E-10       -70.0131582240  4.26E-14

  *** SCF run converged in    11 steps ***


  Core Hamiltonian energy:                                    -71.22879944533327
  Repulsive potential energy:                                   1.31590790160613
  Electrostatic energy:                                         0.00251815030410
  Self-consistent dispersion energy:                            0.00000000000000
  Non-self consistent dispersion energy:                       -0.10278483061231
  Correction for halogen bonding:                               0.00000000000000
  Electronic entropic energy:                                  -0.00000000000000
  Fermi energy:                                                -0.35812217274919

  Total energy:                                               -70.01315822403535
  Total energy (extrapolated to T->0):                        -70.01315822403535

 ENERGY| Total FORCE_EVAL ( QS ) energy [hartree]            -70.013158224035351

 OPT| **************************************************************************
 OPT| Step number                                                             11
 OPT| Optimization method                                                   BFGS
 OPT| Total energy [hartree]                                      -70.0131582240
 OPT| Internal pressure [bar]                                    1340.3527713967
 OPT| Effective energy change [hartree]                            -0.0003932867
 OPT| Predicted energy change [hartree]                            -0.0002476944
 OPT| Scaling factor                                                0.0000000000
 OPT| Step size                                                     0.0412617461
 OPT| Trust radius                                                  0.4724315332
 OPT| Decrease in energy                                                     YES
 OPT| Used time [s]                                                        0.789
 OPT|
 OPT| Maximum step size                                             0.0412617461
 OPT| Convergence limit for maximum step size                       0.0030000000
 OPT| Maximum step size is converged                                          NO
 OPT|
 OPT| RMS step size                                                 0.0083459453
 OPT| Convergence limit for RMS step size                           0.0015000000
 OPT| RMS step size is converged                                              NO
 OPT|
 OPT| Maximum gradient                                              0.0036298149
 OPT| Convergence limit for maximum gradient                        0.0004500000
 OPT| Maximum gradient is converged                                           NO
 OPT|
 OPT| RMS gradient                                                  0.0014778223
 OPT| Convergence limit for RMS gradient                            0.0003000000
 OPT| RMS gradient is converged                                               NO
 OPT|
 OPT| Pressure deviation [bar]                                   1340.3527713967
 OPT| Pressure tolerance [bar]                                    100.0000000000
 OPT| Pressure is converged                                                   NO
 OPT| **************************************************************************
 OPT| Estimated peak process memory after this step [MiB]                    175

 --------------------------
 OPTIMIZATION STEP:     12
 --------------------------

 CELL| Volume [angstrom^3]:                                           452.606371
 CELL| Vector a [angstrom]:       8.329     0.000     0.000   |a| =     8.329128
 CELL| Vector b [angstrom]:       0.000     6.007     0.000   |b| =     6.007383
 CELL| Vector c [angstrom]:      -6.441     0.000     9.046   |c| =    11.104493
 CELL| Angle (b,c), alpha [degree]:                                    90.000000
 CELL| Angle (a,c), beta  [degree]:                                   125.453518
 CELL| Angle (a,b), gamma [degree]:                                    90.000000
 CELL| Numerically orthorhombic:                                              NO
 CELL| Periodicity                                                           XYZ

 Extrapolation method: ASPC

 Number of electrons:                                                        132
 Number of occupied orbitals:                                                 66
 Number of molecular orbitals:                                               152

 Number of orbital functions:                                                152
 Number of independent orbital functions:                                    152


 SCF WAVEFUNCTION OPTIMIZATION

  Step     Update method      Time    Convergence         Total energy    Change
  ------------------------------------------------------------------------------
     1 TBLite/Diag 0.40E+00    0.0     0.00811175       -70.0137812338 -7.00E+01
     2 TBLite/Diag 0.40E+00    0.0     0.00031193       -70.0137817563 -5.22E-07
     3 TBLite/Diag 0.40E+00    0.0     0.00016284       -70.0137819264 -1.70E-07
     4 TBLite/Diag 0.40E+00    0.0     0.00005851       -70.0137819736 -4.72E-08
     5 TBLite/Diag 0.40E+00    0.0     0.00001312       -70.0137819755 -1.91E-09
     6 TBLite/Diag 0.40E+00    0.0     0.00000290       -70.0137819756 -9.39E-11
     7 TBLite/Diag 0.40E+00    0.0     0.00000081       -70.0137819756 -7.22E-12
     8 TBLite/Diag 0.40E+00    0.0     0.00000019       -70.0137819756 -1.28E-13
     9 TBLite/Diag 0.40E+00    0.0     0.00000004       -70.0137819756  2.84E-14
    10 TBLite/Diag 0.40E+00    0.0     2.5461E-09       -70.0137819756 -1.99E-13
    11 TBLite/Diag 0.40E+00    0.0     8.1588E-10       -70.0137819756  1.14E-13

  *** SCF run converged in    11 steps ***


  Core Hamiltonian energy:                                    -71.22499206967778
  Repulsive potential energy:                                   1.31287888922835
  Electrostatic energy:                                         0.00248446745399
  Self-consistent dispersion energy:                            0.00000000000000
  Non-self consistent dispersion energy:                       -0.10415326264891
  Correction for halogen bonding:                               0.00000000000000
  Electronic entropic energy:                                  -0.00000000000000
  Fermi energy:                                                -0.35851779546050

[...]
 CELL| Periodicity                                                           XYZ

 Extrapolation method: ASPC

 Number of electrons:                                                        132
 Number of occupied orbitals:                                                 66
 Number of molecular orbitals:                                               152

 Number of orbital functions:                                                152
 Number of independent orbital functions:                                    152


 SCF WAVEFUNCTION OPTIMIZATION

  Step     Update method      Time    Convergence         Total energy    Change
  ------------------------------------------------------------------------------
     1 TBLite/Diag 0.40E+00    0.0     0.00049329       -70.1939523438 -7.02E+01
     2 TBLite/Diag 0.40E+00    0.0     0.00000846       -70.1939523459 -2.09E-09
     3 TBLite/Diag 0.40E+00    0.0     0.00000271       -70.1939523460 -6.36E-11
     4 TBLite/Diag 0.40E+00    0.0     0.00000127       -70.1939523460 -3.10E-11
     5 TBLite/Diag 0.40E+00    0.0     0.00000050       -70.1939523460 -2.17E-12
     6 TBLite/Diag 0.40E+00    0.0     0.00000007       -70.1939523460 -1.14E-13
     7 TBLite/Diag 0.40E+00    0.0     0.00000005       -70.1939523460 -1.42E-14
     8 TBLite/Diag 0.40E+00    0.0     1.7873E-09       -70.1939523460 -1.28E-13
     9 TBLite/Diag 0.40E+00    0.0     6.6656E-10       -70.1939523460  4.12E-13

  *** SCF run converged in     9 steps ***


  Core Hamiltonian energy:                                    -71.25293014526646
  Repulsive potential energy:                                   1.17299876808705
  Electrostatic energy:                                         0.00247078792270
  Self-consistent dispersion energy:                            0.00000000000000
  Non-self consistent dispersion energy:                       -0.11649175677256
  Correction for halogen bonding:                               0.00000000000000
  Electronic entropic energy:                                  -0.00000000000000
  Fermi energy:                                                -0.29874577097802

  Total energy:                                               -70.19395234602926
  Total energy (extrapolated to T->0):                        -70.19395234602926

 ENERGY| Total FORCE_EVAL ( QS ) energy [hartree]            -70.193952346029263

 OPT| **************************************************************************
 OPT| Step number                                                            172
 OPT| Optimization method                                                   BFGS
 OPT| Total energy [hartree]                                      -70.1939523460
 OPT| Internal pressure [bar]                                     -13.6893661721
 OPT| Effective energy change [hartree]                            -0.0000004717
 OPT| Predicted energy change [hartree]                            -0.0000006012
 OPT| Scaling factor                                                0.7141231651
 OPT| Step size                                                     0.0016792135
 OPT| Trust radius                                                  0.4724315332
 OPT| Decrease in energy                                                     YES
 OPT| Used time [s]                                                        0.388
 OPT|
 OPT| Maximum step size                                             0.0016792135
 OPT| Convergence limit for maximum step size                       0.0030000000
 OPT| Maximum step size is converged                                         YES
 OPT|
 OPT| RMS step size                                                 0.0005692835
 OPT| Convergence limit for RMS step size                           0.0015000000
 OPT| RMS step size is converged                                             YES
 OPT|
 OPT| Maximum gradient                                              0.0000671735
 OPT| Convergence limit for maximum gradient                        0.0004500000
 OPT| Maximum gradient is converged                                          YES
 OPT|
 OPT| RMS gradient                                                  0.0000253107
 OPT| Convergence limit for RMS gradient                            0.0003000000
 OPT| RMS gradient is converged                                              YES
 OPT|
 OPT| Pressure deviation [bar]                                    -13.6893661721
 OPT| Pressure tolerance [bar]                                    100.0000000000
 OPT| Pressure is converged                                                  YES
 OPT| **************************************************************************
 OPT| Estimated peak process memory after this step [MiB]                    176

 *******************************************************************************
 ***                    GEOMETRY OPTIMIZATION COMPLETED                      ***
 *******************************************************************************

 write_final_structure: Optimization converged, writing XYZ file gladly:
  anthracene_GFN1_gamma_cell_opt-FINAL-1_172.xyz

 write_final_structure: Optimization converged, writing CIF file gladly:
  anthracene_GFN1_gamma_cell_opt-FINAL-1_172.cif

 write_final_structure: Done!

                    Reevaluating energy at the minimum

 CELL| Volume [angstrom^3]:                                           365.441197
 CELL| Vector a [angstrom]:       8.970     0.000     0.000   |a| =     8.969964
 CELL| Vector b [angstrom]:      -0.000     4.001     0.000   |b| =     4.000648
 CELL| Vector c [angstrom]:      -4.674     0.000    10.183   |c| =    11.204761
 CELL| Angle (b,c), alpha [degree]:                                    90.000000
 CELL| Angle (a,c), beta  [degree]:                                   114.652607
 CELL| Angle (a,b), gamma [degree]:                                    90.000000
 CELL| Numerically orthorhombic:                                              NO
 CELL| Periodicity                                                           XYZ

 Extrapolation method: ASPC

 Number of electrons:                                                        132
 Number of occupied orbitals:                                                 66
 Number of molecular orbitals:                                               152

 Number of orbital functions:                                                152
 Number of independent orbital functions:                                    152


 SCF WAVEFUNCTION OPTIMIZATION

  Step     Update method      Time    Convergence         Total energy    Change
  ------------------------------------------------------------------------------
     1 TBLite/Diag 0.40E+00    0.0     1.3457E-10       -70.1939523460 -7.02E+01

  *** SCF run converged in     1 steps ***


  Core Hamiltonian energy:                                    -71.25293014527499
  Repulsive potential energy:                                   1.17299876808705
  Electrostatic energy:                                         0.00247078793094
  Self-consistent dispersion energy:                            0.00000000000000
  Non-self consistent dispersion energy:                       -0.11649175677256
  Correction for halogen bonding:                               0.00000000000000
  Electronic entropic energy:                                  -0.00000000000000
  Fermi energy:                                                -0.29874577097433

  Total energy:                                               -70.19395234602955
  Total energy (extrapolated to T->0):                        -70.19395234602955

 ENERGY| Total FORCE_EVAL ( QS ) energy [hartree]            -70.193952346029548

 -------------------------------------------------------------------------------
 -                                                                             -
 -                                DBCSR STATISTICS                             -
 -                                                                             -
 -------------------------------------------------------------------------------
 COUNTER                                    TOTAL       BLAS       SMM       ACC
 flops     2 x    24 x     2             65664000       0.0%    100.0%      0.0%     
 flops     2 x    24 x     4            183859200       0.0%    100.0%      0.0%     
 flops     4 x    24 x     2            183859200       0.0%    100.0%      0.0%     
 flops     2 x    32 x     2            350208000       0.0%    100.0%      0.0%     
 flops     4 x    24 x     4            514805760       0.0%    100.0%      0.0%     
 flops     2 x     2 x   152            568176000       0.0%    100.0%      0.0%     
 flops     2 x    32 x     4            980582400       0.0%    100.0%      0.0%     
 flops     4 x    32 x     2            980582400       0.0%    100.0%      0.0%     
 flops     2 x     4 x   152           1515136000       0.0%    100.0%      0.0%     
 flops     4 x     2 x   152           1515136000       0.0%    100.0%      0.0%     
 flops     4 x    32 x     4           2745630720       0.0%    100.0%      0.0%     
 flops     4 x     4 x   152           4393894400       0.0%    100.0%      0.0%     
 flops inhomo. stacks                           0       0.0%      0.0%      0.0%
 flops total                        13.997534E+09       0.0%    100.0%      0.0%
 flops max/rank                     13.997534E+09       0.0%    100.0%      0.0%
 matmuls inhomo. stacks                         0       0.0%      0.0%      0.0%
 matmuls total                           12466200       0.0%    100.0%      0.0%
 number of processed stacks                 23435       0.0%    100.0%      0.0%
 average stack size                                     0.0     531.9       0.0
 marketing flops                    12.790466E+09
 -------------------------------------------------------------------------------
 # multiplications                           3080
 max memory usage/rank              13.679919E+09
 # max total images/rank                        1
 # max 3D layers                                1
 # MPI messages exchanged                       0
 -------------------------------------------------------------------------------
 -                                                                             -
 -                      DBCSR MESSAGE PASSING PERFORMANCE                      -
 -                                                                             -
 -------------------------------------------------------------------------------
 ROUTINE             CALLS      AVE VOLUME [Bytes]
 MP_Bcast               13                     12.
 MP_Allreduce        13733                      8.
 MP_Alltoall         98651                 122569.
 MP_ISend            12320                  10530.
 MP_IRecv            12320                  10530.
 -------------------------------------------------------------------------------

 -------------------------------------------------------------------------------
 -                                                                             -
 -                          OFFLOAD MEMPOOL STATISTICS                         -
 -                                                                             -
 -------------------------------------------------------------------------------
 Memory consumption                Number of allocations  Used [MiB]  Size [MiB]
 Device                                                1           0           0
 Host                                                  1           0           0
 -------------------------------------------------------------------------------

 MEMORY| Estimated peak process memory [MiB]                                 176

 -------------------------------------------------------------------------------
 -                                                                             -
 -                         MESSAGE PASSING PERFORMANCE                         -
 -                                                                             -
 -------------------------------------------------------------------------------

 ROUTINE             CALLS      AVE VOLUME [Bytes]
 MP_Group              173
 MP_Bcast             4448                    610.
 MP_Allreduce        31647                    366.
 MP_Sync              2397
 MP_comm_split        2224
 -------------------------------------------------------------------------------


 -------------------------------------------------------------------------------
 -                                                                             -
 -                           R E F E R E N C E S                               -
 -                                                                             -
 -------------------------------------------------------------------------------
 
 CP2K version 2026.1 (Development Version), the CP2K developers group (2026).
 CP2K is freely available from https://www.cp2k.org/ .
 
 M. Iannuzzi, J. Wilhelm, F. Stein, A. Bussy, H. Elgabarty, D. Golze, A. Hehn, 
 M. Graml, S. Marek, B. Sertcan Gökmen, C. Schran, H. Forbert, R. Z. 
 Khaliullin, A. Kozhevnikov, M. Taillefumier, R. Meli, V. V. Rybkin, M. Brehm, 
 R. Schade, O. Schütt, J. V. Pototschnig, H. Mirhosseini, A. Knüpfer, D. Marx, 
 M. Krack, J. Hutter, T. D. Kühne.
 J. Phys. Chem. B 130, 1237-1310 (2026).
 The CP2K Program Package Made Simple.
 https://doi.org/10.1021/acs.jpcb.5c05851

 A. Katbashev, M. Stahn, T. Rose, V. Alizadeh, M. Friede, C. Plett, P. 
 Steinbach, S. Ehlert.
 J. Phys. Chem. A 129, 2667-2682 (2025).
 Overview on Building Blocks and Applications of Efficient and Robust Extended 
 Tight Binding.
 https://doi.org/10.1021/acs.jpca.4c08263

 T. D. Kühne, M. Iannuzzi, M. Del Ben, V. V. Rybkin, P. Seewald, F. Stein, T. 
 Laino, R. Z. Khaliullin, O. Schütt, F. Schiffmann, D. Golze, J. Wilhelm, S. 
 Chulkov, M. H. Bani-Hashemian, V. Weber, U. Borstnik, M. Taillefumier, A. S. 
 Jakobovits, A. Lazzaro, H. Pabst, T. Müller, R. Schade, M. Guidon, S. 
 Andermatt, N. Holmberg, G. K. Schenter, A. Hehn, A. Bussy, F. Belleflamme, G. 
 Tabacchi, A. Glöß, M. Lass, I. Bethune, C. J. Mundy, C. Plessl, M. Watkins, 
 J. VandeVondele, M. Krack, J. Hutter.
 J. Chem. Phys. 152, 194103 (2020).
 CP2K: An electronic structure and molecular dynamics software package - 
 Quickstep: Efficient and accurate electronic structure calculations.
 https://doi.org/10.1063/5.0007045

 P. Pracht, E. Caldeweyher, S. Ehlert, S. Grimme.
 ChemRxiv, (2019).
 A Robust Non-Self-Consistent Tight-Binding Quantum Chemistry Method for large 
 Molecules.
 https://doi.org/10.26434/chemrxiv.8326202.v1

 S. Grimme, C. Bannwarth, P. Shushkov.
 J. Chem. Theory Comput. 13, 1989 (2017).
 A Robust and Accurate Tight-Binding Quantum Chemical Method for Structures, 
 Vibrational Frequencies, and Noncovalent Interactions of Large Molecular 
 Systems Parametrized for All spd-Block Elements (Z = 1-86).
 https://doi.org/10.1021/acs.jctc.7b00118

 O. Schuett, P. Messmer, J. Hutter, J. VandeVondele.
 Electronic Structure Calculations on Graphics Processing Units, 173-190 (2016).
 GPU-Accelerated Sparse Matrix-Matrix Multiplication for Linear Scaling Density 
 Functional Theory.
 https://doi.org/10.1002/9781118670712.ch8

 A. Heinecke, G. Henry, M. Hutchinson, H. Pabst.
 Proceedings of Intl. Supercomputing Conference, 981-991 (2016).
 LIBXSMM: Accelerating Small Matrix Multiplications by Runtime Code Generation.
 https://doi.org/10.1109/SC.2016.83

 U. Borstnik, J. VandeVondele, V. Weber, J. Hutter.
 Parallel Comput. 40, 47-58 (2014).
 Sparse matrix multiplication: The distributed block-compressed sparse row 
 library.
 https://doi.org/10.1016/j.parco.2014.03.012

 T. D. Kühne, M. Krack, F. R. Mohamed, M. Parrinello.
 Phys. Rev. Lett. 98, 066401 (2007).
 Efficient and accurate Car-Parrinello-like approach to Born-Oppenheimer 
 molecular dynamics.
 https://doi.org/10.1103/PhysRevLett.98.066401

 M. Frigo, S. G. Johnson.
 Proc. IEEE 93, 216-231 (2005).
 The design and implementation of FFTW3.
 https://doi.org/10.1109/JPROC.2004.840301

 J. Kolafa.
 J. Comput. Chem. 25, 335-342 (2004).
 Time-reversible always stable predictor-corrector method for molecular dynamics 
 of polarizable molecules.
 https://doi.org/10.1002/jcc.10385

 N. D. Mermin.
 Phys. Rev. 137, A1441-A1443 (1965).
 Thermal Properties of the Inhomogeneous Electron Gas.
 https://doi.org/10.1103/PhysRev.137.A1441


 -------------------------------------------------------------------------------
 -                                                                             -
 -                                T I M I N G                                  -
 -                                                                             -
 -------------------------------------------------------------------------------
 SUBROUTINE                       CALLS  ASD         SELF TIME        TOTAL TIME
                                MAXIMUM       AVERAGE  MAXIMUM  AVERAGE  MAXIMUM
 CP2K                                 1  1.0    0.003    0.003   85.912   85.912
 cp_cell_opt                          1  2.0    0.000    0.000   85.904   85.904
 geoopt_bfgs                          1  3.0    0.019    0.019   85.904   85.904
 cp_eval_at                         174  4.0    0.018    0.018   85.453   85.453
 qs_forces                          173  5.0    0.009    0.009   85.346   85.346
 build_tblite_matrices              347  7.0   35.504   35.504   35.929   35.929
 rebuild_ks_matrix                 2052  9.7    0.002    0.002   35.474   35.474
 build_tblite_ks_matrix            2052 10.7   35.447   35.447   35.472   35.472
 qs_ks_update_qs_env_forces         173  6.0    0.001    0.001   34.687   34.687
 qs_energies                        174  6.0    0.005    0.005   29.475   29.475
 qs_energies_init_hamiltonians      174  7.0    0.001    0.001   15.157   15.157
 scf_env_do_scf                     174  7.0    0.003    0.003   11.628   11.628
 scf_env_do_scf_inner_loop         1879  8.0    0.246    0.246   11.610   11.610
 qs_scf_new_mos                    1879  9.0    0.009    0.009    9.984    9.984
 eigensolver                       1879 10.0    0.029    0.029    4.389    4.389
 cp_fm_syevd                       2224 10.6    0.006    0.006    4.018    4.018
 cp_fm_syevd_base                  2224 11.6    3.835    3.835    3.835    3.835
 cp_dbcsr_plus_fm_fm_t             2225 10.8    0.013    0.013    2.939    2.939
 calculate_dm_sparse               2052 10.0    0.011    0.011    2.742    2.742
 dbcsr_multiply_generic            3080 12.0    0.075    0.075    2.709    2.709
 dbcsr_complete_redistribute       9918 12.2    2.091    2.091    2.562    2.562
 copy_dbcsr_to_fm                  4613 10.6    0.023    0.023    2.369    2.369
 init_scf_run                       174  7.0    0.002    0.002    2.318    2.318
 scf_env_initial_rho_setup          174  8.0    0.002    0.002    2.190    2.190
 wfi_extrapolate                    174  9.0    0.006    0.006    2.188    2.188
 qs_diis_b_step                    1705 10.0    0.012    0.012    1.815    1.815
 -------------------------------------------------------------------------------

 The number of warnings for this run is : 0
 
 -------------------------------------------------------------------------------
  **** **** ******  **  PROGRAM ENDED AT                 2026-05-23 22:48:15.839
 ***** ** ***  *** **   PROGRAM RAN ON                                spark-c86c
 **    ****   ******    PROGRAM RAN BY                                  kuehne88
 ***** **    ** ** **   PROGRAM PROCESS ID                               2264165
  **** **  *******  **  PROGRAM STOPPED IN /home/kuehne88/periodic-gfn2-benchmar
                                           ks/X23b/runs/cellopt_gamma/GFN1/anthr
                                           acene_GFN1_gamma_cellopt
