 DBCSR| CPU Multiplication driver                                           XSMM (U)
 DBCSR| Multrec recursion limit                                              512 (U)
 DBCSR| Multiplication stack size                                           1000 (D)
 DBCSR| Maximum elements for images                                    UNLIMITED (U)
 DBCSR| Multiplicative factor virtual images                                   1 (U)
 DBCSR| Use multiplication densification                                       T (D)
 DBCSR| Multiplication size stacks                                             3 (U)
 DBCSR| Use memory pool for CPU allocation                                     F (U)
 DBCSR| Number of 3D layers                                               SINGLE (U)
 DBCSR| Use MPI memory allocation                                              F (U)
 DBCSR| Use RMA algorithm                                                      F (U)
 DBCSR| Use Communication thread                                               T (U)
 DBCSR| Communication thread load                                             87 (D)
 DBCSR| MPI: My process id                                                     0
 DBCSR| MPI: Number of processes                                               1
 DBCSR| OMP: Current number of threads                                         1
 DBCSR| OMP: Max number of threads                                             1
 DBCSR| Split modifier for TAS multiplication algorithm                  1.0E+00 (U)


  **** **** ******  **  PROGRAM STARTED AT               2026-05-23 22:46:19.911
 ***** ** ***  *** **   PROGRAM STARTED ON                            spark-c86c
 **    ****   ******    PROGRAM STARTED BY                              kuehne88
 ***** **    ** ** **   PROGRAM PROCESS ID                               2226671
  **** **  *******  **  PROGRAM STARTED IN /home/kuehne88/periodic-gfn2-benchmar
                                           ks/X23b/runs/molecule_geoopt/GFN2/ben
                                           zene_GFN2_mol_geoopt

 CP2K| version string:                 CP2K version 2026.1 (Development Version)
 CP2K| source code revision number:                                   0622d442e4
 CP2K| cp2kflags: omp fftw3 libxc parallel scalapack mpi_f08 xsmm spglib libdftd
 CP2K|            4 dftd4_v3 mctc-lib tblite
 CP2K| is freely available from                            https://www.cp2k.org/
 CP2K| Program compiled at                                   2026-05-23 22:05:08
 CP2K| Program compiled on                                            spark-c86c
 CP2K| Program compiled for                                              aarch64
 CP2K| Data directory path    /home/kuehne88/cp2k-master-tblite-20260523/install
 CP2K| Input file name                               benzene_GFN2_mol_geoopt.inp

 GLOBAL| Force Environment number                                              1
 GLOBAL| Basis set file name                                           BASIS_SET
 GLOBAL| Potential file name                                           POTENTIAL
 GLOBAL| MM Potential file name                                     MM_POTENTIAL
 GLOBAL| Coordinate file name                                      __STD_INPUT__
 GLOBAL| Method name                                                        CP2K
 GLOBAL| Project name                                    benzene_GFN2_mol_geoopt
 GLOBAL| Run type                                                        GEO_OPT
 GLOBAL| FFT library                                                       FFTW3
 GLOBAL| Diagonalization library                                       ScaLAPACK
 GLOBAL| Cholesky decomposition library                                ScaLAPACK
 GLOBAL| DGEMM library                                                      BLAS
 GLOBAL| Direct generalized diagonalization requested                          F
 GLOBAL| Orthonormality check for eigenvectors                          DISABLED
 GLOBAL| Matrix multiplication library                                 ScaLAPACK
 GLOBAL| All-to-all communication in single precision                          F
 GLOBAL| FFTs using library dependent lengths                                  F
 GLOBAL| Grid backend                                                       AUTO
 GLOBAL| Global print level                                                  LOW
 GLOBAL| MPI I/O enabled                                                       T
 GLOBAL| Total number of message passing processes                             1
 GLOBAL| Number of distributed systems (nodes)                                 1
 GLOBAL| Number of threads for this process                                    1
 GLOBAL| This output is from process                                           0
 GLOBAL| OpenMP stack size per thread (OMP_STACKSIZE)                    default
 GLOBAL| CPU model name                                                  UNKNOWN
 GLOBAL| CPUID                                                              2200
 GLOBAL| Compiled for CPUID                                                 2000

 *** HINT in environment.F:970 :: The compiler target flags (arm_arch64)   ***
 *** used to build this binary cannot exploit all extensions of this CPU   ***
 *** model (arm_sve256). Consider compiler target flags as part of FCFLAGS ***
 *** and CFLAGS (ARCH file).                                               ***


 MEMORY| system memory details [Kb]
 MEMORY|                        rank 0           min           max       average
 MEMORY| MemTotal            125508532     125508532     125508532     125508532
 MEMORY| MemFree             106176724     106176724     106176724     106176724
 MEMORY| Buffers                866092        866092        866092        866092
 MEMORY| Cached               13217104      13217104      13217104      13217104
 MEMORY| Slab                  1564676       1564676       1564676       1564676
 MEMORY| SReclaimable           888664        888664        888664        888664
 MEMORY| MemLikelyFree       121148584     121148584     121148584     121148584


 GENERATE|  Preliminary Number of Bonds generated:                             0
 GENERATE|  Achieved consistency in connectivity generation.


                  #####   #####        #     #   #     #       #          
                 #     # #     #      #    ##### #     #   # #####  ####  
                 #     # #           #       #   ###   #       #   #    # 
                 #     #  #####     #        #   #  #  #   #   #   ###### 
                 #   # #       #   #         #   #   # #   #   #   #      
                 #    #  #     #  #          #   #  #  # # #   #    #   # 
                  #### #  #####  #           #   ###   ##  #   #     ###  

                                   GFN2-xTB  
                                 Version 0.0                       
                            Johann V. Pototschnig                  



 TOTAL NUMBERS AND MAXIMUM NUMBERS

  Total number of            - Atomic kinds:                                   2
                             - Atoms:                                         12
                             - Shell sets:                                    18
                             - Shells:                                        18
                             - Primitive Cartesian functions:                 66
                             - Cartesian basis functions:                     30
                             - Spherical basis functions:                     30

  Maximum angular momentum of the orbital basis functions:                     1


 SCF PARAMETERS         Density guess:                                     MOPAC
                        --------------------------------------------------------
                        max_scf:                                             300
                        max_scf_history:                                       0
                        max_diis:                                              4
                        --------------------------------------------------------
                        eps_scf:                                        1.00E-09
                        eps_scf_history:                                0.00E+00
                        eps_diis:                                       1.00E-01
                        eps_eigval:                                     1.00E-05
                        --------------------------------------------------------
                        level_shift [a.u.]:                             0.000000
                        added MOs                                        15    0
                        --------------------------------------------------------
                        Mixing method:                           DIRECT_P_MIXING
                        --------------------------------------------------------
                        Smear method:                                FERMI_DIRAC
                        Electronic temperature [K]:                        300.0
                        Electronic temperature [a.u.]:                  9.50E-04
                        Accuracy threshold:                             1.00E-06
                        --------------------------------------------------------
                        No outer SCF

 BFGS| Use rational function optimization for step estimation:                NO
 BFGS| Use model Hessian for initial guess:                                  YES
 BFGS| Restart Hessian:                                                       NO
 BFGS| Trust radius:                                                       0.472

 *******************************************************************************
 ***                     STARTING GEOMETRY OPTIMIZATION                      ***
 ***                                   BFGS                                  ***
 *******************************************************************************

 Extrapolation method: initial_guess

 Number of electrons:                                                         30
 Number of occupied orbitals:                                                 15
 Number of molecular orbitals:                                                30

 Number of orbital functions:                                                 30
 Number of independent orbital functions:                                     30


 SCF WAVEFUNCTION OPTIMIZATION

  Step     Update method      Time    Convergence         Total energy    Change
  ------------------------------------------------------------------------------
     1 TBLite/Diag 0.40E+00    0.0     0.55526853       -15.8743487298 -1.59E+01
     2 TBLite/Diag 0.40E+00    0.0     0.02997601       -15.8780602808 -3.71E-03
     3 TBLite/Diag 0.40E+00    0.0     0.01376975       -15.8782562609 -1.96E-04
     4 TBLite/Diag 0.40E+00    0.0     0.00657817       -15.8783620071 -1.06E-04
     5 TBLite/Diag 0.40E+00    0.0     0.00045614       -15.8783621420 -1.35E-07
     6 TBLite/Diag 0.40E+00    0.0     0.00019573       -15.8783622314 -8.94E-08
     7 TBLite/Diag 0.40E+00    0.0     0.00003304       -15.8783622312  1.49E-10
     8 TBLite/Diag 0.40E+00    0.0     0.00001772       -15.8783622320 -7.54E-10
     9 TBLite/Diag 0.40E+00    0.0     0.00000171       -15.8783622320 -1.82E-12
    10 TBLite/Diag 0.40E+00    0.0     0.00000056       -15.8783622320 -3.93E-13
    11 TBLite/Diag 0.40E+00    0.0     0.00000003       -15.8783622320 -1.78E-15
    12 TBLite/Diag 0.40E+00    0.0     0.00000002       -15.8783622320 -7.11E-15
    13 TBLite/Diag 0.40E+00    0.0     1.3799E-10       -15.8783622320  0.00E+00

  *** SCF run converged in    13 steps ***


  Core Hamiltonian energy:                                    -16.18146968291898
  Repulsive potential energy:                                   0.29446188936165
  Electrostatic energy:                                         0.01662325850282
  Self-consistent dispersion energy:                           -0.00798479431815
  Non-self consistent dispersion energy:                        0.00000709737500
  Correction for halogen bonding:                               0.00000000000000
  Electronic entropic energy:                                  -0.00000000000000
  Fermi energy:                                                -0.25791567362278

  Total energy:                                               -15.87836223199765
  Total energy (extrapolated to T->0):                        -15.87836223199765

 ENERGY| Total FORCE_EVAL ( QS ) energy [hartree]            -15.878362231997651

 OPT| **************************************************************************
 OPT| Step number                                                              0
 OPT| Optimization method                                                   BFGS
 OPT| Total energy [hartree]                                      -15.8783622320
 OPT| Used time [s]                                                        0.015
 OPT| **************************************************************************
 OPT| Estimated peak process memory [MiB]                                    163

 --------------------------
 OPTIMIZATION STEP:      1
 --------------------------

 Extrapolation method: ASPC

 Number of electrons:                                                         30
 Number of occupied orbitals:                                                 15
 Number of molecular orbitals:                                                30

 Number of orbital functions:                                                 30
 Number of independent orbital functions:                                     30


 SCF WAVEFUNCTION OPTIMIZATION

  Step     Update method      Time    Convergence         Total energy    Change
  ------------------------------------------------------------------------------
     1 TBLite/Diag 0.40E+00    0.0     0.00863890       -15.8795828849 -1.59E+01
     2 TBLite/Diag 0.40E+00    0.0     0.00045162       -15.8795839213 -1.04E-06
     3 TBLite/Diag 0.40E+00    0.0     0.00026659       -15.8795840939 -1.73E-07
     4 TBLite/Diag 0.40E+00    0.0     0.00010302       -15.8795841175 -2.36E-08
     5 TBLite/Diag 0.40E+00    0.0     0.00001615       -15.8795841175  9.44E-12
     6 TBLite/Diag 0.40E+00    0.0     0.00001442       -15.8795841177 -1.62E-10
     7 TBLite/Diag 0.40E+00    0.0     0.00000325       -15.8795841177 -7.50E-12
     8 TBLite/Diag 0.40E+00    0.0     0.00000115       -15.8795841177  1.44E-13
     9 TBLite/Diag 0.40E+00    0.0     0.00000067       -15.8795841177 -3.93E-13
    10 TBLite/Diag 0.40E+00    0.0     9.0692E-09       -15.8795841177 -1.07E-14
    11 TBLite/Diag 0.40E+00    0.0     1.0991E-09       -15.8795841177  1.07E-14
    12 TBLite/Diag 0.40E+00    0.0     8.8601E-11       -15.8795841177  3.55E-15

  *** SCF run converged in    12 steps ***


  Core Hamiltonian energy:                                    -16.19951341482476
  Repulsive potential energy:                                   0.31204737506840
  Electrostatic energy:                                         0.01589283974043
  Self-consistent dispersion energy:                           -0.00801776643601
  Non-self consistent dispersion energy:                        0.00000684878519
  Correction for halogen bonding:                               0.00000000000000
  Electronic entropic energy:                                  -0.00000000000000
  Fermi energy:                                                -0.25543607323030

  Total energy:                                               -15.87958411766675
  Total energy (extrapolated to T->0):                        -15.87958411766675

 ENERGY| Total FORCE_EVAL ( QS ) energy [hartree]            -15.879584117666752

 OPT| **************************************************************************
 OPT| Step number                                                              1
 OPT| Optimization method                                                   BFGS
 OPT| Total energy [hartree]                                      -15.8795841177
 OPT| Effective energy change [hartree]                            -0.0012218857
 OPT| Predicted energy change [hartree]                            -0.0009999397
 OPT| Scaling factor                                                0.0000000000
 OPT| Step size                                                     0.0291521564
 OPT| Trust radius                                                  0.4724315332
 OPT| Decrease in energy                                                     YES
 OPT| Used time [s]                                                        0.014
 OPT|
 OPT| Maximum step size                                             0.0291521564
 OPT| Convergence limit for maximum step size                       0.0030000000
 OPT| Maximum step size is converged                                          NO
 OPT|
 OPT| RMS step size                                                 0.0145622462
 OPT| Convergence limit for RMS step size                           0.0015000000
 OPT| RMS step size is converged                                              NO
 OPT|
 OPT| Maximum gradient                                              0.0020865728
 OPT| Convergence limit for maximum gradient                        0.0004500000
 OPT| Maximum gradient is converged                                           NO
 OPT|
 OPT| RMS gradient                                                  0.0009405201
 OPT| Convergence limit for RMS gradient                            0.0003000000
 OPT| RMS gradient is converged                                               NO
 OPT| **************************************************************************
 OPT| Estimated peak process memory after this step [MiB]                    163

 --------------------------
 OPTIMIZATION STEP:      2
 --------------------------

 Extrapolation method: ASPC

 Number of electrons:                                                         30
 Number of occupied orbitals:                                                 15
 Number of molecular orbitals:                                                30

 Number of orbital functions:                                                 30
 Number of independent orbital functions:                                     30


 SCF WAVEFUNCTION OPTIMIZATION

  Step     Update method      Time    Convergence         Total energy    Change
  ------------------------------------------------------------------------------
     1 TBLite/Diag 0.40E+00    0.0     0.00237575       -15.8796404814 -1.59E+01
     2 TBLite/Diag 0.40E+00    0.0     0.00011920       -15.8796405554 -7.40E-08
     3 TBLite/Diag 0.40E+00    0.0     0.00007198       -15.8796405687 -1.33E-08
     4 TBLite/Diag 0.40E+00    0.0     0.00002727       -15.8796405703 -1.63E-09
     5 TBLite/Diag 0.40E+00    0.0     0.00000844       -15.8796405703  2.67E-11
     6 TBLite/Diag 0.40E+00    0.0     0.00000638       -15.8796405704 -4.46E-11
     7 TBLite/Diag 0.40E+00    0.0     0.00000059       -15.8796405704 -2.29E-13
     8 TBLite/Diag 0.40E+00    0.0     0.00000033       -15.8796405704 -3.38E-14
     9 TBLite/Diag 0.40E+00    0.0     0.00000011       -15.8796405704 -3.02E-14
    10 TBLite/Diag 0.40E+00    0.0     5.4663E-09       -15.8796405704  7.11E-15
    11 TBLite/Diag 0.40E+00    0.0     1.7219E-10       -15.8796405704 -1.07E-14

  *** SCF run converged in    11 steps ***


  Core Hamiltonian energy:                                    -16.20437447211096
  Repulsive potential energy:                                   0.31706212163195
  Electrostatic energy:                                         0.01569168824662
  Self-consistent dispersion energy:                           -0.00802668976980
  Non-self consistent dispersion energy:                        0.00000678163947
  Correction for halogen bonding:                               0.00000000000000
  Electronic entropic energy:                                  -0.00000000000000
  Fermi energy:                                                -0.25475134874552

  Total energy:                                               -15.87964057036273
  Total energy (extrapolated to T->0):                        -15.87964057036273

 ENERGY| Total FORCE_EVAL ( QS ) energy [hartree]            -15.879640570362731

 OPT| **************************************************************************
 OPT| Step number                                                              2
 OPT| Optimization method                                                   BFGS
 OPT| Total energy [hartree]                                      -15.8796405704
 OPT| Effective energy change [hartree]                            -0.0000564527
 OPT| Predicted energy change [hartree]                            -0.0000584798
 OPT| Scaling factor                                                0.0000000000
 OPT| Step size                                                     0.0080334617
 OPT| Trust radius                                                  0.4724315332
 OPT| Decrease in energy                                                     YES
 OPT| Used time [s]                                                        0.013
 OPT|
 OPT| Maximum step size                                             0.0080334617
 OPT| Convergence limit for maximum step size                       0.0030000000
 OPT| Maximum step size is converged                                          NO
 OPT|
 OPT| RMS step size                                                 0.0039935990
 OPT| Convergence limit for RMS step size                           0.0015000000
 OPT| RMS step size is converged                                              NO
 OPT|
 OPT| Maximum gradient                                              0.0001337150
 OPT| Convergence limit for maximum gradient                        0.0004500000
 OPT| Maximum gradient is converged                                          YES
 OPT|
 OPT| RMS gradient                                                  0.0000549378
 OPT| Convergence limit for RMS gradient                            0.0003000000
 OPT| RMS gradient is converged                                              YES
 OPT| **************************************************************************
 OPT| Estimated peak process memory after this step [MiB]                    163

 --------------------------
 OPTIMIZATION STEP:      3
 --------------------------

 Extrapolation method: ASPC

 Number of electrons:                                                         30
 Number of occupied orbitals:                                                 15
 Number of molecular orbitals:                                                30

 Number of orbital functions:                                                 30
 Number of independent orbital functions:                                     30


 SCF WAVEFUNCTION OPTIMIZATION

  Step     Update method      Time    Convergence         Total energy    Change
  ------------------------------------------------------------------------------
     1 TBLite/Diag 0.40E+00    0.0     0.00011424       -15.8796406631 -1.59E+01
     2 TBLite/Diag 0.40E+00    0.0     0.00000859       -15.8796406633 -2.88E-10
     3 TBLite/Diag 0.40E+00    0.0     0.00000375       -15.8796406634 -1.50E-11
     4 TBLite/Diag 0.40E+00    0.0     0.00000220       -15.8796406634 -7.41E-12
     5 TBLite/Diag 0.40E+00    0.0     0.00000131       -15.8796406634 -1.86E-12
     6 TBLite/Diag 0.40E+00    0.0     0.00000023       -15.8796406634 -8.53E-14
     7 TBLite/Diag 0.40E+00    0.0     0.00000006       -15.8796406634  7.11E-15
     8 TBLite/Diag 0.40E+00    0.0     2.2817E-09       -15.8796406634 -3.55E-15
     9 TBLite/Diag 0.40E+00    0.0     1.0720E-09       -15.8796406634  5.33E-15
    10 TBLite/Diag 0.40E+00    0.0     3.7788E-10       -15.8796406634 -1.78E-15

  *** SCF run converged in    10 steps ***


  Core Hamiltonian energy:                                    -16.20421584668638
  Repulsive potential energy:                                   0.31689651504290
  Electrostatic energy:                                         0.01569823250953
  Self-consistent dispersion energy:                           -0.00802634827976
  Non-self consistent dispersion energy:                        0.00000678404497
  Correction for halogen bonding:                               0.00000000000000
  Electronic entropic energy:                                  -0.00000000000000
  Fermi energy:                                                -0.25477754478851

  Total energy:                                               -15.87964066336875
  Total energy (extrapolated to T->0):                        -15.87964066336875

 ENERGY| Total FORCE_EVAL ( QS ) energy [hartree]            -15.879640663368745

 OPT| **************************************************************************
 OPT| Step number                                                              3
 OPT| Optimization method                                                   BFGS
 OPT| Total energy [hartree]                                      -15.8796406634
 OPT| Effective energy change [hartree]                            -0.0000000930
 OPT| Predicted energy change [hartree]                            -0.0000000918
 OPT| Scaling factor                                                0.0000000000
 OPT| Step size                                                     0.0002416077
 OPT| Trust radius                                                  0.4724315332
 OPT| Decrease in energy                                                     YES
 OPT| Used time [s]                                                        0.013
 OPT|
 OPT| Maximum step size                                             0.0002416077
 OPT| Convergence limit for maximum step size                       0.0030000000
 OPT| Maximum step size is converged                                         YES
 OPT|
 OPT| RMS step size                                                 0.0001392877
 OPT| Convergence limit for RMS step size                           0.0015000000
 OPT| RMS step size is converged                                             YES
 OPT|
 OPT| Maximum gradient                                              0.0000234751
 OPT| Convergence limit for maximum gradient                        0.0004500000
 OPT| Maximum gradient is converged                                          YES
 OPT|
 OPT| RMS gradient                                                  0.0000108860
 OPT| Convergence limit for RMS gradient                            0.0003000000
 OPT| RMS gradient is converged                                              YES
 OPT| **************************************************************************
 OPT| Estimated peak process memory after this step [MiB]                    163

 *******************************************************************************
 ***                    GEOMETRY OPTIMIZATION COMPLETED                      ***
 *******************************************************************************

 write_final_structure: Optimization converged, writing XYZ file gladly:
  benzene_GFN2_mol_geoopt-FINAL-1_3.xyz

 write_final_structure: Optimization converged, writing CIF file gladly:
  benzene_GFN2_mol_geoopt-FINAL-1_3.cif

 write_final_structure: Done!

                    Reevaluating energy at the minimum

 Extrapolation method: ASPC

 Number of electrons:                                                         30
 Number of occupied orbitals:                                                 15
 Number of molecular orbitals:                                                30

 Number of orbital functions:                                                 30
 Number of independent orbital functions:                                     30


 SCF WAVEFUNCTION OPTIMIZATION

  Step     Update method      Time    Convergence         Total energy    Change
  ------------------------------------------------------------------------------
     1 TBLite/Diag 0.40E+00    0.0     3.2511E-10       -15.8796406634 -1.59E+01

  *** SCF run converged in     1 steps ***


  Core Hamiltonian energy:                                    -16.20421584668667
  Repulsive potential energy:                                   0.31689651504290
  Electrostatic energy:                                         0.01569823250982
  Self-consistent dispersion energy:                           -0.00802634827976
  Non-self consistent dispersion energy:                        0.00000678404497
  Correction for halogen bonding:                               0.00000000000000
  Electronic entropic energy:                                  -0.00000000000000
  Fermi energy:                                                -0.25477754479052

  Total energy:                                               -15.87964066336875
  Total energy (extrapolated to T->0):                        -15.87964066336875

 ENERGY| Total FORCE_EVAL ( QS ) energy [hartree]            -15.879640663368750

 -------------------------------------------------------------------------------
 -                                                                             -
 -                                DBCSR STATISTICS                             -
 -                                                                             -
 -------------------------------------------------------------------------------
 COUNTER                                    TOTAL       BLAS       SMM       ACC
 flops     1 x    30 x     1                21600       0.0%    100.0%      0.0%     
 flops     1 x     1 x    30                69300       0.0%    100.0%      0.0%     
 flops     4 x    30 x     1                86400       0.0%    100.0%      0.0%     
 flops     1 x    30 x     4                86400       0.0%    100.0%      0.0%     
 flops     4 x     1 x    30               237600       0.0%    100.0%      0.0%     
 flops     1 x     4 x    30               237600       0.0%    100.0%      0.0%     
 flops     4 x    30 x     4               345600       0.0%    100.0%      0.0%     
 flops     4 x     4 x    30              1108800       0.0%    100.0%      0.0%     
 flops inhomo. stacks                           0       0.0%      0.0%      0.0%
 flops total                         2.193300E+06       0.0%    100.0%      0.0%
 flops max/rank                      2.193300E+06       0.0%    100.0%      0.0%
 matmuls inhomo. stacks                         0       0.0%      0.0%      0.0%
 matmuls total                               5730       0.0%    100.0%      0.0%
 number of processed stacks                   260       0.0%    100.0%      0.0%
 average stack size                                     0.0      22.0       0.0
 marketing flops                     2.025000E+06
 -------------------------------------------------------------------------------
 # multiplications                             65
 max memory usage/rank              13.670326E+09
 # max total images/rank                        1
 # max 3D layers                                1
 # MPI messages exchanged                       0
 -------------------------------------------------------------------------------
 -                                                                             -
 -                      DBCSR MESSAGE PASSING PERFORMANCE                      -
 -                                                                             -
 -------------------------------------------------------------------------------
 ROUTINE             CALLS      AVE VOLUME [Bytes]
 MP_Bcast                9                     12.
 MP_Allreduce          340                     10.
 MP_Alltoall          2218                   5251.
 MP_ISend              260                    443.
 MP_IRecv              260                    443.
 -------------------------------------------------------------------------------

 -------------------------------------------------------------------------------
 -                                                                             -
 -                          OFFLOAD MEMPOOL STATISTICS                         -
 -                                                                             -
 -------------------------------------------------------------------------------
 Memory consumption                Number of allocations  Used [MiB]  Size [MiB]
 Device                                                1           0           0
 Host                                                  1           0           0
 -------------------------------------------------------------------------------

 MEMORY| Estimated peak process memory [MiB]                                 163

 -------------------------------------------------------------------------------
 -                                                                             -
 -                         MESSAGE PASSING PERFORMANCE                         -
 -                                                                             -
 -------------------------------------------------------------------------------

 ROUTINE             CALLS      AVE VOLUME [Bytes]
 MP_Group                1
 MP_Bcast              105                    129.
 MP_Allreduce         1612                     96.
 MP_Sync                56
 MP_comm_split          55
 -------------------------------------------------------------------------------


 -------------------------------------------------------------------------------
 -                                                                             -
 -                           R E F E R E N C E S                               -
 -                                                                             -
 -------------------------------------------------------------------------------
 
 CP2K version 2026.1 (Development Version), the CP2K developers group (2026).
 CP2K is freely available from https://www.cp2k.org/ .
 
 M. Iannuzzi, J. Wilhelm, F. Stein, A. Bussy, H. Elgabarty, D. Golze, A. Hehn, 
 M. Graml, S. Marek, B. Sertcan Gökmen, C. Schran, H. Forbert, R. Z. 
 Khaliullin, A. Kozhevnikov, M. Taillefumier, R. Meli, V. V. Rybkin, M. Brehm, 
 R. Schade, O. Schütt, J. V. Pototschnig, H. Mirhosseini, A. Knüpfer, D. Marx, 
 M. Krack, J. Hutter, T. D. Kühne.
 J. Phys. Chem. B 130, 1237-1310 (2026).
 The CP2K Program Package Made Simple.
 https://doi.org/10.1021/acs.jpcb.5c05851

 A. Katbashev, M. Stahn, T. Rose, V. Alizadeh, M. Friede, C. Plett, P. 
 Steinbach, S. Ehlert.
 J. Phys. Chem. A 129, 2667-2682 (2025).
 Overview on Building Blocks and Applications of Efficient and Robust Extended 
 Tight Binding.
 https://doi.org/10.1021/acs.jpca.4c08263

 T. D. Kühne, M. Iannuzzi, M. Del Ben, V. V. Rybkin, P. Seewald, F. Stein, T. 
 Laino, R. Z. Khaliullin, O. Schütt, F. Schiffmann, D. Golze, J. Wilhelm, S. 
 Chulkov, M. H. Bani-Hashemian, V. Weber, U. Borstnik, M. Taillefumier, A. S. 
 Jakobovits, A. Lazzaro, H. Pabst, T. Müller, R. Schade, M. Guidon, S. 
 Andermatt, N. Holmberg, G. K. Schenter, A. Hehn, A. Bussy, F. Belleflamme, G. 
 Tabacchi, A. Glöß, M. Lass, I. Bethune, C. J. Mundy, C. Plessl, M. Watkins, 
 J. VandeVondele, M. Krack, J. Hutter.
 J. Chem. Phys. 152, 194103 (2020).
 CP2K: An electronic structure and molecular dynamics software package - 
 Quickstep: Efficient and accurate electronic structure calculations.
 https://doi.org/10.1063/5.0007045

 P. Pracht, E. Caldeweyher, S. Ehlert, S. Grimme.
 ChemRxiv, (2019).
 A Robust Non-Self-Consistent Tight-Binding Quantum Chemistry Method for large 
 Molecules.
 https://doi.org/10.26434/chemrxiv.8326202.v1

 S. Grimme, C. Bannwarth, P. Shushkov.
 J. Chem. Theory Comput. 13, 1989 (2017).
 A Robust and Accurate Tight-Binding Quantum Chemical Method for Structures, 
 Vibrational Frequencies, and Noncovalent Interactions of Large Molecular 
 Systems Parametrized for All spd-Block Elements (Z = 1-86).
 https://doi.org/10.1021/acs.jctc.7b00118

 O. Schuett, P. Messmer, J. Hutter, J. VandeVondele.
 Electronic Structure Calculations on Graphics Processing Units, 173-190 (2016).
 GPU-Accelerated Sparse Matrix-Matrix Multiplication for Linear Scaling Density 
 Functional Theory.
 https://doi.org/10.1002/9781118670712.ch8

 A. Heinecke, G. Henry, M. Hutchinson, H. Pabst.
 Proceedings of Intl. Supercomputing Conference, 981-991 (2016).
 LIBXSMM: Accelerating Small Matrix Multiplications by Runtime Code Generation.
 https://doi.org/10.1109/SC.2016.83

 U. Borstnik, J. VandeVondele, V. Weber, J. Hutter.
 Parallel Comput. 40, 47-58 (2014).
 Sparse matrix multiplication: The distributed block-compressed sparse row 
 library.
 https://doi.org/10.1016/j.parco.2014.03.012

 T. D. Kühne, M. Krack, F. R. Mohamed, M. Parrinello.
 Phys. Rev. Lett. 98, 066401 (2007).
 Efficient and accurate Car-Parrinello-like approach to Born-Oppenheimer 
 molecular dynamics.
 https://doi.org/10.1103/PhysRevLett.98.066401

 M. Frigo, S. G. Johnson.
 Proc. IEEE 93, 216-231 (2005).
 The design and implementation of FFTW3.
 https://doi.org/10.1109/JPROC.2004.840301

 J. Kolafa.
 J. Comput. Chem. 25, 335-342 (2004).
 Time-reversible always stable predictor-corrector method for molecular dynamics 
 of polarizable molecules.
 https://doi.org/10.1002/jcc.10385

 N. D. Mermin.
 Phys. Rev. 137, A1441-A1443 (1965).
 Thermal Properties of the Inhomogeneous Electron Gas.
 https://doi.org/10.1103/PhysRev.137.A1441


 -------------------------------------------------------------------------------
 -                                                                             -
 -                                T I M I N G                                  -
 -                                                                             -
 -------------------------------------------------------------------------------
 SUBROUTINE                       CALLS  ASD         SELF TIME        TOTAL TIME
                                MAXIMUM       AVERAGE  MAXIMUM  AVERAGE  MAXIMUM
 CP2K                                 1  1.0    0.002    0.002    0.064    0.064
 cp_geo_opt                           1  2.0    0.000    0.000    0.059    0.059
 geoopt_bfgs                          1  3.0    0.000    0.000    0.059    0.059
 cp_eval_at                           5  4.0    0.000    0.000    0.056    0.056
 qs_forces                            4  5.0    0.000    0.000    0.053    0.053
 qs_energies                          5  5.8    0.000    0.000    0.050    0.050
 scf_env_do_scf                       5  6.8    0.000    0.000    0.040    0.040
 scf_env_do_scf_inner_loop           47  8.0    0.004    0.004    0.040    0.040
 qs_scf_new_mos                      47  9.0    0.000    0.000    0.027    0.027
 cp_dbcsr_plus_fm_fm_t               55 10.8    0.000    0.000    0.014    0.014
 calculate_dm_sparse                 51 10.0    0.000    0.000    0.013    0.013
 dbcsr_multiply_generic              65 11.9    0.001    0.001    0.012    0.012
 rebuild_ks_matrix                   51  9.7    0.000    0.000    0.010    0.010
 build_tblite_ks_matrix              51 10.7    0.009    0.009    0.010    0.010
 copy_dbcsr_to_fm                   104 10.4    0.000    0.000    0.008    0.008
 qs_ks_update_qs_env                 47  9.0    0.000    0.000    0.007    0.007
 dbcsr_complete_redistribute        224 12.2    0.004    0.004    0.007    0.007
 make_m2s                           130 12.9    0.000    0.000    0.007    0.007
 build_tblite_matrices                9  7.0    0.003    0.003    0.006    0.006
 eigensolver                         47 10.0    0.000    0.000    0.005    0.005
 cp_fm_syevd                         55 10.6    0.000    0.000    0.005    0.005
 init_scf_run                         5  6.8    0.000    0.000    0.005    0.005
 qs_diis_b_step                      42 10.0    0.000    0.000    0.004    0.004
 scf_env_initial_rho_setup            5  7.8    0.000    0.000    0.004    0.004
 wfi_extrapolate                      5  8.8    0.000    0.000    0.004    0.004
 qs_energies_init_hamiltonians        5  6.8    0.000    0.000    0.004    0.004
 cp_fm_syevd_base                    55 11.6    0.004    0.004    0.004    0.004
 copy_fm_to_dbcsr                   120 11.8    0.000    0.000    0.004    0.004
 tb_get_multipole                     9  8.0    0.002    0.002    0.003    0.003
 make_images                        130 13.9    0.001    0.001    0.003    0.003
 qs_init_subsys                       1  2.0    0.000    0.000    0.003    0.003
 qs_ks_update_qs_env_forces           4  6.0    0.000    0.000    0.003    0.003
 dbcsr_finalize                    1329 12.0    0.001    0.001    0.002    0.002
 multiply_cannon                     65 12.9    0.001    0.001    0.002    0.002
 cp_dbcsr_sm_fm_multiply             10 10.4    0.000    0.000    0.002    0.002
 dbcsr_desymmetrize_deep            104 11.4    0.001    0.001    0.002    0.002
 dbcsr_create_new                  1762 13.0    0.001    0.001    0.002    0.002
 dbcsr_crop_matrix                  110 13.8    0.000    0.000    0.002    0.002
 reorthogonalize_vectors              4  9.8    0.000    0.000    0.002    0.002
 make_basis_lowdin                    4 10.8    0.000    0.000    0.002    0.002
 dbcsr_copy_submatrix               110 14.8    0.000    0.000    0.001    0.001
 qs_env_setup                         1  3.0    0.000    0.000    0.001    0.001
 cp_dbcsr_sm_fm_multiply_core        10 11.4    0.000    0.000    0.001    0.001
 -------------------------------------------------------------------------------

 The number of warnings for this run is : 0
 
 -------------------------------------------------------------------------------
  **** **** ******  **  PROGRAM ENDED AT                 2026-05-23 22:46:20.687
 ***** ** ***  *** **   PROGRAM RAN ON                                spark-c86c
 **    ****   ******    PROGRAM RAN BY                                  kuehne88
 ***** **    ** ** **   PROGRAM PROCESS ID                               2226671
  **** **  *******  **  PROGRAM STOPPED IN /home/kuehne88/periodic-gfn2-benchmar
                                           ks/X23b/runs/molecule_geoopt/GFN2/ben
                                           zene_GFN2_mol_geoopt
