 DBCSR| CPU Multiplication driver                                           XSMM (U)
 DBCSR| Multrec recursion limit                                              512 (U)
 DBCSR| Multiplication stack size                                           1000 (D)
 DBCSR| Maximum elements for images                                    UNLIMITED (U)
 DBCSR| Multiplicative factor virtual images                                   1 (U)
 DBCSR| Use multiplication densification                                       T (D)
 DBCSR| Multiplication size stacks                                             3 (U)
 DBCSR| Use memory pool for CPU allocation                                     F (U)
 DBCSR| Number of 3D layers                                               SINGLE (U)
 DBCSR| Use MPI memory allocation                                              F (U)
 DBCSR| Use RMA algorithm                                                      F (U)
 DBCSR| Use Communication thread                                               T (U)
 DBCSR| Communication thread load                                             87 (D)
 DBCSR| MPI: My process id                                                     0
 DBCSR| MPI: Number of processes                                               1
 DBCSR| OMP: Current number of threads                                         1
 DBCSR| OMP: Max number of threads                                             1
 DBCSR| Split modifier for TAS multiplication algorithm                  1.0E+00 (U)


  **** **** ******  **  PROGRAM STARTED AT               2026-05-23 22:46:48.820
 ***** ** ***  *** **   PROGRAM STARTED ON                            spark-c86c
 **    ****   ******    PROGRAM STARTED BY                              kuehne88
 ***** **    ** ** **   PROGRAM PROCESS ID                               2263623
  **** **  *******  **  PROGRAM STARTED IN /home/kuehne88/periodic-gfn2-benchmar
                                           ks/X23b/runs/cellopt_gamma/GFN1/aceti
                                           c_acid_GFN1_gamma_cellopt

 CP2K| version string:                 CP2K version 2026.1 (Development Version)
 CP2K| source code revision number:                                   0622d442e4
 CP2K| cp2kflags: omp fftw3 libxc parallel scalapack mpi_f08 xsmm spglib libdftd
 CP2K|            4 dftd4_v3 mctc-lib tblite
 CP2K| is freely available from                            https://www.cp2k.org/
 CP2K| Program compiled at                                   2026-05-23 22:05:08
 CP2K| Program compiled on                                            spark-c86c
 CP2K| Program compiled for                                              aarch64
 CP2K| Data directory path    /home/kuehne88/cp2k-master-tblite-20260523/install
 CP2K| Input file name                        acetic_acid_GFN1_gamma_cellopt.inp

 GLOBAL| Force Environment number                                              1
 GLOBAL| Basis set file name                                           BASIS_SET
 GLOBAL| Potential file name                                           POTENTIAL
 GLOBAL| MM Potential file name                                     MM_POTENTIAL
 GLOBAL| Coordinate file name                                      __STD_INPUT__
 GLOBAL| Method name                                                        CP2K
 GLOBAL| Project name                            acetic_acid_GFN1_gamma_cell_opt
 GLOBAL| Run type                                                       CELL_OPT
 GLOBAL| FFT library                                                       FFTW3
 GLOBAL| Diagonalization library                                       ScaLAPACK
 GLOBAL| Cholesky decomposition library                                ScaLAPACK
 GLOBAL| DGEMM library                                                      BLAS
 GLOBAL| Direct generalized diagonalization requested                          F
 GLOBAL| Orthonormality check for eigenvectors                          DISABLED
 GLOBAL| Matrix multiplication library                                 ScaLAPACK
 GLOBAL| All-to-all communication in single precision                          F
 GLOBAL| FFTs using library dependent lengths                                  F
 GLOBAL| Grid backend                                                       AUTO
 GLOBAL| Global print level                                                  LOW
 GLOBAL| MPI I/O enabled                                                       T
 GLOBAL| Total number of message passing processes                             1
 GLOBAL| Number of distributed systems (nodes)                                 1
 GLOBAL| Number of threads for this process                                    1
 GLOBAL| This output is from process                                           0
 GLOBAL| OpenMP stack size per thread (OMP_STACKSIZE)                    default
 GLOBAL| CPU model name                                                  UNKNOWN
 GLOBAL| CPUID                                                              2200
 GLOBAL| Compiled for CPUID                                                 2000

 *** HINT in environment.F:970 :: The compiler target flags (arm_arch64)   ***
 *** used to build this binary cannot exploit all extensions of this CPU   ***
 *** model (arm_sve256). Consider compiler target flags as part of FCFLAGS ***
 *** and CFLAGS (ARCH file).                                               ***


 MEMORY| system memory details [Kb]
 MEMORY|                        rank 0           min           max       average
 MEMORY| MemTotal            125508532     125508532     125508532     125508532
 MEMORY| MemFree             101529968     101529968     101529968     101529968
 MEMORY| Buffers                867388        867388        867388        867388
 MEMORY| Cached               13902676      13902676      13902676      13902676
 MEMORY| Slab                  1587868       1587868       1587868       1587868
 MEMORY| SReclaimable           909656        909656        909656        909656
 MEMORY| MemLikelyFree       117209688     117209688     117209688     117209688


 GENERATE|  Preliminary Number of Bonds generated:                             0
 GENERATE|  Achieved consistency in connectivity generation.


                  #####   #####        #     #   #     #       #          
                 #     # #     #      #    ##### #     #   # #####  ####  
                 #     # #           #       #   ###   #       #   #    # 
                 #     #  #####     #        #   #  #  #   #   #   ###### 
                 #   # #       #   #         #   #   # #   #   #   #      
                 #    #  #     #  #          #   #  #  # # #   #    #   # 
                  #### #  #####  #           #   ###   ##  #   #     ###  

                                   GFN1-xTB  
                                 Version 0.0                       
                            Johann V. Pototschnig                  



 TOTAL NUMBERS AND MAXIMUM NUMBERS

  Total number of            - Atomic kinds:                                   3
                             - Atoms:                                         32
                             - Shell sets:                                    64
                             - Shells:                                        64
                             - Primitive Cartesian functions:                368
                             - Cartesian basis functions:                     96
                             - Spherical basis functions:                     96

  Maximum angular momentum of the orbital basis functions:                     1


 SCF PARAMETERS         Density guess:                                     MOPAC
                        --------------------------------------------------------
                        max_scf:                                             300
                        max_scf_history:                                       0
                        max_diis:                                              4
                        --------------------------------------------------------
                        eps_scf:                                        1.00E-09
                        eps_scf_history:                                0.00E+00
                        eps_diis:                                       1.00E-01
                        eps_eigval:                                     1.00E-05
                        --------------------------------------------------------
                        level_shift [a.u.]:                             0.000000
                        added MOs                                        48    0
                        --------------------------------------------------------
                        Mixing method:                           DIRECT_P_MIXING
                        --------------------------------------------------------
                        Smear method:                                FERMI_DIRAC
                        Electronic temperature [K]:                        300.0
                        Electronic temperature [a.u.]:                  9.50E-04
                        Accuracy threshold:                             1.00E-06
                        --------------------------------------------------------
                        No outer SCF

 CELL_OPT| Pressure tolerance [bar]:                                       100.0
 CELL_OPT| Keep volume of cell:                                               NO
 CELL_OPT| Keep angles between the cell vectors:                              NO
 CELL_OPT| Keep cell symmetry:                                                NO
 CELL_OPT| Constraint:                                                      NONE

 BFGS| Use rational function optimization for step estimation:                NO
 BFGS| Use model Hessian for initial guess:                                   NO
 BFGS| Restart Hessian:                                                       NO
 BFGS| Trust radius:                                                       0.472

 *******************************************************************************
 ***                     STARTING   CELL   OPTIMIZATION                      ***
 ***                                   BFGS                                  ***
 *******************************************************************************

 CELL| Volume [angstrom^3]:                                           297.269491
 CELL| Vector a [angstrom]:      13.151     0.000     0.000   |a| =    13.151000
 CELL| Vector b [angstrom]:       0.000     3.923     0.000   |b| =     3.923000
 CELL| Vector c [angstrom]:       0.000     0.000     5.762   |c| =     5.762000
 CELL| Angle (b,c), alpha [degree]:                                    90.000000
 CELL| Angle (a,c), beta  [degree]:                                    90.000000
 CELL| Angle (a,b), gamma [degree]:                                    90.000000
 CELL| Numerically orthorhombic:                                             YES
 CELL| Periodicity                                                           XYZ

 Extrapolation method: initial_guess

 Number of electrons:                                                         96
 Number of occupied orbitals:                                                 48
 Number of molecular orbitals:                                                96

 Number of orbital functions:                                                 96
 Number of independent orbital functions:                                     96


 SCF WAVEFUNCTION OPTIMIZATION

  Step     Update method      Time    Convergence         Total energy    Change
  ------------------------------------------------------------------------------
     1 TBLite/Diag 0.40E+00    0.0     1.58343460       -61.6629283554 -6.17E+01
     2 TBLite/Diag 0.40E+00    0.0     0.28620657       -62.9073936186 -1.24E+00
     3 TBLite/Diag 0.40E+00    0.0     0.04303267       -62.9233558840 -1.60E-02
     4 TBLite/Diag 0.40E+00    0.0     0.02667829       -62.9240353404 -6.79E-04
     5 TBLite/Diag 0.40E+00    0.0     0.02105185       -62.9251956301 -1.16E-03
     6 TBLite/Diag 0.40E+00    0.0     0.01554732       -62.9252425144 -4.69E-05
     7 TBLite/Diag 0.40E+00    0.0     0.00551902       -62.9257664206 -5.24E-04
     8 TBLite/Diag 0.40E+00    0.0     0.00245405       -62.9258159074 -4.95E-05
     9 TBLite/Diag 0.40E+00    0.0     0.00011853       -62.9258162285 -3.21E-07
    10 TBLite/Diag 0.40E+00    0.0     0.00007629       -62.9258162948 -6.63E-08
    11 TBLite/Diag 0.40E+00    0.0     0.00000661       -62.9258162952 -4.70E-10
    12 TBLite/Diag 0.40E+00    0.0     0.00000013       -62.9258162952  7.82E-13
    13 TBLite/Diag 0.40E+00    0.0     0.00000045       -62.9258162952 -2.25E-12
    14 TBLite/Diag 0.40E+00    0.0     0.00000002       -62.9258162952  2.84E-14
    15 TBLite/Diag 0.40E+00    0.0     3.2181E-10       -62.9258162952  9.95E-14

  *** SCF run converged in    15 steps ***


  Core Hamiltonian energy:                                    -64.31210068807793
  Repulsive potential energy:                                   1.09906217231608
  Electrostatic energy:                                         0.33358104593786
  Self-consistent dispersion energy:                            0.00000000000000
  Non-self consistent dispersion energy:                       -0.04635882541517
  Correction for halogen bonding:                               0.00000000000000
  Electronic entropic energy:                                  -0.00000000000000
  Fermi energy:                                                -0.29710808559185

  Total energy:                                               -62.92581629523916
  Total energy (extrapolated to T->0):                        -62.92581629523916

 ENERGY| Total FORCE_EVAL ( QS ) energy [hartree]            -62.925816295239159

 OPT| **************************************************************************
 OPT| Step number                                                              0
 OPT| Optimization method                                                   BFGS
 OPT| Total energy [hartree]                                      -62.9258162952
 OPT| Internal pressure [bar]                                  233691.6236562436
 OPT| Used time [s]                                                        0.407
 OPT| **************************************************************************
 OPT| Estimated peak process memory [MiB]                                    168

 --------------------------
 OPTIMIZATION STEP:      1
 --------------------------

 CELL| Volume [angstrom^3]:                                           310.069845
 CELL| Vector a [angstrom]:      13.191     0.000     0.000   |a| =    13.190872
 CELL| Vector b [angstrom]:       0.000     4.033     0.000   |b| =     4.033117
 CELL| Vector c [angstrom]:       0.000     0.000     5.828   |c| =     5.828344
 CELL| Angle (b,c), alpha [degree]:                                    90.000000
 CELL| Angle (a,c), beta  [degree]:                                    90.000000
 CELL| Angle (a,b), gamma [degree]:                                    90.000000
 CELL| Numerically orthorhombic:                                             YES
 CELL| Periodicity                                                           XYZ

 Extrapolation method: ASPC

 Number of electrons:                                                         96
 Number of occupied orbitals:                                                 48
 Number of molecular orbitals:                                                96

 Number of orbital functions:                                                 96
 Number of independent orbital functions:                                     96


 SCF WAVEFUNCTION OPTIMIZATION

  Step     Update method      Time    Convergence         Total energy    Change
  ------------------------------------------------------------------------------
     1 TBLite/Diag 0.40E+00    0.0     0.24129094       -63.2030150589 -6.32E+01
     2 TBLite/Diag 0.40E+00    0.0     0.01625265       -63.2044888793 -1.47E-03
     3 TBLite/Diag 0.40E+00    0.0     0.00612066       -63.2045361879 -4.73E-05
     4 TBLite/Diag 0.40E+00    0.0     0.00271265       -63.2045908370 -5.46E-05
     5 TBLite/Diag 0.40E+00    0.0     0.00045437       -63.2045923702 -1.53E-06
     6 TBLite/Diag 0.40E+00    0.0     0.00015599       -63.2045927758 -4.06E-07
     7 TBLite/Diag 0.40E+00    0.0     0.00002607       -63.2045927808 -5.00E-09
     8 TBLite/Diag 0.40E+00    0.0     0.00000450       -63.2045927810 -1.22E-10
     9 TBLite/Diag 0.40E+00    0.0     0.00000112       -63.2045927810 -4.71E-12
    10 TBLite/Diag 0.40E+00    0.0     0.00000011       -63.2045927810 -7.11E-15
    11 TBLite/Diag 0.40E+00    0.0     3.2175E-09       -63.2045927810 -1.42E-14
    12 TBLite/Diag 0.40E+00    0.0     1.6557E-09       -63.2045927810 -1.28E-13
    13 TBLite/Diag 0.40E+00    0.0     2.4041E-10       -63.2045927810  1.42E-14

  *** SCF run converged in    13 steps ***


  Core Hamiltonian energy:                                    -64.08459391497540
  Repulsive potential energy:                                   0.57559573470310
  Electrostatic energy:                                         0.34878119873331
  Self-consistent dispersion energy:                            0.00000000000000
  Non-self consistent dispersion energy:                       -0.04437579943616
  Correction for halogen bonding:                               0.00000000000000
  Electronic entropic energy:                                  -0.00000000000000
  Fermi energy:                                                -0.29669319616063

  Total energy:                                               -63.20459278097515
  Total energy (extrapolated to T->0):                        -63.20459278097515

 ENERGY| Total FORCE_EVAL ( QS ) energy [hartree]            -63.204592780975155

 OPT| **************************************************************************
 OPT| Step number                                                              1
 OPT| Optimization method                                                   BFGS
 OPT| Total energy [hartree]                                      -63.2045927810
 OPT| Internal pressure [bar]                                   30685.7202338862
 OPT| Effective energy change [hartree]                            -0.2787764857
 OPT| Predicted energy change [hartree]                            -0.4347187962
 OPT| Scaling factor                                                0.0000000000
 OPT| Step size                                                     0.2080918071
 OPT| Trust radius                                                  0.4724315332
 OPT| Decrease in energy                                                     YES
 OPT| Used time [s]                                                        0.396
 OPT|
 OPT| Maximum step size                                             0.2080918071
 OPT| Convergence limit for maximum step size                       0.0030000000
 OPT| Maximum step size is converged                                          NO
 OPT|
 OPT| RMS step size                                                 0.0923249585
 OPT| Convergence limit for RMS step size                           0.0015000000
 OPT| RMS step size is converged                                              NO
 OPT|
 OPT| Maximum gradient                                              0.0694391106
 OPT| Convergence limit for maximum gradient                        0.0004500000
 OPT| Maximum gradient is converged                                           NO
 OPT|
 OPT| RMS gradient                                                  0.0233079841
 OPT| Convergence limit for RMS gradient                            0.0003000000
 OPT| RMS gradient is converged                                               NO
 OPT|
 OPT| Pressure deviation [bar]                                  30685.7202338862
 OPT| Pressure tolerance [bar]                                    100.0000000000
 OPT| Pressure is converged                                                   NO
 OPT| **************************************************************************
 OPT| Estimated peak process memory after this step [MiB]                    168

 --------------------------
 OPTIMIZATION STEP:      2
 --------------------------

 CELL| Volume [angstrom^3]:                                           314.065064
 CELL| Vector a [angstrom]:      13.186     0.000     0.000   |a| =    13.186013
 CELL| Vector b [angstrom]:       0.000     4.071     0.000   |b| =     4.070639
 CELL| Vector c [angstrom]:       0.000     0.000     5.851   |c| =     5.851180
 CELL| Angle (b,c), alpha [degree]:                                    90.000000
 CELL| Angle (a,c), beta  [degree]:                                    90.000000
 CELL| Angle (a,b), gamma [degree]:                                    90.000000
 CELL| Numerically orthorhombic:                                             YES
 CELL| Periodicity                                                           XYZ

 Extrapolation method: ASPC

 Number of electrons:                                                         96
 Number of occupied orbitals:                                                 48
 Number of molecular orbitals:                                                96

 Number of orbital functions:                                                 96
 Number of independent orbital functions:                                     96


 SCF WAVEFUNCTION OPTIMIZATION

  Step     Update method      Time    Convergence         Total energy    Change
  ------------------------------------------------------------------------------
     1 TBLite/Diag 0.40E+00    0.0     0.04731167       -63.2417388276 -6.32E+01
     2 TBLite/Diag 0.40E+00    0.0     0.00126364       -63.2417526432 -1.38E-05
     3 TBLite/Diag 0.40E+00    0.0     0.00072866       -63.2417528209 -1.78E-07
     4 TBLite/Diag 0.40E+00    0.0     0.00047535       -63.2417545848 -1.76E-06
     5 TBLite/Diag 0.40E+00    0.0     0.00010139       -63.2417546450 -6.02E-08
     6 TBLite/Diag 0.40E+00    0.0     0.00000937       -63.2417546459 -9.52E-10
     7 TBLite/Diag 0.40E+00    0.0     0.00000338       -63.2417546460 -5.42E-11
     8 TBLite/Diag 0.40E+00    0.0     0.00000025       -63.2417546460 -2.70E-13
     9 TBLite/Diag 0.40E+00    0.0     0.00000006       -63.2417546460  2.84E-14
    10 TBLite/Diag 0.40E+00    0.0     5.0878E-09       -63.2417546460 -7.82E-14
    11 TBLite/Diag 0.40E+00    0.0     3.0237E-10       -63.2417546460 -1.42E-13

  *** SCF run converged in    11 steps ***


  Core Hamiltonian energy:                                    -64.09315287702508
  Repulsive potential energy:                                   0.54906457874532
  Electrostatic energy:                                         0.34611234000884
  Self-consistent dispersion energy:                            0.00000000000000
  Non-self consistent dispersion energy:                       -0.04377868769379
  Correction for halogen bonding:                               0.00000000000000
  Electronic entropic energy:                                  -0.00000000000000
  Fermi energy:                                                -0.29939190628275

  Total energy:                                               -63.24175464596470
  Total energy (extrapolated to T->0):                        -63.24175464596470

 ENERGY| Total FORCE_EVAL ( QS ) energy [hartree]            -63.241754645964697

 OPT| **************************************************************************
 OPT| Step number                                                              2
 OPT| Optimization method                                                   BFGS
 OPT| Total energy [hartree]                                      -63.2417546460
 OPT| Internal pressure [bar]                                   13774.1111866170
 OPT| Effective energy change [hartree]                            -0.0371618650
 OPT| Predicted energy change [hartree]                            -0.0228612650
 OPT| Scaling factor                                                0.0000000000
 OPT| Step size                                                     0.0709062227
 OPT| Trust radius                                                  0.4724315332
 OPT| Decrease in energy                                                     YES
 OPT| Used time [s]                                                        0.386
 OPT|
 OPT| Maximum step size                                             0.0709062227
 OPT| Convergence limit for maximum step size                       0.0030000000
 OPT| Maximum step size is converged                                          NO
 OPT|
 OPT| RMS step size                                                 0.0195276747
 OPT| Convergence limit for RMS step size                           0.0015000000
 OPT| RMS step size is converged                                              NO
 OPT|
 OPT| Maximum gradient                                              0.0532226983
 OPT| Convergence limit for maximum gradient                        0.0004500000
 OPT| Maximum gradient is converged                                           NO
 OPT|
 OPT| RMS gradient                                                  0.0143271687
 OPT| Convergence limit for RMS gradient                            0.0003000000
 OPT| RMS gradient is converged                                               NO
 OPT|
 OPT| Pressure deviation [bar]                                  13774.1111866170
 OPT| Pressure tolerance [bar]                                    100.0000000000
 OPT| Pressure is converged                                                   NO
 OPT| **************************************************************************
 OPT| Estimated peak process memory after this step [MiB]                    169

 --------------------------
 OPTIMIZATION STEP:      3
 --------------------------

 CELL| Volume [angstrom^3]:                                           321.536504
 CELL| Vector a [angstrom]:      13.170     0.000     0.000   |a| =    13.170316
 CELL| Vector b [angstrom]:       0.000     4.149     0.000   |b| =     4.149032
 CELL| Vector c [angstrom]:       0.000     0.000     5.884   |c| =     5.884198
 CELL| Angle (b,c), alpha [degree]:                                    90.000000
 CELL| Angle (a,c), beta  [degree]:                                    90.000000
 CELL| Angle (a,b), gamma [degree]:                                    90.000000
 CELL| Numerically orthorhombic:                                             YES
 CELL| Periodicity                                                           XYZ

 Extrapolation method: ASPC

 Number of electrons:                                                         96
 Number of occupied orbitals:                                                 48
 Number of molecular orbitals:                                                96

 Number of orbital functions:                                                 96
 Number of independent orbital functions:                                     96


 SCF WAVEFUNCTION OPTIMIZATION

  Step     Update method      Time    Convergence         Total energy    Change
  ------------------------------------------------------------------------------
     1 TBLite/Diag 0.40E+00    0.0     0.08673405       -63.2655455730 -6.33E+01
     2 TBLite/Diag 0.40E+00    0.0     0.00872495       -63.2659956347 -4.50E-04
     3 TBLite/Diag 0.40E+00    0.0     0.00155676       -63.2660020846 -6.45E-06
     4 TBLite/Diag 0.40E+00    0.0     0.00072964       -63.2660039643 -1.88E-06
     5 TBLite/Diag 0.40E+00    0.0     0.00022162       -63.2660044956 -5.31E-07
     6 TBLite/Diag 0.40E+00    0.0     0.00010052       -63.2660045194 -2.38E-08
     7 TBLite/Diag 0.40E+00    0.0     0.00000273       -63.2660045195 -1.17E-10
     8 TBLite/Diag 0.40E+00    0.0     0.00000072       -63.2660045195 -4.25E-12
     9 TBLite/Diag 0.40E+00    0.0     0.00000018       -63.2660045195 -3.13E-13
    10 TBLite/Diag 0.40E+00    0.0     0.00000002       -63.2660045195 -1.85E-13
    11 TBLite/Diag 0.40E+00    0.0     3.9365E-10       -63.2660045195 -7.11E-15

  *** SCF run converged in    11 steps ***


  Core Hamiltonian energy:                                    -64.10878244388734
  Repulsive potential energy:                                   0.54758969490183
  Electrostatic energy:                                         0.33789590519637
  Self-consistent dispersion energy:                            0.00000000000000
  Non-self consistent dispersion energy:                       -0.04270767570602
  Correction for halogen bonding:                               0.00000000000000
  Electronic entropic energy:                                  -0.00000000000000
  Fermi energy:                                                -0.29820262046139

  Total energy:                                               -63.26600451949516
  Total energy (extrapolated to T->0):                        -63.26600451949516

 ENERGY| Total FORCE_EVAL ( QS ) energy [hartree]            -63.266004519495162

 OPT| **************************************************************************
 OPT| Step number                                                              3
 OPT| Optimization method                                                   BFGS
 OPT| Total energy [hartree]                                      -63.2660045195
 OPT| Internal pressure [bar]                                    5718.3762062116
 OPT| Effective energy change [hartree]                            -0.0242498735
 OPT| Predicted energy change [hartree]                            -0.0244222018
 OPT| Scaling factor                                                0.0000000000
 OPT| Step size                                                     0.1481411573
 OPT| Trust radius                                                  0.4724315332
 OPT| Decrease in energy                                                     YES
 OPT| Used time [s]                                                        0.373
 OPT|
 OPT| Maximum step size                                             0.1481411573
 OPT| Convergence limit for maximum step size                       0.0030000000
 OPT| Maximum step size is converged                                          NO
 OPT|
 OPT| RMS step size                                                 0.0339287773
 OPT| Convergence limit for RMS step size                           0.0015000000
 OPT| RMS step size is converged                                              NO
 OPT|
 OPT| Maximum gradient                                              0.0302740188
 OPT| Convergence limit for maximum gradient                        0.0004500000
 OPT| Maximum gradient is converged                                           NO
 OPT|
 OPT| RMS gradient                                                  0.0070698631
 OPT| Convergence limit for RMS gradient                            0.0003000000
 OPT| RMS gradient is converged                                               NO
 OPT|
 OPT| Pressure deviation [bar]                                   5718.3762062116
 OPT| Pressure tolerance [bar]                                    100.0000000000
 OPT| Pressure is converged                                                   NO
 OPT| **************************************************************************
 OPT| Estimated peak process memory after this step [MiB]                    169

 --------------------------
 OPTIMIZATION STEP:      4
 --------------------------

 CELL| Volume [angstrom^3]:                                           323.280988
 CELL| Vector a [angstrom]:      13.168     0.000     0.000   |a| =    13.167591
 CELL| Vector b [angstrom]:       0.000     4.171     0.000   |b| =     4.170985
 CELL| Vector c [angstrom]:       0.000     0.000     5.886   |c| =     5.886203
 CELL| Angle (b,c), alpha [degree]:                                    90.000000
 CELL| Angle (a,c), beta  [degree]:                                    90.000000
 CELL| Angle (a,b), gamma [degree]:                                    90.000000
 CELL| Numerically orthorhombic:                                             YES
 CELL| Periodicity                                                           XYZ

 Extrapolation method: ASPC

 Number of electrons:                                                         96
 Number of occupied orbitals:                                                 48
 Number of molecular orbitals:                                                96

 Number of orbital functions:                                                 96
 Number of independent orbital functions:                                     96


 SCF WAVEFUNCTION OPTIMIZATION

  Step     Update method      Time    Convergence         Total energy    Change
  ------------------------------------------------------------------------------
     1 TBLite/Diag 0.40E+00    0.0     0.01214781       -63.2696473537 -6.33E+01
     2 TBLite/Diag 0.40E+00    0.0     0.00435310       -63.2697507734 -1.03E-04
     3 TBLite/Diag 0.40E+00    0.0     0.00057379       -63.2697527198 -1.95E-06
     4 TBLite/Diag 0.40E+00    0.0     0.00013975       -63.2697527792 -5.93E-08
     5 TBLite/Diag 0.40E+00    0.0     0.00006102       -63.2697528213 -4.22E-08
     6 TBLite/Diag 0.40E+00    0.0     0.00001527       -63.2697528223 -9.40E-10
     7 TBLite/Diag 0.40E+00    0.0     0.00000193       -63.2697528223 -2.71E-11
     8 TBLite/Diag 0.40E+00    0.0     0.00000025       -63.2697528223 -5.83E-13
     9 TBLite/Diag 0.40E+00    0.0     0.00000004       -63.2697528223  9.24E-14
    10 TBLite/Diag 0.40E+00    0.0     6.0297E-09       -63.2697528223 -3.55E-14
    11 TBLite/Diag 0.40E+00    0.0     2.3949E-11       -63.2697528223 -4.97E-14

  *** SCF run converged in    11 steps ***


  Core Hamiltonian energy:                                    -64.09942968010380
  Repulsive potential energy:                                   0.53184901163958
  Electrostatic energy:                                         0.34028484584069
  Self-consistent dispersion energy:                            0.00000000000000
  Non-self consistent dispersion energy:                       -0.04245699968809
  Correction for halogen bonding:                               0.00000000000000
  Electronic entropic energy:                                  -0.00000000000000
  Fermi energy:                                                -0.29911379713990

  Total energy:                                               -63.26975282231162
  Total energy (extrapolated to T->0):                        -63.26975282231162

 ENERGY| Total FORCE_EVAL ( QS ) energy [hartree]            -63.269752822311617

 OPT| **************************************************************************
 OPT| Step number                                                              4
 OPT| Optimization method                                                   BFGS
 OPT| Total energy [hartree]                                      -63.2697528223
 OPT| Internal pressure [bar]                                   -3158.0868365155
 OPT| Effective energy change [hartree]                            -0.0037483028
 OPT| Predicted energy change [hartree]                            -0.0022969354
 OPT| Scaling factor                                                0.0000000000
 OPT| Step size                                                     0.0414841665
 OPT| Trust radius                                                  0.4724315332
 OPT| Decrease in energy                                                     YES
 OPT| Used time [s]                                                        0.189
 OPT|
 OPT| Maximum step size                                             0.0414841665
 OPT| Convergence limit for maximum step size                       0.0030000000
 OPT| Maximum step size is converged                                          NO
 OPT|
 OPT| RMS step size                                                 0.0070787380
 OPT| Convergence limit for RMS step size                           0.0015000000
 OPT| RMS step size is converged                                              NO
 OPT|
 OPT| Maximum gradient                                              0.0250557166
 OPT| Convergence limit for maximum gradient                        0.0004500000
 OPT| Maximum gradient is converged                                           NO
 OPT|
 OPT| RMS gradient                                                  0.0047470990
 OPT| Convergence limit for RMS gradient                            0.0003000000
 OPT| RMS gradient is converged                                               NO
 OPT|
 OPT| Pressure deviation [bar]                                  -3158.0868365155
 OPT| Pressure tolerance [bar]                                    100.0000000000
 OPT| Pressure is converged                                                   NO
 OPT| **************************************************************************
 OPT| Estimated peak process memory after this step [MiB]                    169

 --------------------------
 OPTIMIZATION STEP:      5
 --------------------------

 CELL| Volume [angstrom^3]:                                           327.948089
 CELL| Vector a [angstrom]:      13.153     0.000     0.000   |a| =    13.152840
 CELL| Vector b [angstrom]:      -0.000     4.235     0.000   |b| =     4.235078
 CELL| Vector c [angstrom]:       0.000     0.000     5.887   |c| =     5.887408
 CELL| Angle (b,c), alpha [degree]:                                    90.000000
 CELL| Angle (a,c), beta  [degree]:                                    90.000000
 CELL| Angle (a,b), gamma [degree]:                                    90.000000
 CELL| Numerically orthorhombic:                                              NO
 CELL| Periodicity                                                           XYZ

 Extrapolation method: ASPC

 Number of electrons:                                                         96
 Number of occupied orbitals:                                                 48
 Number of molecular orbitals:                                                96

 Number of orbital functions:                                                 96
 Number of independent orbital functions:                                     96


 SCF WAVEFUNCTION OPTIMIZATION

  Step     Update method      Time    Convergence         Total energy    Change
  ------------------------------------------------------------------------------
     1 TBLite/Diag 0.40E+00    0.0     0.02186055       -63.2744649141 -6.33E+01
     2 TBLite/Diag 0.40E+00    0.0     0.00178600       -63.2744846651 -1.98E-05
     3 TBLite/Diag 0.40E+00    0.0     0.00060167       -63.2744867088 -2.04E-06
     4 TBLite/Diag 0.40E+00    0.0     0.00018126       -63.2744871023 -3.93E-07
     5 TBLite/Diag 0.40E+00    0.0     0.00003287       -63.2744871073 -5.00E-09
     6 TBLite/Diag 0.40E+00    0.0     0.00000831       -63.2744871079 -6.16E-10
     7 TBLite/Diag 0.40E+00    0.0     0.00000059       -63.2744871079 -3.15E-12
     8 TBLite/Diag 0.40E+00    0.0     0.00000013       -63.2744871079  1.14E-13
     9 TBLite/Diag 0.40E+00    0.0     0.00000001       -63.2744871079 -1.49E-13
    10 TBLite/Diag 0.40E+00    0.0     2.1352E-10       -63.2744871079  0.00E+00

  *** SCF run converged in    10 steps ***


  Core Hamiltonian energy:                                    -64.09100774137578
  Repulsive potential energy:                                   0.51672496947996
  Electrostatic energy:                                         0.34158868934812
  Self-consistent dispersion energy:                            0.00000000000000
  Non-self consistent dispersion energy:                       -0.04179302536899
  Correction for halogen bonding:                               0.00000000000000
  Electronic entropic energy:                                  -0.00000000000000
  Fermi energy:                                                -0.29751138747922

  Total energy:                                               -63.27448710791668
  Total energy (extrapolated to T->0):                        -63.27448710791668

 ENERGY| Total FORCE_EVAL ( QS ) energy [hartree]            -63.274487107916684

 OPT| **************************************************************************
 OPT| Step number                                                              5
 OPT| Optimization method                                                   BFGS
 OPT| Total energy [hartree]                                      -63.2744871079
 OPT| Internal pressure [bar]                                  -13082.8252670985
 OPT| Effective energy change [hartree]                            -0.0047342856
 OPT| Predicted energy change [hartree]                            -0.0038272510
 OPT| Scaling factor                                                0.0000000000
 OPT| Step size                                                     0.1211190281
 OPT| Trust radius                                                  0.4724315332
 OPT| Decrease in energy                                                     YES
 OPT| Used time [s]                                                        0.185
 OPT|
 OPT| Maximum step size                                             0.1211190281
 OPT| Convergence limit for maximum step size                       0.0030000000
 OPT| Maximum step size is converged                                          NO
 OPT|
 OPT| RMS step size                                                 0.0182136976
 OPT| Convergence limit for RMS step size                           0.0015000000
 OPT| RMS step size is converged                                              NO
 OPT|
 OPT| Maximum gradient                                              0.0133309382
 OPT| Convergence limit for maximum gradient                        0.0004500000
 OPT| Maximum gradient is converged                                           NO
 OPT|
 OPT| RMS gradient                                                  0.0035828336
 OPT| Convergence limit for RMS gradient                            0.0003000000
 OPT| RMS gradient is converged                                               NO
 OPT|
 OPT| Pressure deviation [bar]                                 -13082.8252670985
 OPT| Pressure tolerance [bar]                                    100.0000000000
 OPT| Pressure is converged                                                   NO
 OPT| **************************************************************************
 OPT| Estimated peak process memory after this step [MiB]                    170

 --------------------------
 OPTIMIZATION STEP:      6
 --------------------------

 CELL| Volume [angstrom^3]:                                           329.781753
 CELL| Vector a [angstrom]:      13.142     0.000     0.000   |a| =    13.141516
 CELL| Vector b [angstrom]:       0.000     4.268     0.000   |b| =     4.267962
 CELL| Vector c [angstrom]:       0.000     0.000     5.880   |c| =     5.879773
 CELL| Angle (b,c), alpha [degree]:                                    90.000000
 CELL| Angle (a,c), beta  [degree]:                                    90.000000
 CELL| Angle (a,b), gamma [degree]:                                    90.000000
 CELL| Numerically orthorhombic:                                             YES
 CELL| Periodicity                                                           XYZ

 Extrapolation method: ASPC

 Number of electrons:                                                         96
 Number of occupied orbitals:                                                 48
 Number of molecular orbitals:                                                96

 Number of orbital functions:                                                 96
 Number of independent orbital functions:                                     96


 SCF WAVEFUNCTION OPTIMIZATION

  Step     Update method      Time    Convergence         Total energy    Change
  ------------------------------------------------------------------------------
     1 TBLite/Diag 0.40E+00    0.0     0.01251991       -63.2762262837 -6.33E+01
     2 TBLite/Diag 0.40E+00    0.0     0.00069359       -63.2762318044 -5.52E-06
     3 TBLite/Diag 0.40E+00    0.0     0.00022652       -63.2762321427 -3.38E-07
     4 TBLite/Diag 0.40E+00    0.0     0.00006789       -63.2762321888 -4.61E-08
     5 TBLite/Diag 0.40E+00    0.0     0.00001316       -63.2762321892 -3.50E-10
     6 TBLite/Diag 0.40E+00    0.0     0.00000267       -63.2762321893 -1.33E-10
     7 TBLite/Diag 0.40E+00    0.0     0.00000111       -63.2762321893 -1.17E-11
     8 TBLite/Diag 0.40E+00    0.0     0.00000010       -63.2762321893 -7.11E-15
     9 TBLite/Diag 0.40E+00    0.0     5.4986E-09       -63.2762321893  7.82E-14
    10 TBLite/Diag 0.40E+00    0.0     1.4267E-09       -63.2762321893 -9.24E-14
    11 TBLite/Diag 0.40E+00    0.0     9.6906E-12       -63.2762321893 -4.97E-14

  *** SCF run converged in    11 steps ***


  Core Hamiltonian energy:                                    -64.09314215564767
  Repulsive potential energy:                                   0.51576627823956
  Electrostatic energy:                                         0.34267156063110
  Self-consistent dispersion energy:                            0.00000000000000
  Non-self consistent dispersion energy:                       -0.04152787254987
  Correction for halogen bonding:                               0.00000000000000
  Electronic entropic energy:                                  -0.00000000000000
  Fermi energy:                                                -0.29745778544318

  Total energy:                                               -63.27623218932688
  Total energy (extrapolated to T->0):                        -63.27623218932688

 ENERGY| Total FORCE_EVAL ( QS ) energy [hartree]            -63.276232189326876

 OPT| **************************************************************************
 OPT| Step number                                                              6
 OPT| Optimization method                                                   BFGS
 OPT| Total energy [hartree]                                      -63.2762321893
 OPT| Internal pressure [bar]                                  -14489.0810377293
 OPT| Effective energy change [hartree]                            -0.0017450814
 OPT| Predicted energy change [hartree]                            -0.0010276691
 OPT| Scaling factor                                                0.0000000000
 OPT| Step size                                                     0.0621421483
 OPT| Trust radius                                                  0.4724315332
 OPT| Decrease in energy                                                     YES
 OPT| Used time [s]                                                        0.187
 OPT|
 OPT| Maximum step size                                             0.0621421483
 OPT| Convergence limit for maximum step size                       0.0030000000
 OPT| Maximum step size is converged                                          NO
 OPT|
 OPT| RMS step size                                                 0.0090207078
 OPT| Convergence limit for RMS step size                           0.0015000000
 OPT| RMS step size is converged                                              NO
 OPT|
 OPT| Maximum gradient                                              0.0135590933
 OPT| Convergence limit for maximum gradient                        0.0004500000
 OPT| Maximum gradient is converged                                           NO
 OPT|
 OPT| RMS gradient                                                  0.0035892908
 OPT| Convergence limit for RMS gradient                            0.0003000000
 OPT| RMS gradient is converged                                               NO
 OPT|
 OPT| Pressure deviation [bar]                                 -14489.0810377293
 OPT| Pressure tolerance [bar]                                    100.0000000000
 OPT| Pressure is converged                                                   NO
 OPT| **************************************************************************
 OPT| Estimated peak process memory after this step [MiB]                    170

 --------------------------
 OPTIMIZATION STEP:      7
 --------------------------

 CELL| Volume [angstrom^3]:                                           332.902227
 CELL| Vector a [angstrom]:      13.110     0.000     0.000   |a| =    13.110489
 CELL| Vector b [angstrom]:       0.000     4.340     0.000   |b| =     4.339942
 CELL| Vector c [angstrom]:       0.000     0.000     5.851   |c| =     5.850781
 CELL| Angle (b,c), alpha [degree]:                                    90.000000
 CELL| Angle (a,c), beta  [degree]:                                    90.000000
 CELL| Angle (a,b), gamma [degree]:                                    90.000000
 CELL| Numerically orthorhombic:                                             YES
 CELL| Periodicity                                                           XYZ

 Extrapolation method: ASPC

 Number of electrons:                                                         96
 Number of occupied orbitals:                                                 48
 Number of molecular orbitals:                                                96

 Number of orbital functions:                                                 96
 Number of independent orbital functions:                                     96


 SCF WAVEFUNCTION OPTIMIZATION

  Step     Update method      Time    Convergence         Total energy    Change
  ------------------------------------------------------------------------------
     1 TBLite/Diag 0.40E+00    0.0     0.02887094       -63.2797175174 -6.33E+01
     2 TBLite/Diag 0.40E+00    0.0     0.00189729       -63.2797519891 -3.45E-05
     3 TBLite/Diag 0.40E+00    0.0     0.00048643       -63.2797537388 -1.75E-06
     4 TBLite/Diag 0.40E+00    0.0     0.00013436       -63.2797538521 -1.13E-07
     5 TBLite/Diag 0.40E+00    0.0     0.00003455       -63.2797538595 -7.38E-09
     6 TBLite/Diag 0.40E+00    0.0     0.00000924       -63.2797538611 -1.56E-09
     7 TBLite/Diag 0.40E+00    0.0     0.00000277       -63.2797538611 -3.58E-11
     8 TBLite/Diag 0.40E+00    0.0     0.00000011       -63.2797538611 -9.24E-14
     9 TBLite/Diag 0.40E+00    0.0     0.00000001       -63.2797538611 -1.42E-14
    10 TBLite/Diag 0.40E+00    0.0     6.6426E-10       -63.2797538611  7.11E-14

  *** SCF run converged in    10 steps ***


  Core Hamiltonian energy:                                    -64.10775852458622
  Repulsive potential energy:                                   0.52525915135721
  Electrostatic energy:                                         0.34381094922605
  Self-consistent dispersion energy:                            0.00000000000000
  Non-self consistent dispersion energy:                       -0.04106543708692
  Correction for halogen bonding:                               0.00000000000000
  Electronic entropic energy:                                  -0.00000000000000
  Fermi energy:                                                -0.29660348481740

  Total energy:                                               -63.27975386108989
  Total energy (extrapolated to T->0):                        -63.27975386108989

 ENERGY| Total FORCE_EVAL ( QS ) energy [hartree]            -63.279753861089894

 OPT| **************************************************************************
 OPT| Step number                                                              7
 OPT| Optimization method                                                   BFGS
 OPT| Total energy [hartree]                                      -63.2797538611
 OPT| Internal pressure [bar]                                   -9804.2242835434
 OPT| Effective energy change [hartree]                            -0.0035216718
 OPT| Predicted energy change [hartree]                            -0.0023677826
 OPT| Scaling factor                                                0.0000000000
 OPT| Step size                                                     0.1360220698
 OPT| Trust radius                                                  0.4724315332
 OPT| Decrease in energy                                                     YES
 OPT| Used time [s]                                                        0.184
 OPT|
 OPT| Maximum step size                                             0.1360220698
 OPT| Convergence limit for maximum step size                       0.0030000000
 OPT| Maximum step size is converged                                          NO
 OPT|
 OPT| RMS step size                                                 0.0211917197
 OPT| Convergence limit for RMS step size                           0.0015000000
 OPT| RMS step size is converged                                              NO
 OPT|
 OPT| Maximum gradient                                              0.0087409919
 OPT| Convergence limit for maximum gradient                        0.0004500000
 OPT| Maximum gradient is converged                                           NO
 OPT|
 OPT| RMS gradient                                                  0.0033551586
 OPT| Convergence limit for RMS gradient                            0.0003000000
 OPT| RMS gradient is converged                                               NO
 OPT|
 OPT| Pressure deviation [bar]                                  -9804.2242835434
 OPT| Pressure tolerance [bar]                                    100.0000000000
 OPT| Pressure is converged                                                   NO
 OPT| **************************************************************************
 OPT| Estimated peak process memory after this step [MiB]                    170

 --------------------------
 OPTIMIZATION STEP:      8
 --------------------------

 CELL| Volume [angstrom^3]:                                           335.124775
 CELL| Vector a [angstrom]:      13.082     0.000     0.000   |a| =    13.081726
 CELL| Vector b [angstrom]:       0.000     4.401     0.000   |b| =     4.400517
 CELL| Vector c [angstrom]:       0.000    -0.000     5.822   |c| =     5.821539
 CELL| Angle (b,c), alpha [degree]:                                    90.000000
 CELL| Angle (a,c), beta  [degree]:                                    90.000000
 CELL| Angle (a,b), gamma [degree]:                                    90.000000
 CELL| Numerically orthorhombic:                                              NO
 CELL| Periodicity                                                           XYZ

 Extrapolation method: ASPC

 Number of electrons:                                                         96
 Number of occupied orbitals:                                                 48
 Number of molecular orbitals:                                                96

 Number of orbital functions:                                                 96
 Number of independent orbital functions:                                     96


 SCF WAVEFUNCTION OPTIMIZATION

  Step     Update method      Time    Convergence         Total energy    Change
  ------------------------------------------------------------------------------
     1 TBLite/Diag 0.40E+00    0.0     0.02431763       -63.2821113729 -6.33E+01
     2 TBLite/Diag 0.40E+00    0.0     0.00179795       -63.2821322499 -2.09E-05
     3 TBLite/Diag 0.40E+00    0.0     0.00049883       -63.2821345148 -2.26E-06
     4 TBLite/Diag 0.40E+00    0.0     0.00007348       -63.2821345569 -4.21E-08
     5 TBLite/Diag 0.40E+00    0.0     0.00001540       -63.2821345595 -2.52E-09
     6 TBLite/Diag 0.40E+00    0.0     0.00000578       -63.2821345598 -3.37E-10
     7 TBLite/Diag 0.40E+00    0.0     0.00000156       -63.2821345598 -1.36E-11
     8 TBLite/Diag 0.40E+00    0.0     0.00000014       -63.2821345598 -2.49E-13
     9 TBLite/Diag 0.40E+00    0.0     0.00000001       -63.2821345598 -3.55E-14
    10 TBLite/Diag 0.40E+00    0.0     2.9807E-09       -63.2821345598 -2.84E-14
    11 TBLite/Diag 0.40E+00    0.0     5.7883E-11       -63.2821345598  7.11E-14

  *** SCF run converged in    11 steps ***


  Core Hamiltonian energy:                                    -64.12030670128006
  Repulsive potential energy:                                   0.53506649840949
  Electrostatic energy:                                         0.34383929276311
  Self-consistent dispersion energy:                            0.00000000000000
  Non-self consistent dispersion energy:                       -0.04073364970909
  Correction for halogen bonding:                               0.00000000000000
  Electronic entropic energy:                                  -0.00000000000000
  Fermi energy:                                                -0.29609278070993

  Total energy:                                               -63.28213455981654
  Total energy (extrapolated to T->0):                        -63.28213455981654

 ENERGY| Total FORCE_EVAL ( QS ) energy [hartree]            -63.282134559816541

 OPT| **************************************************************************
 OPT| Step number                                                              8
 OPT| Optimization method                                                   BFGS
 OPT| Total energy [hartree]                                      -63.2821345598
 OPT| Internal pressure [bar]                                   -3976.6350262501
 OPT| Effective energy change [hartree]                            -0.0023806987
 OPT| Predicted energy change [hartree]                            -0.0014943879
 OPT| Scaling factor                                                0.0000000000
 OPT| Step size                                                     0.1144698448
 OPT| Trust radius                                                  0.4724315332
 OPT| Decrease in energy                                                     YES
 OPT| Used time [s]                                                        0.187
 OPT|
 OPT| Maximum step size                                             0.1144698448
 OPT| Convergence limit for maximum step size                       0.0030000000
 OPT| Maximum step size is converged                                          NO
 OPT|
 OPT| RMS step size                                                 0.0184873060
 OPT| Convergence limit for RMS step size                           0.0015000000
 OPT| RMS step size is converged                                              NO
 OPT|
 OPT| Maximum gradient                                              0.0071936122
 OPT| Convergence limit for maximum gradient                        0.0004500000
 OPT| Maximum gradient is converged                                           NO
 OPT|
 OPT| RMS gradient                                                  0.0028883902
 OPT| Convergence limit for RMS gradient                            0.0003000000
 OPT| RMS gradient is converged                                               NO
 OPT|
 OPT| Pressure deviation [bar]                                  -3976.6350262501
 OPT| Pressure tolerance [bar]                                    100.0000000000
 OPT| Pressure is converged                                                   NO
 OPT| **************************************************************************
 OPT| Estimated peak process memory after this step [MiB]                    170

 --------------------------
 OPTIMIZATION STEP:      9
 --------------------------

 CELL| Volume [angstrom^3]:                                           337.357064
 CELL| Vector a [angstrom]:      13.053     0.000     0.000   |a| =    13.052725
 CELL| Vector b [angstrom]:      -0.000     4.461     0.000   |b| =     4.460949
 CELL| Vector c [angstrom]:       0.000    -0.000     5.794   |c| =     5.793772
 CELL| Angle (b,c), alpha [degree]:                                    90.000000
 CELL| Angle (a,c), beta  [degree]:                                    90.000000
 CELL| Angle (a,b), gamma [degree]:                                    90.000000
 CELL| Numerically orthorhombic:                                              NO
 CELL| Periodicity                                                           XYZ

 Extrapolation method: ASPC

 Number of electrons:                                                         96
 Number of occupied orbitals:                                                 48
 Number of molecular orbitals:                                                96

 Number of orbital functions:                                                 96
 Number of independent orbital functions:                                     96


 SCF WAVEFUNCTION OPTIMIZATION

  Step     Update method      Time    Convergence         Total energy    Change
  ------------------------------------------------------------------------------
     1 TBLite/Diag 0.40E+00    0.0     0.02494520       -63.2837676192 -6.33E+01
     2 TBLite/Diag 0.40E+00    0.0     0.00206010       -63.2837955094 -2.79E-05
     3 TBLite/Diag 0.40E+00    0.0     0.00051975       -63.2837985935 -3.08E-06
     4 TBLite/Diag 0.40E+00    0.0     0.00009585       -63.2837986745 -8.10E-08
     5 TBLite/Diag 0.40E+00    0.0     0.00003012       -63.2837986847 -1.02E-08
     6 TBLite/Diag 0.40E+00    0.0     0.00000551       -63.2837986851 -4.40E-10
     7 TBLite/Diag 0.40E+00    0.0     0.00000241       -63.2837986851 -3.56E-11
     8 TBLite/Diag 0.40E+00    0.0     0.00000031       -63.2837986851 -4.19E-13
     9 TBLite/Diag 0.40E+00    0.0     8.4762E-09       -63.2837986851  1.92E-13
    10 TBLite/Diag 0.40E+00    0.0     4.5348E-09       -63.2837986851 -1.85E-13
    11 TBLite/Diag 0.40E+00    0.0     3.5923E-11       -63.2837986851  9.24E-14

  *** SCF run converged in    11 steps ***


  Core Hamiltonian energy:                                    -64.12743589035021
  Repulsive potential energy:                                   0.54117674069439
  Electrostatic energy:                                         0.34286911324704
  Self-consistent dispersion energy:                            0.00000000000000
  Non-self consistent dispersion energy:                       -0.04040864872084
  Correction for halogen bonding:                               0.00000000000000
  Electronic entropic energy:                                  -0.00000000000000
  Fermi energy:                                                -0.29570269729825

  Total energy:                                               -63.28379868512963
  Total energy (extrapolated to T->0):                        -63.28379868512963

 ENERGY| Total FORCE_EVAL ( QS ) energy [hartree]            -63.283798685129625

 OPT| **************************************************************************
 OPT| Step number                                                              9
 OPT| Optimization method                                                   BFGS
 OPT| Total energy [hartree]                                      -63.2837986851
 OPT| Internal pressure [bar]                                    -445.6418899833
 OPT| Effective energy change [hartree]                            -0.0016641253
 OPT| Predicted energy change [hartree]                            -0.0011338312
 OPT| Scaling factor                                                0.0000000000
 OPT| Step size                                                     0.1141998551
 OPT| Trust radius                                                  0.4724315332
 OPT| Decrease in energy                                                     YES
 OPT| Used time [s]                                                        0.182
 OPT|
 OPT| Maximum step size                                             0.1141998551
 OPT| Convergence limit for maximum step size                       0.0030000000
 OPT| Maximum step size is converged                                          NO
 OPT|
 OPT| RMS step size                                                 0.0182168611
 OPT| Convergence limit for RMS step size                           0.0015000000
 OPT| RMS step size is converged                                              NO
 OPT|
 OPT| Maximum gradient                                              0.0047403777
 OPT| Convergence limit for maximum gradient                        0.0004500000
 OPT| Maximum gradient is converged                                           NO
 OPT|
 OPT| RMS gradient                                                  0.0024572112
 OPT| Convergence limit for RMS gradient                            0.0003000000
 OPT| RMS gradient is converged                                               NO
 OPT|
 OPT| Pressure deviation [bar]                                   -445.6418899833
 OPT| Pressure tolerance [bar]                                    100.0000000000
 OPT| Pressure is converged                                                   NO
 OPT| **************************************************************************
 OPT| Estimated peak process memory after this step [MiB]                    170

 --------------------------
 OPTIMIZATION STEP:     10
 --------------------------

 CELL| Volume [angstrom^3]:                                           338.589949
 CELL| Vector a [angstrom]:      13.036     0.000     0.000   |a| =    13.036160
 CELL| Vector b [angstrom]:       0.000     4.493     0.000   |b| =     4.493366
 CELL| Vector c [angstrom]:       0.000     0.000     5.780   |c| =     5.780330
 CELL| Angle (b,c), alpha [degree]:                                    90.000000
 CELL| Angle (a,c), beta  [degree]:                                    90.000000
 CELL| Angle (a,b), gamma [degree]:                                    90.000000
 CELL| Numerically orthorhombic:                                             YES
 CELL| Periodicity                                                           XYZ

 Extrapolation method: ASPC

 Number of electrons:                                                         96
 Number of occupied orbitals:                                                 48
 Number of molecular orbitals:                                                96

 Number of orbital functions:                                                 96
 Number of independent orbital functions:                                     96


 SCF WAVEFUNCTION OPTIMIZATION

  Step     Update method      Time    Convergence         Total energy    Change
  ------------------------------------------------------------------------------
     1 TBLite/Diag 0.40E+00    0.0     0.01607643       -63.2847117627 -6.33E+01
     2 TBLite/Diag 0.40E+00    0.0     0.00107595       -63.2847213062 -9.54E-06
     3 TBLite/Diag 0.40E+00    0.0     0.00027262       -63.2847222822 -9.76E-07
     4 TBLite/Diag 0.40E+00    0.0     0.00007926       -63.2847223467 -6.45E-08
     5 TBLite/Diag 0.40E+00    0.0     0.00002438       -63.2847223532 -6.45E-09
     6 TBLite/Diag 0.40E+00    0.0     0.00000545       -63.2847223533 -1.68E-10
     7 TBLite/Diag 0.40E+00    0.0     0.00000067       -63.2847223533 -6.17E-12
     8 TBLite/Diag 0.40E+00    0.0     0.00000032       -63.2847223533 -6.82E-13
     9 TBLite/Diag 0.40E+00    0.0     5.8980E-09       -63.2847223533  2.13E-13
    10 TBLite/Diag 0.40E+00    0.0     3.3265E-09       -63.2847223533 -7.11E-15
    11 TBLite/Diag 0.40E+00    0.0     3.0441E-11       -63.2847223533  2.84E-14

  *** SCF run converged in    11 steps ***


  Core Hamiltonian energy:                                    -64.12739640737506
  Repulsive potential energy:                                   0.54099771448323
  Electrostatic energy:                                         0.34191134083928
  Self-consistent dispersion energy:                            0.00000000000000
  Non-self consistent dispersion energy:                       -0.04023500129112
  Correction for halogen bonding:                               0.00000000000000
  Electronic entropic energy:                                  -0.00000000000000
  Fermi energy:                                                -0.29560185651896

  Total energy:                                               -63.28472235334367
  Total energy (extrapolated to T->0):                        -63.28472235334367

 ENERGY| Total FORCE_EVAL ( QS ) energy [hartree]            -63.284722353343675

 OPT| **************************************************************************
 OPT| Step number                                                             10
 OPT| Optimization method                                                   BFGS
 OPT| Total energy [hartree]                                      -63.2847223533
 OPT| Internal pressure [bar]                                    -718.3993278034
 OPT| Effective energy change [hartree]                            -0.0009236682
 OPT| Predicted energy change [hartree]                            -0.0005734410
 OPT| Scaling factor                                                0.0000000000
 OPT| Step size                                                     0.0612586040
 OPT| Trust radius                                                  0.4724315332
 OPT| Decrease in energy                                                     YES
 OPT| Used time [s]                                                        0.181
 OPT|
 OPT| Maximum step size                                             0.0612586040
 OPT| Convergence limit for maximum step size                       0.0030000000
 OPT| Maximum step size is converged                                          NO
 OPT|
 OPT| RMS step size                                                 0.0101799965
 OPT| Convergence limit for RMS step size                           0.0015000000
 OPT| RMS step size is converged                                              NO
 OPT|
 OPT| Maximum gradient                                              0.0060131427
 OPT| Convergence limit for maximum gradient                        0.0004500000
 OPT| Maximum gradient is converged                                           NO
 OPT|
 OPT| RMS gradient                                                  0.0023457904
 OPT| Convergence limit for RMS gradient                            0.0003000000
 OPT| RMS gradient is converged                                               NO
 OPT|
 OPT| Pressure deviation [bar]                                   -718.3993278034
 OPT| Pressure tolerance [bar]                                    100.0000000000
 OPT| Pressure is converged                                                   NO
 OPT| **************************************************************************
 OPT| Estimated peak process memory after this step [MiB]                    170

 --------------------------
 OPTIMIZATION STEP:     11
 --------------------------

 CELL| Volume [angstrom^3]:                                           339.889400
 CELL| Vector a [angstrom]:      13.016     0.000     0.000   |a| =    13.015986
 CELL| Vector b [angstrom]:      -0.000     4.527     0.000   |b| =     4.527366
 CELL| Vector c [angstrom]:       0.000    -0.000     5.768   |c| =     5.767864
 CELL| Angle (b,c), alpha [degree]:                                    90.000000
 CELL| Angle (a,c), beta  [degree]:                                    90.000000
 CELL| Angle (a,b), gamma [degree]:                                    90.000000
 CELL| Numerically orthorhombic:                                              NO
 CELL| Periodicity                                                           XYZ

 Extrapolation method: ASPC

 Number of electrons:                                                         96
 Number of occupied orbitals:                                                 48
 Number of molecular orbitals:                                                96

 Number of orbital functions:                                                 96
 Number of independent orbital functions:                                     96


 SCF WAVEFUNCTION OPTIMIZATION

  Step     Update method      Time    Convergence         Total energy    Change
  ------------------------------------------------------------------------------
     1 TBLite/Diag 0.40E+00    0.0     0.01938303       -63.2859719802 -6.33E+01
     2 TBLite/Diag 0.40E+00    0.0     0.00093602       -63.2859807390 -8.76E-06
     3 TBLite/Diag 0.40E+00    0.0     0.00027761       -63.2859815461 -8.07E-07
     4 TBLite/Diag 0.40E+00    0.0     0.00008904       -63.2859816121 -6.60E-08
     5 TBLite/Diag 0.40E+00    0.0     0.00002801       -63.2859816229 -1.08E-08
     6 TBLite/Diag 0.40E+00    0.0     0.00000690       -63.2859816235 -5.74E-10
     7 TBLite/Diag 0.40E+00    0.0     0.00000217       -63.2859816235 -2.39E-11
     8 TBLite/Diag 0.40E+00    0.0     0.00000039       -63.2859816235 -9.73E-13
     9 TBLite/Diag 0.40E+00    0.0     8.7751E-09       -63.2859816235 -7.82E-14
    10 TBLite/Diag 0.40E+00    0.0     4.1296E-09       -63.2859816235  5.68E-14
    11 TBLite/Diag 0.40E+00    0.0     4.2673E-11       -63.2859816235  6.39E-14

  *** SCF run converged in    11 steps ***


  Core Hamiltonian energy:                                    -64.12385994105001
  Repulsive potential energy:                                   0.53710217909503
  Electrostatic energy:                                         0.34083343014348
  Self-consistent dispersion energy:                            0.00000000000000
  Non-self consistent dispersion energy:                       -0.04005729171547
  Correction for halogen bonding:                               0.00000000000000
  Electronic entropic energy:                                  -0.00000000000000
  Fermi energy:                                                -0.29571827182546

  Total energy:                                               -63.28598162352697
  Total energy (extrapolated to T->0):                        -63.28598162352697

 ENERGY| Total FORCE_EVAL ( QS ) energy [hartree]            -63.285981623526972

 OPT| **************************************************************************
 OPT| Step number                                                             11
 OPT| Optimization method                                                   BFGS
 OPT| Total energy [hartree]                                      -63.2859816235
 OPT| Internal pressure [bar]                                   -3345.5157189733
 OPT| Effective energy change [hartree]                            -0.0012592702
 OPT| Predicted energy change [hartree]                            -0.0008106208
 OPT| Scaling factor                                                0.0000000000
 OPT| Step size                                                     0.0642505062
 OPT| Trust radius                                                  0.4724315332
 OPT| Decrease in energy                                                     YES
 OPT| Used time [s]                                                        0.180
 OPT|
 OPT| Maximum step size                                             0.0642505062
 OPT| Convergence limit for maximum step size                       0.0030000000
 OPT| Maximum step size is converged                                          NO
 OPT|
 OPT| RMS step size                                                 0.0125389760
 OPT| Convergence limit for RMS step size                           0.0015000000
 OPT| RMS step size is converged                                              NO
 OPT|
 OPT| Maximum gradient                                              0.0077034983
 OPT| Convergence limit for maximum gradient                        0.0004500000
 OPT| Maximum gradient is converged                                           NO
 OPT|
 OPT| RMS gradient                                                  0.0025929204
 OPT| Convergence limit for RMS gradient                            0.0003000000
 OPT| RMS gradient is converged                                               NO
 OPT|
 OPT| Pressure deviation [bar]                                  -3345.5157189733
 OPT| Pressure tolerance [bar]                                    100.0000000000
 OPT| Pressure is converged                                                   NO
 OPT| **************************************************************************
 OPT| Estimated peak process memory after this step [MiB]                    170

 --------------------------
 OPTIMIZATION STEP:     12
 --------------------------

 CELL| Volume [angstrom^3]:                                           341.159273
 CELL| Vector a [angstrom]:      12.992     0.000     0.000   |a| =    12.991842
 CELL| Vector b [angstrom]:      -0.000     4.561     0.000   |b| =     4.561435
 CELL| Vector c [angstrom]:       0.000    -0.000     5.757   |c| =     5.756850
 CELL| Angle (b,c), alpha [degree]:                                    90.000000
 CELL| Angle (a,c), beta  [degree]:                                    90.000000
 CELL| Angle (a,b), gamma [degree]:                                    90.000000
 CELL| Numerically orthorhombic:                                              NO
 CELL| Periodicity                                                           XYZ

 Extrapolation method: ASPC

 Number of electrons:                                                         96
 Number of occupied orbitals:                                                 48
 Number of molecular orbitals:                                                96

 Number of orbital functions:                                                 96
 Number of independent orbital functions:                                     96


 SCF WAVEFUNCTION OPTIMIZATION

  Step     Update method      Time    Convergence         Total energy    Change
  ------------------------------------------------------------------------------
     1 TBLite/Diag 0.40E+00    0.0     0.01903327       -63.2874629210 -6.33E+01
     2 TBLite/Diag 0.40E+00    0.0     0.00052876       -63.2874652346 -2.31E-06
     3 TBLite/Diag 0.40E+00    0.0     0.00019687       -63.2874653634 -1.29E-07
     4 TBLite/Diag 0.40E+00    0.0     0.00008709       -63.2874654391 -7.58E-08
     5 TBLite/Diag 0.40E+00    0.0     0.00001681       -63.2874654428 -3.62E-09
     6 TBLite/Diag 0.40E+00    0.0     0.00000683       -63.2874654432 -3.94E-10
     7 TBLite/Diag 0.40E+00    0.0     0.00000120       -63.2874654432 -1.30E-11
     8 TBLite/Diag 0.40E+00    0.0     0.00000016       -63.2874654432 -4.62E-13
     9 TBLite/Diag 0.40E+00    0.0     8.4190E-09       -63.2874654432  1.42E-13
    10 TBLite/Diag 0.40E+00    0.0     2.3436E-09       -63.2874654432 -9.24E-14
    11 TBLite/Diag 0.40E+00    0.0     1.8450E-11       -63.2874654432  7.82E-14

  *** SCF run converged in    11 steps ***


  Core Hamiltonian energy:                                    -64.11915522030127
  Repulsive potential energy:                                   0.53121687714230
  Electrostatic energy:                                         0.34035979332750
  Self-consistent dispersion energy:                            0.00000000000000
  Non-self consistent dispersion energy:                       -0.03988689334145
  Correction for halogen bonding:                               0.00000000000000
  Electronic entropic energy:                                  -0.00000000000000
  Fermi energy:                                                -0.29612266659484

  Total energy:                                               -63.28746544317292
[...]
 CELL| Angle (a,c), beta  [degree]:                                    90.000000
 CELL| Angle (a,b), gamma [degree]:                                    90.000001
 CELL| Numerically orthorhombic:                                              NO
 CELL| Periodicity                                                           XYZ

 Extrapolation method: ASPC

 Number of electrons:                                                         96
 Number of occupied orbitals:                                                 48
 Number of molecular orbitals:                                                96

 Number of orbital functions:                                                 96
 Number of independent orbital functions:                                     96


 SCF WAVEFUNCTION OPTIMIZATION

  Step     Update method      Time    Convergence         Total energy    Change
  ------------------------------------------------------------------------------
     1 TBLite/Diag 0.40E+00    0.0     0.00171166       -63.3342291068 -6.33E+01
     2 TBLite/Diag 0.40E+00    0.0     0.00002176       -63.3342291120 -5.21E-09
     3 TBLite/Diag 0.40E+00    0.0     0.00001009       -63.3342291124 -4.50E-10
     4 TBLite/Diag 0.40E+00    0.0     0.00000264       -63.3342291125 -1.04E-10
     5 TBLite/Diag 0.40E+00    0.0     0.00000064       -63.3342291125 -2.89E-12
     6 TBLite/Diag 0.40E+00    0.0     0.00000019       -63.3342291125 -1.56E-13
     7 TBLite/Diag 0.40E+00    0.0     0.00000002       -63.3342291125 -4.97E-14
     8 TBLite/Diag 0.40E+00    0.0     0.00000001       -63.3342291125  1.28E-13
     9 TBLite/Diag 0.40E+00    0.0     8.4777E-10       -63.3342291125 -8.53E-14

  *** SCF run converged in     9 steps ***


  Core Hamiltonian energy:                                    -64.15590322415612
  Repulsive potential energy:                                   0.53843092467545
  Electrostatic energy:                                         0.33824081364697
  Self-consistent dispersion energy:                            0.00000000000000
  Non-self consistent dispersion energy:                       -0.05499762669959
  Correction for halogen bonding:                               0.00000000000000
  Electronic entropic energy:                                  -0.00000000000000
  Fermi energy:                                                -0.29334612181238

  Total energy:                                               -63.33422911253329
  Total energy (extrapolated to T->0):                        -63.33422911253329

 ENERGY| Total FORCE_EVAL ( QS ) energy [hartree]            -63.334229112533286

 OPT| **************************************************************************
 OPT| Step number                                                            169
 OPT| Optimization method                                                   BFGS
 OPT| Total energy [hartree]                                      -63.3342291125
 OPT| Internal pressure [bar]                                     -81.9495531189
 OPT| Effective energy change [hartree]                            -0.0000005258
 OPT| Predicted energy change [hartree]                            -0.0000005203
 OPT| Scaling factor                                                0.0307781596
 OPT| Step size                                                     0.0028552941
 OPT| Trust radius                                                  0.4724315332
 OPT| Decrease in energy                                                     YES
 OPT| Used time [s]                                                        0.217
 OPT|
 OPT| Maximum step size                                             0.0028552941
 OPT| Convergence limit for maximum step size                       0.0030000000
 OPT| Maximum step size is converged                                         YES
 OPT|
 OPT| RMS step size                                                 0.0011205259
 OPT| Convergence limit for RMS step size                           0.0015000000
 OPT| RMS step size is converged                                             YES
 OPT|
 OPT| Maximum gradient                                              0.0001202984
 OPT| Convergence limit for maximum gradient                        0.0004500000
 OPT| Maximum gradient is converged                                          YES
 OPT|
 OPT| RMS gradient                                                  0.0000266010
 OPT| Convergence limit for RMS gradient                            0.0003000000
 OPT| RMS gradient is converged                                              YES
 OPT|
 OPT| Pressure deviation [bar]                                    -81.9495531189
 OPT| Pressure tolerance [bar]                                    100.0000000000
 OPT| Pressure is converged                                                  YES
 OPT| **************************************************************************
 OPT| Estimated peak process memory after this step [MiB]                    170

 *******************************************************************************
 ***                    GEOMETRY OPTIMIZATION COMPLETED                      ***
 *******************************************************************************

 write_final_structure: Optimization converged, writing XYZ file gladly:
  acetic_acid_GFN1_gamma_cell_opt-FINAL-1_169.xyz

 write_final_structure: Optimization converged, writing CIF file gladly:
  acetic_acid_GFN1_gamma_cell_opt-FINAL-1_169.cif

 write_final_structure: Done!

                    Reevaluating energy at the minimum

 CELL| Volume [angstrom^3]:                                           251.754739
 CELL| Vector a [angstrom]:      12.256     0.000     0.000   |a| =    12.255934
 CELL| Vector b [angstrom]:      -0.000     4.842     0.000   |b| =     4.842495
 CELL| Vector c [angstrom]:      -0.000     0.000     4.242   |c| =     4.241916
 CELL| Angle (b,c), alpha [degree]:                                    90.000000
 CELL| Angle (a,c), beta  [degree]:                                    90.000000
 CELL| Angle (a,b), gamma [degree]:                                    90.000001
 CELL| Numerically orthorhombic:                                              NO
 CELL| Periodicity                                                           XYZ

 Extrapolation method: ASPC

 Number of electrons:                                                         96
 Number of occupied orbitals:                                                 48
 Number of molecular orbitals:                                                96

 Number of orbital functions:                                                 96
 Number of independent orbital functions:                                     96


 SCF WAVEFUNCTION OPTIMIZATION

  Step     Update method      Time    Convergence         Total energy    Change
  ------------------------------------------------------------------------------
     1 TBLite/Diag 0.40E+00    0.0     1.4104E-09       -63.3342291125 -6.33E+01
     2 TBLite/Diag 0.40E+00    0.0     1.4509E-09       -63.3342291125  1.42E-14
     3 TBLite/Diag 0.40E+00    0.0     4.5009E-10       -63.3342291125  7.11E-14

  *** SCF run converged in     3 steps ***


  Core Hamiltonian energy:                                    -64.15590322399031
  Repulsive potential energy:                                   0.53843092467545
  Electrostatic energy:                                         0.33824081348124
  Self-consistent dispersion energy:                            0.00000000000000
  Non-self consistent dispersion energy:                       -0.05499762669959
  Correction for halogen bonding:                               0.00000000000000
  Electronic entropic energy:                                  -0.00000000000000
  Fermi energy:                                                -0.29334612177183

  Total energy:                                               -63.33422911253322
  Total energy (extrapolated to T->0):                        -63.33422911253322

 ENERGY| Total FORCE_EVAL ( QS ) energy [hartree]            -63.334229112533215

 -------------------------------------------------------------------------------
 -                                                                             -
 -                                DBCSR STATISTICS                             -
 -                                                                             -
 -------------------------------------------------------------------------------
 COUNTER                                    TOTAL       BLAS       SMM       ACC
 flops     2 x    32 x     2            165150720       0.0%    100.0%      0.0%     
 flops     2 x     2 x    96            222683136       0.0%    100.0%      0.0%     
 flops     4 x    32 x     2            330301440       0.0%    100.0%      0.0%     
 flops     2 x    32 x     4            330301440       0.0%    100.0%      0.0%     
 flops     4 x     2 x    96            419168256       0.0%    100.0%      0.0%     
 flops     2 x     4 x    96            419168256       0.0%    100.0%      0.0%     
 flops     4 x    32 x     4            660602880       0.0%    100.0%      0.0%     
 flops     4 x     4 x    96            890732544       0.0%    100.0%      0.0%     
 flops inhomo. stacks                           0       0.0%      0.0%      0.0%
 flops total                         3.438109E+09       0.0%    100.0%      0.0%
 flops max/rank                      3.438109E+09       0.0%    100.0%      0.0%
 matmuls inhomo. stacks                         0       0.0%      0.0%      0.0%
 matmuls total                            3706176       0.0%    100.0%      0.0%
 number of processed stacks                 11888       0.0%    100.0%      0.0%
 average stack size                                     0.0     311.8       0.0
 marketing flops                     3.372614E+09
 -------------------------------------------------------------------------------
 # multiplications                           2972
 max memory usage/rank              13.673816E+09
 # max total images/rank                        1
 # max 3D layers                                1
 # MPI messages exchanged                       0
 -------------------------------------------------------------------------------
 -                                                                             -
 -                      DBCSR MESSAGE PASSING PERFORMANCE                      -
 -                                                                             -
 -------------------------------------------------------------------------------
 ROUTINE             CALLS      AVE VOLUME [Bytes]
 MP_Bcast                9                     12.
 MP_Allreduce        13215                      8.
 MP_Alltoall         94760                  49387.
 MP_ISend            11888                   4543.
 MP_IRecv            11888                   4543.
 -------------------------------------------------------------------------------

 -------------------------------------------------------------------------------
 -                                                                             -
 -                          OFFLOAD MEMPOOL STATISTICS                         -
 -                                                                             -
 -------------------------------------------------------------------------------
 Memory consumption                Number of allocations  Used [MiB]  Size [MiB]
 Device                                                2           0           0
 Host                                                  2           0           0
 -------------------------------------------------------------------------------

 MEMORY| Estimated peak process memory [MiB]                                 170

 -------------------------------------------------------------------------------
 -                                                                             -
 -                         MESSAGE PASSING PERFORMANCE                         -
 -                                                                             -
 -------------------------------------------------------------------------------

 ROUTINE             CALLS      AVE VOLUME [Bytes]
 MP_Group              170
 MP_Bcast             4262                    388.
 MP_Allreduce        34179                    222.
 MP_Sync              2301
 MP_comm_split        2131
 -------------------------------------------------------------------------------


 -------------------------------------------------------------------------------
 -                                                                             -
 -                           R E F E R E N C E S                               -
 -                                                                             -
 -------------------------------------------------------------------------------
 
 CP2K version 2026.1 (Development Version), the CP2K developers group (2026).
 CP2K is freely available from https://www.cp2k.org/ .
 
 M. Iannuzzi, J. Wilhelm, F. Stein, A. Bussy, H. Elgabarty, D. Golze, A. Hehn, 
 M. Graml, S. Marek, B. Sertcan Gökmen, C. Schran, H. Forbert, R. Z. 
 Khaliullin, A. Kozhevnikov, M. Taillefumier, R. Meli, V. V. Rybkin, M. Brehm, 
 R. Schade, O. Schütt, J. V. Pototschnig, H. Mirhosseini, A. Knüpfer, D. Marx, 
 M. Krack, J. Hutter, T. D. Kühne.
 J. Phys. Chem. B 130, 1237-1310 (2026).
 The CP2K Program Package Made Simple.
 https://doi.org/10.1021/acs.jpcb.5c05851

 A. Katbashev, M. Stahn, T. Rose, V. Alizadeh, M. Friede, C. Plett, P. 
 Steinbach, S. Ehlert.
 J. Phys. Chem. A 129, 2667-2682 (2025).
 Overview on Building Blocks and Applications of Efficient and Robust Extended 
 Tight Binding.
 https://doi.org/10.1021/acs.jpca.4c08263

 T. D. Kühne, M. Iannuzzi, M. Del Ben, V. V. Rybkin, P. Seewald, F. Stein, T. 
 Laino, R. Z. Khaliullin, O. Schütt, F. Schiffmann, D. Golze, J. Wilhelm, S. 
 Chulkov, M. H. Bani-Hashemian, V. Weber, U. Borstnik, M. Taillefumier, A. S. 
 Jakobovits, A. Lazzaro, H. Pabst, T. Müller, R. Schade, M. Guidon, S. 
 Andermatt, N. Holmberg, G. K. Schenter, A. Hehn, A. Bussy, F. Belleflamme, G. 
 Tabacchi, A. Glöß, M. Lass, I. Bethune, C. J. Mundy, C. Plessl, M. Watkins, 
 J. VandeVondele, M. Krack, J. Hutter.
 J. Chem. Phys. 152, 194103 (2020).
 CP2K: An electronic structure and molecular dynamics software package - 
 Quickstep: Efficient and accurate electronic structure calculations.
 https://doi.org/10.1063/5.0007045

 P. Pracht, E. Caldeweyher, S. Ehlert, S. Grimme.
 ChemRxiv, (2019).
 A Robust Non-Self-Consistent Tight-Binding Quantum Chemistry Method for large 
 Molecules.
 https://doi.org/10.26434/chemrxiv.8326202.v1

 S. Grimme, C. Bannwarth, P. Shushkov.
 J. Chem. Theory Comput. 13, 1989 (2017).
 A Robust and Accurate Tight-Binding Quantum Chemical Method for Structures, 
 Vibrational Frequencies, and Noncovalent Interactions of Large Molecular 
 Systems Parametrized for All spd-Block Elements (Z = 1-86).
 https://doi.org/10.1021/acs.jctc.7b00118

 O. Schuett, P. Messmer, J. Hutter, J. VandeVondele.
 Electronic Structure Calculations on Graphics Processing Units, 173-190 (2016).
 GPU-Accelerated Sparse Matrix-Matrix Multiplication for Linear Scaling Density 
 Functional Theory.
 https://doi.org/10.1002/9781118670712.ch8

 A. Heinecke, G. Henry, M. Hutchinson, H. Pabst.
 Proceedings of Intl. Supercomputing Conference, 981-991 (2016).
 LIBXSMM: Accelerating Small Matrix Multiplications by Runtime Code Generation.
 https://doi.org/10.1109/SC.2016.83

 U. Borstnik, J. VandeVondele, V. Weber, J. Hutter.
 Parallel Comput. 40, 47-58 (2014).
 Sparse matrix multiplication: The distributed block-compressed sparse row 
 library.
 https://doi.org/10.1016/j.parco.2014.03.012

 T. D. Kühne, M. Krack, F. R. Mohamed, M. Parrinello.
 Phys. Rev. Lett. 98, 066401 (2007).
 Efficient and accurate Car-Parrinello-like approach to Born-Oppenheimer 
 molecular dynamics.
 https://doi.org/10.1103/PhysRevLett.98.066401

 M. Frigo, S. G. Johnson.
 Proc. IEEE 93, 216-231 (2005).
 The design and implementation of FFTW3.
 https://doi.org/10.1109/JPROC.2004.840301

 J. Kolafa.
 J. Comput. Chem. 25, 335-342 (2004).
 Time-reversible always stable predictor-corrector method for molecular dynamics 
 of polarizable molecules.
 https://doi.org/10.1002/jcc.10385

 N. D. Mermin.
 Phys. Rev. 137, A1441-A1443 (1965).
 Thermal Properties of the Inhomogeneous Electron Gas.
 https://doi.org/10.1103/PhysRev.137.A1441


 -------------------------------------------------------------------------------
 -                                                                             -
 -                                T I M I N G                                  -
 -                                                                             -
 -------------------------------------------------------------------------------
 SUBROUTINE                       CALLS  ASD         SELF TIME        TOTAL TIME
                                MAXIMUM       AVERAGE  MAXIMUM  AVERAGE  MAXIMUM
 CP2K                                 1  1.0    0.002    0.002   36.304   36.304
 cp_cell_opt                          1  2.0    0.000    0.000   36.296   36.296
 geoopt_bfgs                          1  3.0    0.014    0.014   36.296   36.296
 cp_eval_at                         171  4.0    0.014    0.014   36.072   36.072
 qs_forces                          170  5.0    0.008    0.008   36.002   36.002
 build_tblite_matrices              341  7.0   15.987   15.987   16.198   16.198
 rebuild_ks_matrix                 1962  9.7    0.001    0.001   14.797   14.797
 build_tblite_ks_matrix            1962 10.7   14.783   14.783   14.796   14.796
 qs_ks_update_qs_env_forces         170  6.0    0.000    0.000   14.518   14.518
 qs_energies                        171  6.0    0.004    0.004   11.820   11.820
 qs_energies_init_hamiltonians      171  7.0    0.001    0.001    6.797    6.797
 scf_env_do_scf                     171  7.0    0.002    0.002    4.029    4.029
 scf_env_do_scf_inner_loop         1792  8.0    0.100    0.100    4.018    4.018
 qs_scf_new_mos                    1792  9.0    0.006    0.006    3.403    3.403
 eigensolver                       1792 10.0    0.017    0.017    1.263    1.263
 cp_fm_syevd                       2131 10.6    0.003    0.003    1.209    1.209
 cp_dbcsr_plus_fm_fm_t             2132 10.8    0.008    0.008    1.205    1.205
 calculate_dm_sparse               1962 10.0    0.006    0.006    1.125    1.125
 cp_fm_syevd_base                  2131 11.6    1.114    1.114    1.114    1.114
 dbcsr_multiply_generic            2972 12.0    0.045    0.045    1.099    1.099
 dbcsr_complete_redistribute       9528 12.2    0.739    0.739    0.957    0.957
 copy_dbcsr_to_fm                  4424 10.6    0.014    0.014    0.940    0.940
 init_scf_run                       171  7.0    0.001    0.001    0.822    0.822
 scf_env_initial_rho_setup          171  8.0    0.001    0.001    0.763    0.763
 wfi_extrapolate                    171  9.0    0.004    0.004    0.762    0.762
 -------------------------------------------------------------------------------

 The number of warnings for this run is : 0
 
 -------------------------------------------------------------------------------
  **** **** ******  **  PROGRAM ENDED AT                 2026-05-23 22:47:25.487
 ***** ** ***  *** **   PROGRAM RAN ON                                spark-c86c
 **    ****   ******    PROGRAM RAN BY                                  kuehne88
 ***** **    ** ** **   PROGRAM PROCESS ID                               2263623
  **** **  *******  **  PROGRAM STOPPED IN /home/kuehne88/periodic-gfn2-benchmar
                                           ks/X23b/runs/cellopt_gamma/GFN1/aceti
                                           c_acid_GFN1_gamma_cellopt
