 DBCSR| CPU Multiplication driver                                           XSMM (U)
 DBCSR| Multrec recursion limit                                              512 (U)
 DBCSR| Multiplication stack size                                           1000 (D)
 DBCSR| Maximum elements for images                                    UNLIMITED (U)
 DBCSR| Multiplicative factor virtual images                                   1 (U)
 DBCSR| Use multiplication densification                                       T (D)
 DBCSR| Multiplication size stacks                                             3 (U)
 DBCSR| Use memory pool for CPU allocation                                     F (U)
 DBCSR| Number of 3D layers                                               SINGLE (U)
 DBCSR| Use MPI memory allocation                                              F (U)
 DBCSR| Use RMA algorithm                                                      F (U)
 DBCSR| Use Communication thread                                               T (U)
 DBCSR| Communication thread load                                             87 (D)
 DBCSR| MPI: My process id                                                     0
 DBCSR| MPI: Number of processes                                               1
 DBCSR| OMP: Current number of threads                                         1
 DBCSR| OMP: Max number of threads                                             1
 DBCSR| Split modifier for TAS multiplication algorithm                  1.0E+00 (U)


  **** **** ******  **  PROGRAM STARTED AT               2026-05-23 22:46:54.356
 ***** ** ***  *** **   PROGRAM STARTED ON                            spark-c86c
 **    ****   ******    PROGRAM STARTED BY                              kuehne88
 ***** **    ** ** **   PROGRAM PROCESS ID                               2266132
  **** **  *******  **  PROGRAM STARTED IN /home/kuehne88/periodic-gfn2-benchmar
                                           ks/X23b/runs/cellopt_gamma/GFN1/oxali
                                           c_acid_beta_GFN1_gamma_cellopt

 CP2K| version string:                 CP2K version 2026.1 (Development Version)
 CP2K| source code revision number:                                   0622d442e4
 CP2K| cp2kflags: omp fftw3 libxc parallel scalapack mpi_f08 xsmm spglib libdftd
 CP2K|            4 dftd4_v3 mctc-lib tblite
 CP2K| is freely available from                            https://www.cp2k.org/
 CP2K| Program compiled at                                   2026-05-23 22:05:08
 CP2K| Program compiled on                                            spark-c86c
 CP2K| Program compiled for                                              aarch64
 CP2K| Data directory path    /home/kuehne88/cp2k-master-tblite-20260523/install
 CP2K| Input file name                   oxalic_acid_beta_GFN1_gamma_cellopt.inp

 GLOBAL| Force Environment number                                              1
 GLOBAL| Basis set file name                                           BASIS_SET
 GLOBAL| Potential file name                                           POTENTIAL
 GLOBAL| MM Potential file name                                     MM_POTENTIAL
 GLOBAL| Coordinate file name                                      __STD_INPUT__
 GLOBAL| Method name                                                        CP2K
 GLOBAL| Project name                       oxalic_acid_beta_GFN1_gamma_cell_opt
 GLOBAL| Run type                                                       CELL_OPT
 GLOBAL| FFT library                                                       FFTW3
 GLOBAL| Diagonalization library                                       ScaLAPACK
 GLOBAL| Cholesky decomposition library                                ScaLAPACK
 GLOBAL| DGEMM library                                                      BLAS
 GLOBAL| Direct generalized diagonalization requested                          F
 GLOBAL| Orthonormality check for eigenvectors                          DISABLED
 GLOBAL| Matrix multiplication library                                 ScaLAPACK
 GLOBAL| All-to-all communication in single precision                          F
 GLOBAL| FFTs using library dependent lengths                                  F
 GLOBAL| Grid backend                                                       AUTO
 GLOBAL| Global print level                                                  LOW
 GLOBAL| MPI I/O enabled                                                       T
 GLOBAL| Total number of message passing processes                             1
 GLOBAL| Number of distributed systems (nodes)                                 1
 GLOBAL| Number of threads for this process                                    1
 GLOBAL| This output is from process                                           0
 GLOBAL| OpenMP stack size per thread (OMP_STACKSIZE)                    default
 GLOBAL| CPU model name                                                  UNKNOWN
 GLOBAL| CPUID                                                              2200
 GLOBAL| Compiled for CPUID                                                 2000

 *** HINT in environment.F:970 :: The compiler target flags (arm_arch64)   ***
 *** used to build this binary cannot exploit all extensions of this CPU   ***
 *** model (arm_sve256). Consider compiler target flags as part of FCFLAGS ***
 *** and CFLAGS (ARCH file).                                               ***


 MEMORY| system memory details [Kb]
 MEMORY|                        rank 0           min           max       average
 MEMORY| MemTotal            125508532     125508532     125508532     125508532
 MEMORY| MemFree             102242104     102242104     102242104     102242104
 MEMORY| Buffers                867476        867476        867476        867476
 MEMORY| Cached               13968644      13968644      13968644      13968644
 MEMORY| Slab                  1590680       1590680       1590680       1590680
 MEMORY| SReclaimable           912412        912412        912412        912412
 MEMORY| MemLikelyFree       117990636     117990636     117990636     117990636


 GENERATE|  Preliminary Number of Bonds generated:                             0
 GENERATE|  Achieved consistency in connectivity generation.


                  #####   #####        #     #   #     #       #          
                 #     # #     #      #    ##### #     #   # #####  ####  
                 #     # #           #       #   ###   #       #   #    # 
                 #     #  #####     #        #   #  #  #   #   #   ###### 
                 #   # #       #   #         #   #   # #   #   #   #      
                 #    #  #     #  #          #   #  #  # # #   #    #   # 
                  #### #  #####  #           #   ###   ##  #   #     ###  

                                   GFN1-xTB  
                                 Version 0.0                       
                            Johann V. Pototschnig                  



 TOTAL NUMBERS AND MAXIMUM NUMBERS

  Total number of            - Atomic kinds:                                   3
                             - Atoms:                                         16
                             - Shell sets:                                    32
                             - Shells:                                        32
                             - Primitive Cartesian functions:                188
                             - Cartesian basis functions:                     56
                             - Spherical basis functions:                     56

  Maximum angular momentum of the orbital basis functions:                     1


 SCF PARAMETERS         Density guess:                                     MOPAC
                        --------------------------------------------------------
                        max_scf:                                             300
                        max_scf_history:                                       0
                        max_diis:                                              4
                        --------------------------------------------------------
                        eps_scf:                                        1.00E-09
                        eps_scf_history:                                0.00E+00
                        eps_diis:                                       1.00E-01
                        eps_eigval:                                     1.00E-05
                        --------------------------------------------------------
                        level_shift [a.u.]:                             0.000000
                        added MOs                                        22    0
                        --------------------------------------------------------
                        Mixing method:                           DIRECT_P_MIXING
                        --------------------------------------------------------
                        Smear method:                                FERMI_DIRAC
                        Electronic temperature [K]:                        300.0
                        Electronic temperature [a.u.]:                  9.50E-04
                        Accuracy threshold:                             1.00E-06
                        --------------------------------------------------------
                        No outer SCF

 CELL_OPT| Pressure tolerance [bar]:                                       100.0
 CELL_OPT| Keep volume of cell:                                               NO
 CELL_OPT| Keep angles between the cell vectors:                              NO
 CELL_OPT| Keep cell symmetry:                                                NO
 CELL_OPT| Constraint:                                                      NONE

 BFGS| Use rational function optimization for step estimation:                NO
 BFGS| Use model Hessian for initial guess:                                   NO
 BFGS| Restart Hessian:                                                       NO
 BFGS| Trust radius:                                                       0.472

 *******************************************************************************
 ***                     STARTING   CELL   OPTIMIZATION                      ***
 ***                                   BFGS                                  ***
 *******************************************************************************

 CELL| Volume [angstrom^3]:                                           156.865917
 CELL| Vector a [angstrom]:       5.330     0.000     0.000   |a| =     5.330000
 CELL| Vector b [angstrom]:       0.000     6.015     0.000   |b| =     6.015000
 CELL| Vector c [angstrom]:      -2.368     0.000     4.893   |c| =     5.436000
 CELL| Angle (b,c), alpha [degree]:                                    90.000000
 CELL| Angle (a,c), beta  [degree]:                                   115.830000
 CELL| Angle (a,b), gamma [degree]:                                    90.000000
 CELL| Numerically orthorhombic:                                              NO
 CELL| Periodicity                                                           XYZ

 Extrapolation method: initial_guess

 Number of electrons:                                                         68
 Number of occupied orbitals:                                                 34
 Number of molecular orbitals:                                                56

 Number of orbital functions:                                                 56
 Number of independent orbital functions:                                     56


 SCF WAVEFUNCTION OPTIMIZATION

  Step     Update method      Time    Convergence         Total energy    Change
  ------------------------------------------------------------------------------
     1 TBLite/Diag 0.40E+00    0.0     1.56799123       -47.0196558030 -4.70E+01
     2 TBLite/Diag 0.40E+00    0.0     0.30205731       -48.2820717778 -1.26E+00
     3 TBLite/Diag 0.40E+00    0.0     0.02673223       -48.2901464628 -8.07E-03
     4 TBLite/Diag 0.40E+00    0.0     0.02540836       -48.2911078552 -9.61E-04
     5 TBLite/Diag 0.40E+00    0.0     0.01560206       -48.2910010903  1.07E-04
     6 TBLite/Diag 0.40E+00    0.0     0.01270967       -48.2914557074 -4.55E-04
     7 TBLite/Diag 0.40E+00    0.0     0.00425421       -48.2916020068 -1.46E-04
     8 TBLite/Diag 0.40E+00    0.0     0.00001676       -48.2916020049  1.94E-09
     9 TBLite/Diag 0.40E+00    0.0     0.00002446       -48.2916020064 -1.54E-09
    10 TBLite/Diag 0.40E+00    0.0     0.00000841       -48.2916020070 -5.78E-10
    11 TBLite/Diag 0.40E+00    0.0     0.00000001       -48.2916020070  0.00E+00
    12 TBLite/Diag 0.40E+00    0.0     8.6228E-09       -48.2916020070  2.13E-14
    13 TBLite/Diag 0.40E+00    0.0     6.6572E-12       -48.2916020070  2.84E-14

  *** SCF run converged in    13 steps ***


  Core Hamiltonian energy:                                    -48.91741068873527
  Repulsive potential energy:                                   0.33208867298707
  Electrostatic energy:                                         0.32320525978855
  Self-consistent dispersion energy:                            0.00000000000000
  Non-self consistent dispersion energy:                       -0.02948525100621
  Correction for halogen bonding:                               0.00000000000000
  Electronic entropic energy:                                  -0.00000000000000
  Fermi energy:                                                -0.36545998145275

  Total energy:                                               -48.29160200696586
  Total energy (extrapolated to T->0):                        -48.29160200696586

 ENERGY| Total FORCE_EVAL ( QS ) energy [hartree]            -48.291602006965860

 OPT| **************************************************************************
 OPT| Step number                                                              0
 OPT| Optimization method                                                   BFGS
 OPT| Total energy [hartree]                                      -48.2916020070
 OPT| Internal pressure [bar]                                   14629.2073658072
 OPT| Used time [s]                                                        0.159
 OPT| **************************************************************************
 OPT| Estimated peak process memory [MiB]                                    165

 --------------------------
 OPTIMIZATION STEP:      1
 --------------------------

 CELL| Volume [angstrom^3]:                                           157.126112
 CELL| Vector a [angstrom]:       5.360     0.000     0.000   |a| =     5.360217
 CELL| Vector b [angstrom]:      -0.000     6.007     0.000   |b| =     6.006805
 CELL| Vector c [angstrom]:      -2.367    -0.000     4.880   |c| =     5.423576
 CELL| Angle (b,c), alpha [degree]:                                    90.000000
 CELL| Angle (a,c), beta  [degree]:                                   115.870729
 CELL| Angle (a,b), gamma [degree]:                                    90.000000
 CELL| Numerically orthorhombic:                                              NO
 CELL| Periodicity                                                           XYZ

 Extrapolation method: ASPC

 Number of electrons:                                                         68
 Number of occupied orbitals:                                                 34
 Number of molecular orbitals:                                                56

 Number of orbital functions:                                                 56
 Number of independent orbital functions:                                     56


 SCF WAVEFUNCTION OPTIMIZATION

  Step     Update method      Time    Convergence         Total energy    Change
  ------------------------------------------------------------------------------
     1 TBLite/Diag 0.40E+00    0.0     0.05874561       -48.3045970646 -4.83E+01
     2 TBLite/Diag 0.40E+00    0.0     0.00734952       -48.3050358364 -4.39E-04
     3 TBLite/Diag 0.40E+00    0.0     0.00066398       -48.3050408863 -5.05E-06
     4 TBLite/Diag 0.40E+00    0.0     0.00077495       -48.3050422984 -1.41E-06
     5 TBLite/Diag 0.40E+00    0.0     0.00014005       -48.3050424439 -1.46E-07
     6 TBLite/Diag 0.40E+00    0.0     0.00005427       -48.3050424596 -1.56E-08
     7 TBLite/Diag 0.40E+00    0.0     0.00000013       -48.3050424596 -1.85E-13
     8 TBLite/Diag 0.40E+00    0.0     1.3047E-09       -48.3050424596  0.00E+00
     9 TBLite/Diag 0.40E+00    0.0     3.0642E-10       -48.3050424596  3.55E-14

  *** SCF run converged in     9 steps ***


  Core Hamiltonian energy:                                    -48.93088661894357
  Repulsive potential energy:                                   0.33883068653458
  Electrostatic energy:                                         0.31646618996334
  Self-consistent dispersion energy:                            0.00000000000000
  Non-self consistent dispersion energy:                       -0.02945271713121
  Correction for halogen bonding:                               0.00000000000000
  Electronic entropic energy:                                  -0.00000000000000
  Fermi energy:                                                -0.34962730667798

  Total energy:                                               -48.30504245957685
  Total energy (extrapolated to T->0):                        -48.30504245957685

 ENERGY| Total FORCE_EVAL ( QS ) energy [hartree]            -48.305042459576846

 OPT| **************************************************************************
 OPT| Step number                                                              1
 OPT| Optimization method                                                   BFGS
 OPT| Total energy [hartree]                                      -48.3050424596
 OPT| Internal pressure [bar]                                   28191.6672352186
 OPT| Effective energy change [hartree]                            -0.0134404526
 OPT| Predicted energy change [hartree]                            -0.0135136806
 OPT| Scaling factor                                                0.0000000000
 OPT| Step size                                                     0.0571020361
 OPT| Trust radius                                                  0.4724315332
 OPT| Decrease in energy                                                     YES
 OPT| Used time [s]                                                        0.155
 OPT|
 OPT| Maximum step size                                             0.0571020361
 OPT| Convergence limit for maximum step size                       0.0030000000
 OPT| Maximum step size is converged                                          NO
 OPT|
 OPT| RMS step size                                                 0.0223720068
 OPT| Convergence limit for RMS step size                           0.0015000000
 OPT| RMS step size is converged                                              NO
 OPT|
 OPT| Maximum gradient                                              0.0301712283
 OPT| Convergence limit for maximum gradient                        0.0004500000
 OPT| Maximum gradient is converged                                           NO
 OPT|
 OPT| RMS gradient                                                  0.0116805048
 OPT| Convergence limit for RMS gradient                            0.0003000000
 OPT| RMS gradient is converged                                               NO
 OPT|
 OPT| Pressure deviation [bar]                                  28191.6672352186
 OPT| Pressure tolerance [bar]                                    100.0000000000
 OPT| Pressure is converged                                                   NO
 OPT| **************************************************************************
 OPT| Estimated peak process memory after this step [MiB]                    166

 --------------------------
 OPTIMIZATION STEP:      2
 --------------------------

 CELL| Volume [angstrom^3]:                                           157.675787
 CELL| Vector a [angstrom]:       5.385     0.000     0.000   |a| =     5.384806
 CELL| Vector b [angstrom]:      -0.000     6.002     0.000   |b| =     6.002371
 CELL| Vector c [angstrom]:      -2.367    -0.000     4.878   |c| =     5.422446
 CELL| Angle (b,c), alpha [degree]:                                    90.000000
 CELL| Angle (a,c), beta  [degree]:                                   115.887015
 CELL| Angle (a,b), gamma [degree]:                                    90.000000
 CELL| Numerically orthorhombic:                                              NO
 CELL| Periodicity                                                           XYZ

 Extrapolation method: ASPC

 Number of electrons:                                                         68
 Number of occupied orbitals:                                                 34
 Number of molecular orbitals:                                                56

 Number of orbital functions:                                                 56
 Number of independent orbital functions:                                     56


 SCF WAVEFUNCTION OPTIMIZATION

  Step     Update method      Time    Convergence         Total energy    Change
  ------------------------------------------------------------------------------
     1 TBLite/Diag 0.40E+00    0.0     0.02545864       -48.3100762853 -4.83E+01
     2 TBLite/Diag 0.40E+00    0.0     0.00652563       -48.3102992376 -2.23E-04
     3 TBLite/Diag 0.40E+00    0.0     0.00064810       -48.3103017069 -2.47E-06
     4 TBLite/Diag 0.40E+00    0.0     0.00018324       -48.3103017106 -3.69E-09
     5 TBLite/Diag 0.40E+00    0.0     0.00009354       -48.3103017977 -8.72E-08
     6 TBLite/Diag 0.40E+00    0.0     0.00001913       -48.3103017991 -1.40E-09
     7 TBLite/Diag 0.40E+00    0.0     0.00000011       -48.3103017991 -1.35E-13
     8 TBLite/Diag 0.40E+00    0.0     1.8301E-09       -48.3103017991  2.84E-14
     9 TBLite/Diag 0.40E+00    0.0     8.0442E-11       -48.3103017991 -7.11E-15

  *** SCF run converged in     9 steps ***


  Core Hamiltonian energy:                                    -48.91690506986598
  Repulsive potential energy:                                   0.31635660122424
  Electrostatic energy:                                         0.31960954235258
  Self-consistent dispersion energy:                            0.00000000000000
  Non-self consistent dispersion energy:                       -0.02936287285882
  Correction for halogen bonding:                               0.00000000000000
  Electronic entropic energy:                                  -0.00000000000000
  Fermi energy:                                                -0.35264947897400

  Total energy:                                               -48.31030179914798
  Total energy (extrapolated to T->0):                        -48.31030179914798

 ENERGY| Total FORCE_EVAL ( QS ) energy [hartree]            -48.310301799147979

 OPT| **************************************************************************
 OPT| Step number                                                              2
 OPT| Optimization method                                                   BFGS
 OPT| Total energy [hartree]                                      -48.3103017991
 OPT| Internal pressure [bar]                                     839.7602706487
 OPT| Effective energy change [hartree]                            -0.0052593396
 OPT| Predicted energy change [hartree]                            -0.0037727196
 OPT| Scaling factor                                                0.0000000000
 OPT| Step size                                                     0.0464670869
 OPT| Trust radius                                                  0.4724315332
 OPT| Decrease in energy                                                     YES
 OPT| Used time [s]                                                        0.156
 OPT|
 OPT| Maximum step size                                             0.0464670869
 OPT| Convergence limit for maximum step size                       0.0030000000
 OPT| Maximum step size is converged                                          NO
 OPT|
 OPT| RMS step size                                                 0.0134928056
 OPT| Convergence limit for RMS step size                           0.0015000000
 OPT| RMS step size is converged                                              NO
 OPT|
 OPT| Maximum gradient                                              0.0161171493
 OPT| Convergence limit for maximum gradient                        0.0004500000
 OPT| Maximum gradient is converged                                           NO
 OPT|
 OPT| RMS gradient                                                  0.0070943583
 OPT| Convergence limit for RMS gradient                            0.0003000000
 OPT| RMS gradient is converged                                               NO
 OPT|
 OPT| Pressure deviation [bar]                                    839.7602706487
 OPT| Pressure tolerance [bar]                                    100.0000000000
 OPT| Pressure is converged                                                   NO
 OPT| **************************************************************************
 OPT| Estimated peak process memory after this step [MiB]                    166

 --------------------------
 OPTIMIZATION STEP:      3
 --------------------------

 CELL| Volume [angstrom^3]:                                           158.236250
 CELL| Vector a [angstrom]:       5.421     0.000     0.000   |a| =     5.420792
 CELL| Vector b [angstrom]:      -0.000     5.992     0.000   |b| =     5.991654
 CELL| Vector c [angstrom]:      -2.363    -0.000     4.872   |c| =     5.414552
 CELL| Angle (b,c), alpha [degree]:                                    90.000000
 CELL| Angle (a,c), beta  [degree]:                                   115.871474
 CELL| Angle (a,b), gamma [degree]:                                    90.000000
 CELL| Numerically orthorhombic:                                              NO
 CELL| Periodicity                                                           XYZ

 Extrapolation method: ASPC

 Number of electrons:                                                         68
 Number of occupied orbitals:                                                 34
 Number of molecular orbitals:                                                56

 Number of orbital functions:                                                 56
 Number of independent orbital functions:                                     56


 SCF WAVEFUNCTION OPTIMIZATION

  Step     Update method      Time    Convergence         Total energy    Change
  ------------------------------------------------------------------------------
     1 TBLite/Diag 0.40E+00    0.0     0.03657774       -48.3152679641 -4.83E+01
     2 TBLite/Diag 0.40E+00    0.0     0.00068141       -48.3152713538 -3.39E-06
     3 TBLite/Diag 0.40E+00    0.0     0.00018645       -48.3152713279  2.59E-08
     4 TBLite/Diag 0.40E+00    0.0     0.00013768       -48.3152714320 -1.04E-07
     5 TBLite/Diag 0.40E+00    0.0     0.00002945       -48.3152714402 -8.18E-09
     6 TBLite/Diag 0.40E+00    0.0     0.00000859       -48.3152714405 -2.62E-10
     7 TBLite/Diag 0.40E+00    0.0     3.2212E-09       -48.3152714405  0.00E+00
     8 TBLite/Diag 0.40E+00    0.0     1.3201E-09       -48.3152714405  1.42E-14
     9 TBLite/Diag 0.40E+00    0.0     1.0668E-12       -48.3152714405  0.00E+00

  *** SCF run converged in     9 steps ***


  Core Hamiltonian energy:                                    -48.90914326540135
  Repulsive potential energy:                                   0.30402036807578
  Electrostatic energy:                                         0.31913143775452
  Self-consistent dispersion energy:                            0.00000000000000
  Non-self consistent dispersion energy:                       -0.02927998089194
  Correction for halogen bonding:                               0.00000000000000
  Electronic entropic energy:                                  -0.00000000000000
  Fermi energy:                                                -0.35260783707326

  Total energy:                                               -48.31527144046299
  Total energy (extrapolated to T->0):                        -48.31527144046299

 ENERGY| Total FORCE_EVAL ( QS ) energy [hartree]            -48.315271440462993

 OPT| **************************************************************************
 OPT| Step number                                                              3
 OPT| Optimization method                                                   BFGS
 OPT| Total energy [hartree]                                      -48.3152714405
 OPT| Internal pressure [bar]                                  -18021.5572842196
 OPT| Effective energy change [hartree]                            -0.0049696413
 OPT| Predicted energy change [hartree]                            -0.0034731698
 OPT| Scaling factor                                                0.0000000000
 OPT| Step size                                                     0.0680025924
 OPT| Trust radius                                                  0.4724315332
 OPT| Decrease in energy                                                     YES
 OPT| Used time [s]                                                        0.156
 OPT|
 OPT| Maximum step size                                             0.0680025924
 OPT| Convergence limit for maximum step size                       0.0030000000
 OPT| Maximum step size is converged                                          NO
 OPT|
 OPT| RMS step size                                                 0.0209100108
 OPT| Convergence limit for RMS step size                           0.0015000000
 OPT| RMS step size is converged                                              NO
 OPT|
 OPT| Maximum gradient                                              0.0132741371
 OPT| Convergence limit for maximum gradient                        0.0004500000
 OPT| Maximum gradient is converged                                           NO
 OPT|
 OPT| RMS gradient                                                  0.0056054524
 OPT| Convergence limit for RMS gradient                            0.0003000000
 OPT| RMS gradient is converged                                               NO
 OPT|
 OPT| Pressure deviation [bar]                                 -18021.5572842196
 OPT| Pressure tolerance [bar]                                    100.0000000000
 OPT| Pressure is converged                                                   NO
 OPT| **************************************************************************
 OPT| Estimated peak process memory after this step [MiB]                    166

 --------------------------
 OPTIMIZATION STEP:      4
 --------------------------

 CELL| Volume [angstrom^3]:                                           158.316800
 CELL| Vector a [angstrom]:       5.443     0.000     0.000   |a| =     5.442523
 CELL| Vector b [angstrom]:      -0.000     5.979     0.000   |b| =     5.979014
 CELL| Vector c [angstrom]:      -2.356    -0.000     4.865   |c| =     5.405673
 CELL| Angle (b,c), alpha [degree]:                                    90.000000
 CELL| Angle (a,c), beta  [degree]:                                   115.840605
 CELL| Angle (a,b), gamma [degree]:                                    90.000000
 CELL| Numerically orthorhombic:                                              NO
 CELL| Periodicity                                                           XYZ

 Extrapolation method: ASPC

 Number of electrons:                                                         68
 Number of occupied orbitals:                                                 34
 Number of molecular orbitals:                                                56

 Number of orbital functions:                                                 56
 Number of independent orbital functions:                                     56


 SCF WAVEFUNCTION OPTIMIZATION

  Step     Update method      Time    Convergence         Total energy    Change
  ------------------------------------------------------------------------------
     1 TBLite/Diag 0.40E+00    0.0     0.02627620       -48.3179559928 -4.83E+01
     2 TBLite/Diag 0.40E+00    0.0     0.00150283       -48.3179680955 -1.21E-05
     3 TBLite/Diag 0.40E+00    0.0     0.00029271       -48.3179682777 -1.82E-07
     4 TBLite/Diag 0.40E+00    0.0     0.00014019       -48.3179683677 -9.01E-08
     5 TBLite/Diag 0.40E+00    0.0     0.00004581       -48.3179683841 -1.64E-08
     6 TBLite/Diag 0.40E+00    0.0     0.00001537       -48.3179683852 -1.07E-09
     7 TBLite/Diag 0.40E+00    0.0     7.5083E-09       -48.3179683852  1.42E-14
     8 TBLite/Diag 0.40E+00    0.0     4.3624E-10       -48.3179683852 -7.11E-15

  *** SCF run converged in     8 steps ***


  Core Hamiltonian energy:                                    -48.90629878540528
  Repulsive potential energy:                                   0.30085502762012
  Electrostatic energy:                                         0.31675772617591
  Self-consistent dispersion energy:                            0.00000000000000
  Non-self consistent dispersion energy:                       -0.02928235360465
  Correction for halogen bonding:                               0.00000000000000
  Electronic entropic energy:                                  -0.00000000000000
  Fermi energy:                                                -0.34994602742684

  Total energy:                                               -48.31796838521390
  Total energy (extrapolated to T->0):                        -48.31796838521390

 ENERGY| Total FORCE_EVAL ( QS ) energy [hartree]            -48.317968385213902

 OPT| **************************************************************************
 OPT| Step number                                                              4
 OPT| Optimization method                                                   BFGS
 OPT| Total energy [hartree]                                      -48.3179683852
 OPT| Internal pressure [bar]                                  -25194.8384374051
 OPT| Effective energy change [hartree]                            -0.0026969448
 OPT| Predicted energy change [hartree]                            -0.0019356427
 OPT| Scaling factor                                                0.0000000000
 OPT| Step size                                                     0.0410666391
 OPT| Trust radius                                                  0.4724315332
 OPT| Decrease in energy                                                     YES
 OPT| Used time [s]                                                        0.155
 OPT|
 OPT| Maximum step size                                             0.0410666391
 OPT| Convergence limit for maximum step size                       0.0030000000
 OPT| Maximum step size is converged                                          NO
 OPT|
 OPT| RMS step size                                                 0.0188079889
 OPT| Convergence limit for RMS step size                           0.0015000000
 OPT| RMS step size is converged                                              NO
 OPT|
 OPT| Maximum gradient                                              0.0162085345
 OPT| Convergence limit for maximum gradient                        0.0004500000
 OPT| Maximum gradient is converged                                           NO
 OPT|
 OPT| RMS gradient                                                  0.0044125803
 OPT| Convergence limit for RMS gradient                            0.0003000000
 OPT| RMS gradient is converged                                               NO
 OPT|
 OPT| Pressure deviation [bar]                                 -25194.8384374051
 OPT| Pressure tolerance [bar]                                    100.0000000000
 OPT| Pressure is converged                                                   NO
 OPT| **************************************************************************
 OPT| Estimated peak process memory after this step [MiB]                    166

 --------------------------
 OPTIMIZATION STEP:      5
 --------------------------

 CELL| Volume [angstrom^3]:                                           157.931697
 CELL| Vector a [angstrom]:       5.445     0.000     0.000   |a| =     5.444616
 CELL| Vector b [angstrom]:       0.000     5.968     0.000   |b| =     5.967511
 CELL| Vector c [angstrom]:      -2.350    -0.000     4.861   |c| =     5.399268
 CELL| Angle (b,c), alpha [degree]:                                    90.000000
 CELL| Angle (a,c), beta  [degree]:                                   115.806100
 CELL| Angle (a,b), gamma [degree]:                                    90.000000
 CELL| Numerically orthorhombic:                                              NO
 CELL| Periodicity                                                           XYZ

 Extrapolation method: ASPC

 Number of electrons:                                                         68
 Number of occupied orbitals:                                                 34
 Number of molecular orbitals:                                                56

 Number of orbital functions:                                                 56
 Number of independent orbital functions:                                     56


 SCF WAVEFUNCTION OPTIMIZATION

  Step     Update method      Time    Convergence         Total energy    Change
  ------------------------------------------------------------------------------
     1 TBLite/Diag 0.40E+00    0.0     0.01199050       -48.3194695516 -4.83E+01
     2 TBLite/Diag 0.40E+00    0.0     0.00171161       -48.3194817931 -1.22E-05
     3 TBLite/Diag 0.40E+00    0.0     0.00030995       -48.3194824884 -6.95E-07
     4 TBLite/Diag 0.40E+00    0.0     0.00009168       -48.3194825175 -2.92E-08
     5 TBLite/Diag 0.40E+00    0.0     0.00003078       -48.3194825249 -7.34E-09
     6 TBLite/Diag 0.40E+00    0.0     0.00001360       -48.3194825256 -7.24E-10
     7 TBLite/Diag 0.40E+00    0.0     0.00000002       -48.3194825256 -1.42E-14
     8 TBLite/Diag 0.40E+00    0.0     2.5809E-10       -48.3194825256  7.11E-15

  *** SCF run converged in     8 steps ***


  Core Hamiltonian energy:                                    -48.90571902044335
  Repulsive potential energy:                                   0.30151156290303
  Electrostatic energy:                                         0.31409023809444
  Self-consistent dispersion energy:                            0.00000000000000
  Non-self consistent dispersion energy:                       -0.02936530615212
  Correction for halogen bonding:                               0.00000000000000
  Electronic entropic energy:                                  -0.00000000000000
  Fermi energy:                                                -0.34711650079226

  Total energy:                                               -48.31948252559799
  Total energy (extrapolated to T->0):                        -48.31948252559799

 ENERGY| Total FORCE_EVAL ( QS ) energy [hartree]            -48.319482525597991

 OPT| **************************************************************************
 OPT| Step number                                                              5
 OPT| Optimization method                                                   BFGS
 OPT| Total energy [hartree]                                      -48.3194825256
 OPT| Internal pressure [bar]                                  -26477.3174493710
 OPT| Effective energy change [hartree]                            -0.0015141404
 OPT| Predicted energy change [hartree]                            -0.0009852569
 OPT| Scaling factor                                                0.0000000000
 OPT| Step size                                                     0.0228871958
 OPT| Trust radius                                                  0.4724315332
 OPT| Decrease in energy                                                     YES
 OPT| Used time [s]                                                        0.155
 OPT|
 OPT| Maximum step size                                             0.0228871958
 OPT| Convergence limit for maximum step size                       0.0030000000
 OPT| Maximum step size is converged                                          NO
 OPT|
 OPT| RMS step size                                                 0.0134286235
 OPT| Convergence limit for RMS step size                           0.0015000000
 OPT| RMS step size is converged                                              NO
 OPT|
 OPT| Maximum gradient                                              0.0192301814
 OPT| Convergence limit for maximum gradient                        0.0004500000
 OPT| Maximum gradient is converged                                           NO
 OPT|
 OPT| RMS gradient                                                  0.0037122436
 OPT| Convergence limit for RMS gradient                            0.0003000000
 OPT| RMS gradient is converged                                               NO
 OPT|
 OPT| Pressure deviation [bar]                                 -26477.3174493710
 OPT| Pressure tolerance [bar]                                    100.0000000000
 OPT| Pressure is converged                                                   NO
 OPT| **************************************************************************
 OPT| Estimated peak process memory after this step [MiB]                    166

 --------------------------
 OPTIMIZATION STEP:      6
 --------------------------

 CELL| Volume [angstrom^3]:                                           156.941047
 CELL| Vector a [angstrom]:       5.432     0.000     0.000   |a| =     5.431829
 CELL| Vector b [angstrom]:      -0.000     5.951     0.000   |b| =     5.950699
 CELL| Vector c [angstrom]:      -2.343    -0.000     4.855   |c| =     5.391229
 CELL| Angle (b,c), alpha [degree]:                                    90.000000
 CELL| Angle (a,c), beta  [degree]:                                   115.762206
 CELL| Angle (a,b), gamma [degree]:                                    90.000000
 CELL| Numerically orthorhombic:                                              NO
 CELL| Periodicity                                                           XYZ

 Extrapolation method: ASPC

 Number of electrons:                                                         68
 Number of occupied orbitals:                                                 34
 Number of molecular orbitals:                                                56

 Number of orbital functions:                                                 56
 Number of independent orbital functions:                                     56


 SCF WAVEFUNCTION OPTIMIZATION

  Step     Update method      Time    Convergence         Total energy    Change
  ------------------------------------------------------------------------------
     1 TBLite/Diag 0.40E+00    0.0     0.01663134       -48.3209871409 -4.83E+01
     2 TBLite/Diag 0.40E+00    0.0     0.00195602       -48.3210051940 -1.81E-05
     3 TBLite/Diag 0.40E+00    0.0     0.00035683       -48.3210066202 -1.43E-06
     4 TBLite/Diag 0.40E+00    0.0     0.00012605       -48.3210066659 -4.57E-08
     5 TBLite/Diag 0.40E+00    0.0     0.00001976       -48.3210066689 -2.99E-09
     6 TBLite/Diag 0.40E+00    0.0     0.00001347       -48.3210066695 -6.61E-10
     7 TBLite/Diag 0.40E+00    0.0     0.00000002       -48.3210066695  7.11E-15
     8 TBLite/Diag 0.40E+00    0.0     1.8026E-10       -48.3210066695 -2.13E-14

  *** SCF run converged in     8 steps ***


  Core Hamiltonian energy:                                    -48.90517507059027
  Repulsive potential energy:                                   0.30294848223200
  Electrostatic energy:                                         0.31078302668401
  Self-consistent dispersion energy:                            0.00000000000000
  Non-self consistent dispersion energy:                       -0.02956310787022
  Correction for halogen bonding:                               0.00000000000000
  Electronic entropic energy:                                  -0.00000000000000
  Fermi energy:                                                -0.34371946873656

  Total energy:                                               -48.32100666954448
  Total energy (extrapolated to T->0):                        -48.32100666954448

 ENERGY| Total FORCE_EVAL ( QS ) energy [hartree]            -48.321006669544481

 OPT| **************************************************************************
 OPT| Step number                                                              6
 OPT| Optimization method                                                   BFGS
 OPT| Total energy [hartree]                                      -48.3210066695
 OPT| Internal pressure [bar]                                  -25832.8073525133
 OPT| Effective energy change [hartree]                            -0.0015241439
 OPT| Predicted energy change [hartree]                            -0.0010305754
 OPT| Scaling factor                                                0.0000000000
 OPT| Step size                                                     0.0317706598
 OPT| Trust radius                                                  0.4724315332
 OPT| Decrease in energy                                                     YES
 OPT| Used time [s]                                                        0.156
 OPT|
 OPT| Maximum step size                                             0.0317706598
 OPT| Convergence limit for maximum step size                       0.0030000000
 OPT| Maximum step size is converged                                          NO
 OPT|
 OPT| RMS step size                                                 0.0165451371
 OPT| Convergence limit for RMS step size                           0.0015000000
 OPT| RMS step size is converged                                              NO
 OPT|
 OPT| Maximum gradient                                              0.0184894774
 OPT| Convergence limit for maximum gradient                        0.0004500000
 OPT| Maximum gradient is converged                                           NO
 OPT|
 OPT| RMS gradient                                                  0.0038428432
 OPT| Convergence limit for RMS gradient                            0.0003000000
 OPT| RMS gradient is converged                                               NO
 OPT|
 OPT| Pressure deviation [bar]                                 -25832.8073525133
 OPT| Pressure tolerance [bar]                                    100.0000000000
 OPT| Pressure is converged                                                   NO
 OPT| **************************************************************************
 OPT| Estimated peak process memory after this step [MiB]                    167

 --------------------------
 OPTIMIZATION STEP:      7
 --------------------------

 CELL| Volume [angstrom^3]:                                           155.292686
 CELL| Vector a [angstrom]:       5.404     0.000     0.000   |a| =     5.403953
 CELL| Vector b [angstrom]:      -0.000     5.928     0.000   |b| =     5.928085
 CELL| Vector c [angstrom]:      -2.335    -0.000     4.848   |c| =     5.380646
 CELL| Angle (b,c), alpha [degree]:                                    90.000000
 CELL| Angle (a,c), beta  [degree]:                                   115.719560
 CELL| Angle (a,b), gamma [degree]:                                    90.000000
 CELL| Numerically orthorhombic:                                              NO
 CELL| Periodicity                                                           XYZ

 Extrapolation method: ASPC

 Number of electrons:                                                         68
 Number of occupied orbitals:                                                 34
 Number of molecular orbitals:                                                56

 Number of orbital functions:                                                 56
 Number of independent orbital functions:                                     56


 SCF WAVEFUNCTION OPTIMIZATION

  Step     Update method      Time    Convergence         Total energy    Change
  ------------------------------------------------------------------------------
     1 TBLite/Diag 0.40E+00    0.0     0.02389981       -48.3225572889 -4.83E+01
     2 TBLite/Diag 0.40E+00    0.0     0.00182532       -48.3225752948 -1.80E-05
     3 TBLite/Diag 0.40E+00    0.0     0.00035728       -48.3225767927 -1.50E-06
     4 TBLite/Diag 0.40E+00    0.0     0.00013095       -48.3225768562 -6.35E-08
     5 TBLite/Diag 0.40E+00    0.0     0.00001128       -48.3225768574 -1.26E-09
     6 TBLite/Diag 0.40E+00    0.0     0.00000677       -48.3225768576 -1.67E-10
     7 TBLite/Diag 0.40E+00    0.0     0.00000002       -48.3225768576  0.00E+00
     8 TBLite/Diag 0.40E+00    0.0     2.0339E-10       -48.3225768576  7.11E-15

  *** SCF run converged in     8 steps ***


  Core Hamiltonian energy:                                    -48.90365964697995
  Repulsive potential energy:                                   0.30324366608268
  Electrostatic energy:                                         0.30772528530186
  Self-consistent dispersion energy:                            0.00000000000000
  Non-self consistent dispersion energy:                       -0.02988616201356
  Correction for halogen bonding:                               0.00000000000000
  Electronic entropic energy:                                  -0.00000000000000
  Fermi energy:                                                -0.34073103655025

  Total energy:                                               -48.32257685760897
  Total energy (extrapolated to T->0):                        -48.32257685760897

 ENERGY| Total FORCE_EVAL ( QS ) energy [hartree]            -48.322576857608972

 OPT| **************************************************************************
 OPT| Step number                                                              7
 OPT| Optimization method                                                   BFGS
 OPT| Total energy [hartree]                                      -48.3225768576
 OPT| Internal pressure [bar]                                  -24249.4732486944
 OPT| Effective energy change [hartree]                            -0.0015701881
 OPT| Predicted energy change [hartree]                            -0.0010285049
 OPT| Scaling factor                                                0.0000000000
 OPT| Step size                                                     0.0526778240
 OPT| Trust radius                                                  0.4724315332
 OPT| Decrease in energy                                                     YES
 OPT| Used time [s]                                                        0.157
 OPT|
 OPT| Maximum step size                                             0.0526778240
 OPT| Convergence limit for maximum step size                       0.0030000000
 OPT| Maximum step size is converged                                          NO
 OPT|
 OPT| RMS step size                                                 0.0196913394
 OPT| Convergence limit for RMS step size                           0.0015000000
 OPT| RMS step size is converged                                              NO
 OPT|
 OPT| Maximum gradient                                              0.0155003660
 OPT| Convergence limit for maximum gradient                        0.0004500000
 OPT| Maximum gradient is converged                                           NO
 OPT|
 OPT| RMS gradient                                                  0.0045250039
 OPT| Convergence limit for RMS gradient                            0.0003000000
 OPT| RMS gradient is converged                                               NO
 OPT|
 OPT| Pressure deviation [bar]                                 -24249.4732486944
 OPT| Pressure tolerance [bar]                                    100.0000000000
 OPT| Pressure is converged                                                   NO
 OPT| **************************************************************************
 OPT| Estimated peak process memory after this step [MiB]                    167

 --------------------------
 OPTIMIZATION STEP:      8
 --------------------------

 CELL| Volume [angstrom^3]:                                           152.415059
 CELL| Vector a [angstrom]:       5.351     0.000     0.000   |a| =     5.351381
 CELL| Vector b [angstrom]:      -0.000     5.892     0.000   |b| =     5.892311
 CELL| Vector c [angstrom]:      -2.324    -0.000     4.834   |c| =     5.363180
 CELL| Angle (b,c), alpha [degree]:                                    90.000000
 CELL| Angle (a,c), beta  [degree]:                                   115.674730
 CELL| Angle (a,b), gamma [degree]:                                    90.000000
 CELL| Numerically orthorhombic:                                              NO
 CELL| Periodicity                                                           XYZ

 Extrapolation method: ASPC

 Number of electrons:                                                         68
 Number of occupied orbitals:                                                 34
 Number of molecular orbitals:                                                56

 Number of orbital functions:                                                 56
 Number of independent orbital functions:                                     56


 SCF WAVEFUNCTION OPTIMIZATION

  Step     Update method      Time    Convergence         Total energy    Change
  ------------------------------------------------------------------------------
     1 TBLite/Diag 0.40E+00    0.0     0.03965737       -48.3246923236 -4.83E+01
     2 TBLite/Diag 0.40E+00    0.0     0.00202793       -48.3247136899 -2.14E-05
     3 TBLite/Diag 0.40E+00    0.0     0.00038274       -48.3247152634 -1.57E-06
     4 TBLite/Diag 0.40E+00    0.0     0.00016379       -48.3247153704 -1.07E-07
     5 TBLite/Diag 0.40E+00    0.0     0.00001662       -48.3247153724 -1.94E-09
     6 TBLite/Diag 0.40E+00    0.0     0.00000506       -48.3247153725 -1.12E-10
     7 TBLite/Diag 0.40E+00    0.0     0.00000002       -48.3247153725 -3.55E-14
     8 TBLite/Diag 0.40E+00    0.0     7.0912E-11       -48.3247153725  2.84E-14

  *** SCF run converged in     8 steps ***


  Core Hamiltonian energy:                                    -48.90091646984766
  Repulsive potential energy:                                   0.30181685582470
  Electrostatic energy:                                         0.30483106067466
  Self-consistent dispersion energy:                            0.00000000000000
  Non-self consistent dispersion energy:                       -0.03044681913631
  Correction for halogen bonding:                               0.00000000000000
  Electronic entropic energy:                                  -0.00000000000000
  Fermi energy:                                                -0.33826865566731

  Total energy:                                               -48.32471537248461
  Total energy (extrapolated to T->0):                        -48.32471537248461

 ENERGY| Total FORCE_EVAL ( QS ) energy [hartree]            -48.324715372484611

 OPT| **************************************************************************
 OPT| Step number                                                              8
 OPT| Optimization method                                                   BFGS
 OPT| Total energy [hartree]                                      -48.3247153725
 OPT| Internal pressure [bar]                                  -21173.6583819807
 OPT| Effective energy change [hartree]                            -0.0021385149
 OPT| Predicted energy change [hartree]                            -0.0014364864
 OPT| Scaling factor                                                0.0000000000
 OPT| Step size                                                     0.0993480552
 OPT| Trust radius                                                  0.4724315332
 OPT| Decrease in energy                                                     YES
 OPT| Used time [s]                                                        0.160
 OPT|
 OPT| Maximum step size                                             0.0993480552
 OPT| Convergence limit for maximum step size                       0.0030000000
 OPT| Maximum step size is converged                                          NO
 OPT|
 OPT| RMS step size                                                 0.0287693328
 OPT| Convergence limit for RMS step size                           0.0015000000
 OPT| RMS step size is converged                                              NO
 OPT|
 OPT| Maximum gradient                                              0.0125618190
 OPT| Convergence limit for maximum gradient                        0.0004500000
 OPT| Maximum gradient is converged                                           NO
 OPT|
 OPT| RMS gradient                                                  0.0051424515
 OPT| Convergence limit for RMS gradient                            0.0003000000
 OPT| RMS gradient is converged                                               NO
 OPT|
 OPT| Pressure deviation [bar]                                 -21173.6583819807
 OPT| Pressure tolerance [bar]                                    100.0000000000
 OPT| Pressure is converged                                                   NO
 OPT| **************************************************************************
 OPT| Estimated peak process memory after this step [MiB]                    167

 --------------------------
 OPTIMIZATION STEP:      9
 --------------------------

 CELL| Volume [angstrom^3]:                                           148.626646
 CELL| Vector a [angstrom]:       5.279     0.000     0.000   |a| =     5.278504
 CELL| Vector b [angstrom]:      -0.000     5.849     0.000   |b| =     5.848641
 CELL| Vector c [angstrom]:      -2.311    -0.000     4.814   |c| =     5.340356
 CELL| Angle (b,c), alpha [degree]:                                    90.000000
 CELL| Angle (a,c), beta  [degree]:                                   115.645450
 CELL| Angle (a,b), gamma [degree]:                                    90.000000
 CELL| Numerically orthorhombic:                                              NO
 CELL| Periodicity                                                           XYZ

 Extrapolation method: ASPC

 Number of electrons:                                                         68
 Number of occupied orbitals:                                                 34
 Number of molecular orbitals:                                                56

 Number of orbital functions:                                                 56
 Number of independent orbital functions:                                     56


 SCF WAVEFUNCTION OPTIMIZATION

  Step     Update method      Time    Convergence         Total energy    Change
  ------------------------------------------------------------------------------
     1 TBLite/Diag 0.40E+00    0.0     0.04766382       -48.3272788944 -4.83E+01
     2 TBLite/Diag 0.40E+00    0.0     0.00122060       -48.3272922250 -1.33E-05
     3 TBLite/Diag 0.40E+00    0.0     0.00026216       -48.3272927734 -5.48E-07
     4 TBLite/Diag 0.40E+00    0.0     0.00015199       -48.3272928396 -6.62E-08
     5 TBLite/Diag 0.40E+00    0.0     0.00002765       -48.3272928431 -3.50E-09
     6 TBLite/Diag 0.40E+00    0.0     0.00001031       -48.3272928442 -1.14E-09
     7 TBLite/Diag 0.40E+00    0.0     7.6344E-09       -48.3272928442 -7.11E-15
     8 TBLite/Diag 0.40E+00    0.0     8.7950E-10       -48.3272928442  2.84E-14

  *** SCF run converged in     8 steps ***


  Core Hamiltonian energy:                                    -48.89922076001304
  Repulsive potential energy:                                   0.29951016668435
  Electrostatic energy:                                         0.30359482181046
  Self-consistent dispersion energy:                            0.00000000000000
  Non-self consistent dispersion energy:                       -0.03117707270124
  Correction for halogen bonding:                               0.00000000000000
  Electronic entropic energy:                                  -0.00000000000000
  Fermi energy:                                                -0.33787550605229

  Total energy:                                               -48.32729284421947
  Total energy (extrapolated to T->0):                        -48.32729284421947

 ENERGY| Total FORCE_EVAL ( QS ) energy [hartree]            -48.327292844219471

 OPT| **************************************************************************
 OPT| Step number                                                              9
 OPT| Optimization method                                                   BFGS
 OPT| Total energy [hartree]                                      -48.3272928442
 OPT| Internal pressure [bar]                                  -15298.0447925575
 OPT| Effective energy change [hartree]                            -0.0025774717
 OPT| Predicted energy change [hartree]                            -0.0017013170
 OPT| Scaling factor                                                0.0000000000
 OPT| Step size                                                     0.1377169346
 OPT| Trust radius                                                  0.4724315332
 OPT| Decrease in energy                                                     YES
 OPT| Used time [s]                                                        0.161
 OPT|
 OPT| Maximum step size                                             0.1377169346
 OPT| Convergence limit for maximum step size                       0.0030000000
 OPT| Maximum step size is converged                                          NO
 OPT|
 OPT| RMS step size                                                 0.0332761574
 OPT| Convergence limit for RMS step size                           0.0015000000
 OPT| RMS step size is converged                                              NO
 OPT|
 OPT| Maximum gradient                                              0.0139808262
 OPT| Convergence limit for maximum gradient                        0.0004500000
 OPT| Maximum gradient is converged                                           NO
 OPT|
 OPT| RMS gradient                                                  0.0050513908
 OPT| Convergence limit for RMS gradient                            0.0003000000
 OPT| RMS gradient is converged                                               NO
 OPT|
 OPT| Pressure deviation [bar]                                 -15298.0447925575
 OPT| Pressure tolerance [bar]                                    100.0000000000
 OPT| Pressure is converged                                                   NO
 OPT| **************************************************************************
 OPT| Estimated peak process memory after this step [MiB]                    167

 --------------------------
 OPTIMIZATION STEP:     10
 --------------------------

 CELL| Volume [angstrom^3]:                                           144.525105
 CELL| Vector a [angstrom]:       5.197     0.000     0.000   |a| =     5.197478
 CELL| Vector b [angstrom]:      -0.000     5.804     0.000   |b| =     5.803773
 CELL| Vector c [angstrom]:      -2.300    -0.000     4.791   |c| =     5.314480
 CELL| Angle (b,c), alpha [degree]:                                    90.000000
 CELL| Angle (a,c), beta  [degree]:                                   115.640298
 CELL| Angle (a,b), gamma [degree]:                                    90.000000
 CELL| Numerically orthorhombic:                                              NO
 CELL| Periodicity                                                           XYZ

 Extrapolation method: ASPC

 Number of electrons:                                                         68
 Number of occupied orbitals:                                                 34
 Number of molecular orbitals:                                                56

 Number of orbital functions:                                                 56
 Number of independent orbital functions:                                     56


 SCF WAVEFUNCTION OPTIMIZATION

  Step     Update method      Time    Convergence         Total energy    Change
  ------------------------------------------------------------------------------
     1 TBLite/Diag 0.40E+00    0.0     0.04686825       -48.3296808110 -4.83E+01
     2 TBLite/Diag 0.40E+00    0.0     0.00245844       -48.3297325073 -5.17E-05
     3 TBLite/Diag 0.40E+00    0.0     0.00061231       -48.3297356467 -3.14E-06
     4 TBLite/Diag 0.40E+00    0.0     0.00025399       -48.3297359259 -2.79E-07
     5 TBLite/Diag 0.40E+00    0.0     0.00003359       -48.3297359416 -1.57E-08
     6 TBLite/Diag 0.40E+00    0.0     0.00002180       -48.3297359438 -2.16E-09
     7 TBLite/Diag 0.40E+00    0.0     0.00000005       -48.3297359438 -7.11E-15
     8 TBLite/Diag 0.40E+00    0.0     1.4085E-09       -48.3297359438  1.42E-14
     9 TBLite/Diag 0.40E+00    0.0     4.4263E-11       -48.3297359438 -1.42E-14

  *** SCF run converged in     9 steps ***


  Core Hamiltonian energy:                                    -48.90073101366063
  Repulsive potential energy:                                   0.29798002883981
  Electrostatic energy:                                         0.30494931323625
  Self-consistent dispersion energy:                            0.00000000000000
  Non-self consistent dispersion energy:                       -0.03193427217700
  Correction for halogen bonding:                               0.00000000000000
  Electronic entropic energy:                                  -0.00000000000000
  Fermi energy:                                                -0.34012559102851

  Total energy:                                               -48.32973594376158
  Total energy (extrapolated to T->0):                        -48.32973594376158

 ENERGY| Total FORCE_EVAL ( QS ) energy [hartree]            -48.329735943761577

 OPT| **************************************************************************
 OPT| Step number                                                             10
 OPT| Optimization method                                                   BFGS
 OPT| Total energy [hartree]                                      -48.3297359438
 OPT| Internal pressure [bar]                                   -4503.2052830316
 OPT| Effective energy change [hartree]                            -0.0024430995
 OPT| Predicted energy change [hartree]                            -0.0018505741
 OPT| Scaling factor                                                0.0000000000
 OPT| Step size                                                     0.1531169515
 OPT| Trust radius                                                  0.4724315332
 OPT| Decrease in energy                                                     YES
 OPT| Used time [s]                                                        0.166
 OPT|
 OPT| Maximum step size                                             0.1531169515
 OPT| Convergence limit for maximum step size                       0.0030000000
 OPT| Maximum step size is converged                                          NO
 OPT|
 OPT| RMS step size                                                 0.0336855592
 OPT| Convergence limit for RMS step size                           0.0015000000
 OPT| RMS step size is converged                                              NO
 OPT|
 OPT| Maximum gradient                                              0.0089176223
 OPT| Convergence limit for maximum gradient                        0.0004500000
 OPT| Maximum gradient is converged                                           NO
 OPT|
 OPT| RMS gradient                                                  0.0038506471
 OPT| Convergence limit for RMS gradient                            0.0003000000
 OPT| RMS gradient is converged                                               NO
 OPT|
 OPT| Pressure deviation [bar]                                  -4503.2052830316
 OPT| Pressure tolerance [bar]                                    100.0000000000
 OPT| Pressure is converged                                                   NO
 OPT| **************************************************************************
 OPT| Estimated peak process memory after this step [MiB]                    167

 --------------------------
 OPTIMIZATION STEP:     11
 --------------------------

 CELL| Volume [angstrom^3]:                                           143.032215
 CELL| Vector a [angstrom]:       5.169     0.000     0.000   |a| =     5.169121
 CELL| Vector b [angstrom]:      -0.000     5.788     0.000   |b| =     5.788092
 CELL| Vector c [angstrom]:      -2.295    -0.000     4.781   |c| =     5.303131
 CELL| Angle (b,c), alpha [degree]:                                    90.000000
 CELL| Angle (a,c), beta  [degree]:                                   115.648555
 CELL| Angle (a,b), gamma [degree]:                                    90.000000
 CELL| Numerically orthorhombic:                                              NO
 CELL| Periodicity                                                           XYZ

 Extrapolation method: ASPC

 Number of electrons:                                                         68
 Number of occupied orbitals:                                                 34
 Number of molecular orbitals:                                                56

 Number of orbital functions:                                                 56
 Number of independent orbital functions:                                     56


 SCF WAVEFUNCTION OPTIMIZATION

  Step     Update method      Time    Convergence         Total energy    Change
  ------------------------------------------------------------------------------
     1 TBLite/Diag 0.40E+00    0.0     0.01540951       -48.3307227826 -4.83E+01
     2 TBLite/Diag 0.40E+00    0.0     0.00258503       -48.3307626027 -3.98E-05
     3 TBLite/Diag 0.40E+00    0.0     0.00054511       -48.3307654229 -2.82E-06
     4 TBLite/Diag 0.40E+00    0.0     0.00009639       -48.3307654433 -2.04E-08
     5 TBLite/Diag 0.40E+00    0.0     0.00001556       -48.3307654455 -2.22E-09
     6 TBLite/Diag 0.40E+00    0.0     0.00000634       -48.3307654457 -1.78E-10
     7 TBLite/Diag 0.40E+00    0.0     0.00000003       -48.3307654457 -2.13E-14
     8 TBLite/Diag 0.40E+00    0.0     9.7514E-10       -48.3307654457  1.42E-14

  *** SCF run converged in     8 steps ***


  Core Hamiltonian energy:                                    -48.90381367260212
  Repulsive potential energy:                                   0.29767997897550
  Electrostatic energy:                                         0.30757561147387
  Self-consistent dispersion energy:                            0.00000000000000
  Non-self consistent dispersion energy:                       -0.03220736351959
  Correction for halogen bonding:                               0.00000000000000
  Electronic entropic energy:                                  -0.00000000000000
  Fermi energy:                                                -0.34287654925262

  Total energy:                                               -48.33076544567234
  Total energy (extrapolated to T->0):                        -48.33076544567234

 ENERGY| Total FORCE_EVAL ( QS ) energy [hartree]            -48.330765445672341

 OPT| **************************************************************************
 OPT| Step number                                                             11
 OPT| Optimization method                                                   BFGS
 OPT| Total energy [hartree]                                      -48.3307654457
 OPT| Internal pressure [bar]                                    2633.6534708958
 OPT| Effective energy change [hartree]                            -0.0010295019
 OPT| Predicted energy change [hartree]                            -0.0008712546
 OPT| Scaling factor                                                0.0000000000
 OPT| Step size                                                     0.0535870445
 OPT| Trust radius                                                  0.4724315332
 OPT| Decrease in energy                                                     YES
 OPT| Used time [s]                                                        0.165
 OPT|
 OPT| Maximum step size                                             0.0535870445
 OPT| Convergence limit for maximum step size                       0.0030000000
 OPT| Maximum step size is converged                                          NO
 OPT|
 OPT| RMS step size                                                 0.0140637781
 OPT| Convergence limit for RMS step size                           0.0015000000
 OPT| RMS step size is converged                                              NO
 OPT|
 OPT| Maximum gradient                                              0.0080403674
 OPT| Convergence limit for maximum gradient                        0.0004500000
 OPT| Maximum gradient is converged                                           NO
 OPT|
 OPT| RMS gradient                                                  0.0028010977
 OPT| Convergence limit for RMS gradient                            0.0003000000
 OPT| RMS gradient is converged                                               NO
 OPT|
 OPT| Pressure deviation [bar]                                   2633.6534708958
 OPT| Pressure tolerance [bar]                                    100.0000000000
 OPT| Pressure is converged                                                   NO
 OPT| **************************************************************************
 OPT| Estimated peak process memory after this step [MiB]                    167

 --------------------------
 OPTIMIZATION STEP:     12
 --------------------------

 CELL| Volume [angstrom^3]:                                           142.835593
 CELL| Vector a [angstrom]:       5.172     0.000     0.000   |a| =     5.172316
 CELL| Vector b [angstrom]:      -0.000     5.782     0.000   |b| =     5.782215
 CELL| Vector c [angstrom]:      -2.293     0.000     4.776   |c| =     5.297720
 CELL| Angle (b,c), alpha [degree]:                                    90.000000
 CELL| Angle (a,c), beta  [degree]:                                   115.643391
 CELL| Angle (a,b), gamma [degree]:                                    90.000000
 CELL| Numerically orthorhombic:                                              NO
 CELL| Periodicity                                                           XYZ

 Extrapolation method: ASPC

 Number of electrons:                                                         68
 Number of occupied orbitals:                                                 34
 Number of molecular orbitals:                                                56

 Number of orbital functions:                                                 56
 Number of independent orbital functions:                                     56


 SCF WAVEFUNCTION OPTIMIZATION

  Step     Update method      Time    Convergence         Total energy    Change
  ------------------------------------------------------------------------------
     1 TBLite/Diag 0.40E+00    0.0     0.01074204       -48.3313449414 -4.83E+01
     2 TBLite/Diag 0.40E+00    0.0     0.00070992       -48.3313487741 -3.83E-06
     3 TBLite/Diag 0.40E+00    0.0     0.00016267       -48.3313489867 -2.13E-07
     4 TBLite/Diag 0.40E+00    0.0     0.00001637       -48.3313489893 -2.53E-09
     5 TBLite/Diag 0.40E+00    0.0     0.00000256       -48.3313489893 -5.19E-11
     6 TBLite/Diag 0.40E+00    0.0     0.00000018       -48.3313489893 -1.35E-13
     7 TBLite/Diag 0.40E+00    0.0     4.1708E-09       -48.3313489893  7.11E-15
     8 TBLite/Diag 0.40E+00    0.0     1.9164E-10       -48.3313489893 -2.84E-14

  *** SCF run converged in     8 steps ***


  Core Hamiltonian energy:                                    -48.90427391469508
  Repulsive potential energy:                                   0.29662294678288
  Electrostatic energy:                                         0.30853487051940
  Self-consistent dispersion energy:                            0.00000000000000
  Non-self consistent dispersion energy:                       -0.03223289194229
  Correction for halogen bonding:                               0.00000000000000
  Electronic entropic energy:                                  -0.00000000000000
  Fermi energy:                                                -0.34385177312124

  Total energy:                                               -48.33134898933510
  Total energy (extrapolated to T->0):                        -48.33134898933510

 ENERGY| Total FORCE_EVAL ( QS ) energy [hartree]            -48.331348989335098

 OPT| **************************************************************************
 OPT| Step number                                                             12
 OPT| Optimization method                                                   BFGS
 OPT| Total energy [hartree]                                      -48.3313489893
 OPT| Internal pressure [bar]                                    2827.2302353349
 OPT| Effective energy change [hartree]                            -0.0005835437
 OPT| Predicted energy change [hartree]                            -0.0003922662
 OPT| Scaling factor                                                0.0000000000
 OPT| Step size                                                     0.0149772810
 OPT| Trust radius                                                  0.4724315332
 OPT| Decrease in energy                                                     YES
 OPT| Used time [s]                                                        0.174
 OPT|
 OPT| Maximum step size                                             0.0149772810
 OPT| Convergence limit for maximum step size                       0.0030000000
 OPT| Maximum step size is converged                                          NO
 OPT|
 OPT| RMS step size                                                 0.0063780602
 OPT| Convergence limit for RMS step size                           0.0015000000
 OPT| RMS step size is converged                                              NO
 OPT|
 OPT| Maximum gradient                                              0.0056878782
 OPT| Convergence limit for maximum gradient                        0.0004500000
 OPT| Maximum gradient is converged                                           NO
 OPT|
 OPT| RMS gradient                                                  0.0025524083
 OPT| Convergence limit for RMS gradient                            0.0003000000
 OPT| RMS gradient is converged                                               NO
 OPT|
 OPT| Pressure deviation [bar]                                   2827.2302353349
 OPT| Pressure tolerance [bar]                                    100.0000000000
 OPT| Pressure is converged                                                   NO
 OPT| **************************************************************************
 OPT| Estimated peak process memory after this step [MiB]                    167

 --------------------------
 OPTIMIZATION STEP:     13
 --------------------------

 CELL| Volume [angstrom^3]:                                           142.358791
 CELL| Vector a [angstrom]:       5.179     0.000     0.000   |a| =     5.179210
[...]
 CELL| Angle (a,b), gamma [degree]:                                    90.000000
 CELL| Numerically orthorhombic:                                              NO
 CELL| Periodicity                                                           XYZ

 Extrapolation method: ASPC

 Number of electrons:                                                         68
 Number of occupied orbitals:                                                 34
 Number of molecular orbitals:                                                56

 Number of orbital functions:                                                 56
 Number of independent orbital functions:                                     56


 SCF WAVEFUNCTION OPTIMIZATION

  Step     Update method      Time    Convergence         Total energy    Change
  ------------------------------------------------------------------------------
     1 TBLite/Diag 0.40E+00    0.0     0.00066241       -48.3410373388 -4.83E+01
     2 TBLite/Diag 0.40E+00    0.0     0.00003075       -48.3410373442 -5.42E-09
     3 TBLite/Diag 0.40E+00    0.0     0.00000449       -48.3410373444 -1.67E-10
     4 TBLite/Diag 0.40E+00    0.0     0.00000159       -48.3410373444 -9.04E-12
     5 TBLite/Diag 0.40E+00    0.0     0.00000056       -48.3410373444 -1.71E-12
     6 TBLite/Diag 0.40E+00    0.0     0.00000017       -48.3410373444 -2.34E-13
     7 TBLite/Diag 0.40E+00    0.0     8.3824E-12       -48.3410373444  2.13E-14

  *** SCF run converged in     7 steps ***


  Core Hamiltonian energy:                                    -48.90212016487270
  Repulsive potential energy:                                   0.28936622577983
  Electrostatic energy:                                         0.30209537931514
  Self-consistent dispersion energy:                            0.00000000000000
  Non-self consistent dispersion energy:                       -0.03037878464819
  Correction for halogen bonding:                               0.00000000000000
  Electronic entropic energy:                                  -0.00000000000000
  Fermi energy:                                                -0.34169810019238

  Total energy:                                               -48.34103734442592
  Total energy (extrapolated to T->0):                        -48.34103734442592

 ENERGY| Total FORCE_EVAL ( QS ) energy [hartree]            -48.341037344425921

 OPT| **************************************************************************
 OPT| Step number                                                             48
 OPT| Optimization method                                                   BFGS
 OPT| Total energy [hartree]                                      -48.3410373444
 OPT| Internal pressure [bar]                                      92.7379421727
 OPT| Effective energy change [hartree]                            -0.0000009430
 OPT| Predicted energy change [hartree]                            -0.0000006979
 OPT| Scaling factor                                                0.0000000000
 OPT| Step size                                                     0.0022361093
 OPT| Trust radius                                                  0.4724315332
 OPT| Decrease in energy                                                     YES
 OPT| Used time [s]                                                        0.082
 OPT|
 OPT| Maximum step size                                             0.0022361093
 OPT| Convergence limit for maximum step size                       0.0030000000
 OPT| Maximum step size is converged                                         YES
 OPT|
 OPT| RMS step size                                                 0.0005412914
 OPT| Convergence limit for RMS step size                           0.0015000000
 OPT| RMS step size is converged                                             YES
 OPT|
 OPT| Maximum gradient                                              0.0002630184
 OPT| Convergence limit for maximum gradient                        0.0004500000
 OPT| Maximum gradient is converged                                          YES
 OPT|
 OPT| RMS gradient                                                  0.0000948535
 OPT| Convergence limit for RMS gradient                            0.0003000000
 OPT| RMS gradient is converged                                              YES
 OPT|
 OPT| Pressure deviation [bar]                                     92.7379421727
 OPT| Pressure tolerance [bar]                                    100.0000000000
 OPT| Pressure is converged                                                  YES
 OPT| **************************************************************************
 OPT| Estimated peak process memory after this step [MiB]                    167

 *******************************************************************************
 ***                    GEOMETRY OPTIMIZATION COMPLETED                      ***
 *******************************************************************************

 write_final_structure: Optimization converged, writing XYZ file gladly:
  oxalic_acid_beta_GFN1_gamma_cell_opt-FINAL-1_48.xyz

 write_final_structure: Optimization converged, writing CIF file gladly:
  oxalic_acid_beta_GFN1_gamma_cell_opt-FINAL-1_48.cif

 write_final_structure: Done!

                    Reevaluating energy at the minimum

 CELL| Volume [angstrom^3]:                                           146.150654
 CELL| Vector a [angstrom]:       5.187     0.000     0.000   |a| =     5.187148
 CELL| Vector b [angstrom]:      -0.000     5.694     0.000   |b| =     5.694347
 CELL| Vector c [angstrom]:      -2.597    -0.000     4.948   |c| =     5.587938
 CELL| Angle (b,c), alpha [degree]:                                    90.000000
 CELL| Angle (a,c), beta  [degree]:                                   117.689905
 CELL| Angle (a,b), gamma [degree]:                                    90.000000
 CELL| Numerically orthorhombic:                                              NO
 CELL| Periodicity                                                           XYZ

 Extrapolation method: ASPC

 Number of electrons:                                                         68
 Number of occupied orbitals:                                                 34
 Number of molecular orbitals:                                                56

 Number of orbital functions:                                                 56
 Number of independent orbital functions:                                     56


 SCF WAVEFUNCTION OPTIMIZATION

  Step     Update method      Time    Convergence         Total energy    Change
  ------------------------------------------------------------------------------
     1 TBLite/Diag 0.40E+00    0.0     1.1484E-11       -48.3410373444 -4.83E+01

  *** SCF run converged in     1 steps ***


  Core Hamiltonian energy:                                    -48.90212016489918
  Repulsive potential energy:                                   0.28936622577983
  Electrostatic energy:                                         0.30209537934165
  Self-consistent dispersion energy:                            0.00000000000000
  Non-self consistent dispersion energy:                       -0.03037878464819
  Correction for halogen bonding:                               0.00000000000000
  Electronic entropic energy:                                  -0.00000000000000
  Fermi energy:                                                -0.34169810019136

  Total energy:                                               -48.34103734442589
  Total energy (extrapolated to T->0):                        -48.34103734442589

 ENERGY| Total FORCE_EVAL ( QS ) energy [hartree]            -48.341037344425892

 -------------------------------------------------------------------------------
 -                                                                             -
 -                                DBCSR STATISTICS                             -
 -                                                                             -
 -------------------------------------------------------------------------------
 COUNTER                                    TOTAL       BLAS       SMM       ACC
 flops     2 x    24 x     2               721920       0.0%    100.0%      0.0%     
 flops     2 x    32 x     2               962560       0.0%    100.0%      0.0%     
 flops     2 x     2 x    56              2186240       0.0%    100.0%      0.0%     
 flops     2 x    24 x     4              4331520       0.0%    100.0%      0.0%     
 flops     4 x    24 x     2              4331520       0.0%    100.0%      0.0%     
 flops     2 x    32 x     4              5775360       0.0%    100.0%      0.0%     
 flops     4 x    32 x     2              5775360       0.0%    100.0%      0.0%     
 flops     2 x     4 x    56             10493952       0.0%    100.0%      0.0%     
 flops     4 x     2 x    56             10493952       0.0%    100.0%      0.0%     
 flops     4 x    24 x     4             25989120       0.0%    100.0%      0.0%     
 flops     4 x    32 x     4             34652160       0.0%    100.0%      0.0%     
 flops     4 x     4 x    56             68210688       0.0%    100.0%      0.0%     
 flops inhomo. stacks                           0       0.0%      0.0%      0.0%
 flops total                       173.924352E+06       0.0%    100.0%      0.0%
 flops max/rank                    173.924352E+06       0.0%    100.0%      0.0%
 matmuls inhomo. stacks                         0       0.0%      0.0%      0.0%
 matmuls total                             186688       0.0%    100.0%      0.0%
 number of processed stacks                  3832       0.0%    100.0%      0.0%
 average stack size                                     0.0      48.7       0.0
 marketing flops                   186.604544E+06
 -------------------------------------------------------------------------------
 # multiplications                            723
 max memory usage/rank              13.670740E+09
 # max total images/rank                        1
 # max 3D layers                                1
 # MPI messages exchanged                       0
 -------------------------------------------------------------------------------
 -                                                                             -
 -                      DBCSR MESSAGE PASSING PERFORMANCE                      -
 -                                                                             -
 -------------------------------------------------------------------------------
 ROUTINE             CALLS      AVE VOLUME [Bytes]
 MP_Bcast               13                     12.
 MP_Allreduce         3188                      8.
 MP_Alltoall         22103                  16189.
 MP_ISend             2892                   1368.
 MP_IRecv             2892                   1368.
 -------------------------------------------------------------------------------

 -------------------------------------------------------------------------------
 -                                                                             -
 -                          OFFLOAD MEMPOOL STATISTICS                         -
 -                                                                             -
 -------------------------------------------------------------------------------
 Memory consumption                Number of allocations  Used [MiB]  Size [MiB]
 Device                                                1           0           0
 Host                                                  1           0           0
 -------------------------------------------------------------------------------

 MEMORY| Estimated peak process memory [MiB]                                 167

 -------------------------------------------------------------------------------
 -                                                                             -
 -                         MESSAGE PASSING PERFORMANCE                         -
 -                                                                             -
 -------------------------------------------------------------------------------

 ROUTINE             CALLS      AVE VOLUME [Bytes]
 MP_Group               49
 MP_Bcast              974                    225.
 MP_Allreduce         8735                    115.
 MP_Sync               536
 MP_comm_split         487
 -------------------------------------------------------------------------------


 -------------------------------------------------------------------------------
 -                                                                             -
 -                           R E F E R E N C E S                               -
 -                                                                             -
 -------------------------------------------------------------------------------
 
 CP2K version 2026.1 (Development Version), the CP2K developers group (2026).
 CP2K is freely available from https://www.cp2k.org/ .
 
 M. Iannuzzi, J. Wilhelm, F. Stein, A. Bussy, H. Elgabarty, D. Golze, A. Hehn, 
 M. Graml, S. Marek, B. Sertcan Gökmen, C. Schran, H. Forbert, R. Z. 
 Khaliullin, A. Kozhevnikov, M. Taillefumier, R. Meli, V. V. Rybkin, M. Brehm, 
 R. Schade, O. Schütt, J. V. Pototschnig, H. Mirhosseini, A. Knüpfer, D. Marx, 
 M. Krack, J. Hutter, T. D. Kühne.
 J. Phys. Chem. B 130, 1237-1310 (2026).
 The CP2K Program Package Made Simple.
 https://doi.org/10.1021/acs.jpcb.5c05851

 A. Katbashev, M. Stahn, T. Rose, V. Alizadeh, M. Friede, C. Plett, P. 
 Steinbach, S. Ehlert.
 J. Phys. Chem. A 129, 2667-2682 (2025).
 Overview on Building Blocks and Applications of Efficient and Robust Extended 
 Tight Binding.
 https://doi.org/10.1021/acs.jpca.4c08263

 T. D. Kühne, M. Iannuzzi, M. Del Ben, V. V. Rybkin, P. Seewald, F. Stein, T. 
 Laino, R. Z. Khaliullin, O. Schütt, F. Schiffmann, D. Golze, J. Wilhelm, S. 
 Chulkov, M. H. Bani-Hashemian, V. Weber, U. Borstnik, M. Taillefumier, A. S. 
 Jakobovits, A. Lazzaro, H. Pabst, T. Müller, R. Schade, M. Guidon, S. 
 Andermatt, N. Holmberg, G. K. Schenter, A. Hehn, A. Bussy, F. Belleflamme, G. 
 Tabacchi, A. Glöß, M. Lass, I. Bethune, C. J. Mundy, C. Plessl, M. Watkins, 
 J. VandeVondele, M. Krack, J. Hutter.
 J. Chem. Phys. 152, 194103 (2020).
 CP2K: An electronic structure and molecular dynamics software package - 
 Quickstep: Efficient and accurate electronic structure calculations.
 https://doi.org/10.1063/5.0007045

 P. Pracht, E. Caldeweyher, S. Ehlert, S. Grimme.
 ChemRxiv, (2019).
 A Robust Non-Self-Consistent Tight-Binding Quantum Chemistry Method for large 
 Molecules.
 https://doi.org/10.26434/chemrxiv.8326202.v1

 S. Grimme, C. Bannwarth, P. Shushkov.
 J. Chem. Theory Comput. 13, 1989 (2017).
 A Robust and Accurate Tight-Binding Quantum Chemical Method for Structures, 
 Vibrational Frequencies, and Noncovalent Interactions of Large Molecular 
 Systems Parametrized for All spd-Block Elements (Z = 1-86).
 https://doi.org/10.1021/acs.jctc.7b00118

 O. Schuett, P. Messmer, J. Hutter, J. VandeVondele.
 Electronic Structure Calculations on Graphics Processing Units, 173-190 (2016).
 GPU-Accelerated Sparse Matrix-Matrix Multiplication for Linear Scaling Density 
 Functional Theory.
 https://doi.org/10.1002/9781118670712.ch8

 A. Heinecke, G. Henry, M. Hutchinson, H. Pabst.
 Proceedings of Intl. Supercomputing Conference, 981-991 (2016).
 LIBXSMM: Accelerating Small Matrix Multiplications by Runtime Code Generation.
 https://doi.org/10.1109/SC.2016.83

 U. Borstnik, J. VandeVondele, V. Weber, J. Hutter.
 Parallel Comput. 40, 47-58 (2014).
 Sparse matrix multiplication: The distributed block-compressed sparse row 
 library.
 https://doi.org/10.1016/j.parco.2014.03.012

 T. D. Kühne, M. Krack, F. R. Mohamed, M. Parrinello.
 Phys. Rev. Lett. 98, 066401 (2007).
 Efficient and accurate Car-Parrinello-like approach to Born-Oppenheimer 
 molecular dynamics.
 https://doi.org/10.1103/PhysRevLett.98.066401

 M. Frigo, S. G. Johnson.
 Proc. IEEE 93, 216-231 (2005).
 The design and implementation of FFTW3.
 https://doi.org/10.1109/JPROC.2004.840301

 J. Kolafa.
 J. Comput. Chem. 25, 335-342 (2004).
 Time-reversible always stable predictor-corrector method for molecular dynamics 
 of polarizable molecules.
 https://doi.org/10.1002/jcc.10385

 N. D. Mermin.
 Phys. Rev. 137, A1441-A1443 (1965).
 Thermal Properties of the Inhomogeneous Electron Gas.
 https://doi.org/10.1103/PhysRev.137.A1441


 -------------------------------------------------------------------------------
 -                                                                             -
 -                                T I M I N G                                  -
 -                                                                             -
 -------------------------------------------------------------------------------
 SUBROUTINE                       CALLS  ASD         SELF TIME        TOTAL TIME
                                MAXIMUM       AVERAGE  MAXIMUM  AVERAGE  MAXIMUM
 CP2K                                 1  1.0    0.002    0.002    7.578    7.578
 cp_cell_opt                          1  2.0    0.000    0.000    7.570    7.570
 geoopt_bfgs                          1  3.0    0.007    0.007    7.570    7.570
 cp_eval_at                          50  4.0    0.007    0.007    7.497    7.497
 qs_forces                           49  5.0    0.003    0.003    7.472    7.472
 build_tblite_matrices               99  7.0    3.311    3.311    3.342    3.342
 rebuild_ks_matrix                  439  9.7    0.001    0.001    3.009    3.009
 build_tblite_ks_matrix             439 10.7    3.004    3.004    3.009    3.009
 qs_ks_update_qs_env_forces          49  6.0    0.000    0.000    2.969    2.969
 qs_energies                         50  6.0    0.002    0.002    2.486    2.486
 qs_energies_init_hamiltonians       50  7.0    0.000    0.000    1.389    1.389
 scf_env_do_scf                      50  7.0    0.001    0.001    0.816    0.816
 scf_env_do_scf_inner_loop          390  8.0    0.033    0.033    0.813    0.813
 qs_scf_new_mos                     390  9.0    0.002    0.002    0.685    0.685
 cp_dbcsr_plus_fm_fm_t              488 10.8    0.003    0.003    0.320    0.320
 dbcsr_multiply_generic             723 12.0    0.015    0.015    0.295    0.295
 calculate_dm_sparse                439 10.0    0.002    0.002    0.292    0.292
 init_scf_run                        50  7.0    0.001    0.001    0.232    0.232
 scf_env_initial_rho_setup           50  8.0    0.001    0.001    0.217    0.217
 wfi_extrapolate                     50  9.0    0.002    0.002    0.217    0.217
 copy_dbcsr_to_fm                  1015 10.6    0.007    0.007    0.200    0.200
 dbcsr_complete_redistribute       2226 12.2    0.116    0.116    0.198    0.198
 eigensolver                        390 10.0    0.008    0.008    0.198    0.198
 cp_fm_syevd                        487 10.5    0.001    0.001    0.190    0.190
 cp_fm_syevd_base                   487 11.5    0.154    0.154    0.154    0.154
 make_m2s                          1446 13.0    0.008    0.008    0.154    0.154
 -------------------------------------------------------------------------------

 The number of warnings for this run is : 0
 
 -------------------------------------------------------------------------------
  **** **** ******  **  PROGRAM ENDED AT                 2026-05-23 22:47:02.278
 ***** ** ***  *** **   PROGRAM RAN ON                                spark-c86c
 **    ****   ******    PROGRAM RAN BY                                  kuehne88
 ***** **    ** ** **   PROGRAM PROCESS ID                               2266132
  **** **  *******  **  PROGRAM STOPPED IN /home/kuehne88/periodic-gfn2-benchmar
                                           ks/X23b/runs/cellopt_gamma/GFN1/oxali
                                           c_acid_beta_GFN1_gamma_cellopt
