 DBCSR| CPU Multiplication driver                                           XSMM (U)
 DBCSR| Multrec recursion limit                                              512 (U)
 DBCSR| Multiplication stack size                                           1000 (D)
 DBCSR| Maximum elements for images                                    UNLIMITED (U)
 DBCSR| Multiplicative factor virtual images                                   1 (U)
 DBCSR| Use multiplication densification                                       T (D)
 DBCSR| Multiplication size stacks                                             3 (U)
 DBCSR| Use memory pool for CPU allocation                                     F (U)
 DBCSR| Number of 3D layers                                               SINGLE (U)
 DBCSR| Use MPI memory allocation                                              F (U)
 DBCSR| Use RMA algorithm                                                      F (U)
 DBCSR| Use Communication thread                                               T (U)
 DBCSR| Communication thread load                                             87 (D)
 DBCSR| MPI: My process id                                                     0
 DBCSR| MPI: Number of processes                                               1
 DBCSR| OMP: Current number of threads                                         1
 DBCSR| OMP: Max number of threads                                             1
 DBCSR| Split modifier for TAS multiplication algorithm                  1.0E+00 (U)


  **** **** ******  **  PROGRAM STARTED AT               2026-05-23 22:48:13.999
 ***** ** ***  *** **   PROGRAM STARTED ON                            spark-c86c
 **    ****   ******    PROGRAM STARTED BY                              kuehne88
 ***** **    ** ** **   PROGRAM PROCESS ID                               2270982
  **** **  *******  **  PROGRAM STARTED IN /home/kuehne88/periodic-gfn2-benchmar
                                           ks/X23b/runs/cellopt_gamma/GFN2/triaz
                                           ine_GFN2_gamma_cellopt

 CP2K| version string:                 CP2K version 2026.1 (Development Version)
 CP2K| source code revision number:                                   0622d442e4
 CP2K| cp2kflags: omp fftw3 libxc parallel scalapack mpi_f08 xsmm spglib libdftd
 CP2K|            4 dftd4_v3 mctc-lib tblite
 CP2K| is freely available from                            https://www.cp2k.org/
 CP2K| Program compiled at                                   2026-05-23 22:05:08
 CP2K| Program compiled on                                            spark-c86c
 CP2K| Program compiled for                                              aarch64
 CP2K| Data directory path    /home/kuehne88/cp2k-master-tblite-20260523/install
 CP2K| Input file name                           triazine_GFN2_gamma_cellopt.inp

 GLOBAL| Force Environment number                                              1
 GLOBAL| Basis set file name                                           BASIS_SET
 GLOBAL| Potential file name                                           POTENTIAL
 GLOBAL| MM Potential file name                                     MM_POTENTIAL
 GLOBAL| Coordinate file name                                      __STD_INPUT__
 GLOBAL| Method name                                                        CP2K
 GLOBAL| Project name                               triazine_GFN2_gamma_cell_opt
 GLOBAL| Run type                                                       CELL_OPT
 GLOBAL| FFT library                                                       FFTW3
 GLOBAL| Diagonalization library                                       ScaLAPACK
 GLOBAL| Cholesky decomposition library                                ScaLAPACK
 GLOBAL| DGEMM library                                                      BLAS
 GLOBAL| Direct generalized diagonalization requested                          F
 GLOBAL| Orthonormality check for eigenvectors                          DISABLED
 GLOBAL| Matrix multiplication library                                 ScaLAPACK
 GLOBAL| All-to-all communication in single precision                          F
 GLOBAL| FFTs using library dependent lengths                                  F
 GLOBAL| Grid backend                                                       AUTO
 GLOBAL| Global print level                                                  LOW
 GLOBAL| MPI I/O enabled                                                       T
 GLOBAL| Total number of message passing processes                             1
 GLOBAL| Number of distributed systems (nodes)                                 1
 GLOBAL| Number of threads for this process                                    1
 GLOBAL| This output is from process                                           0
 GLOBAL| OpenMP stack size per thread (OMP_STACKSIZE)                    default
 GLOBAL| CPU model name                                                  UNKNOWN
 GLOBAL| CPUID                                                              2200
 GLOBAL| Compiled for CPUID                                                 2000

 *** HINT in environment.F:970 :: The compiler target flags (arm_arch64)   ***
 *** used to build this binary cannot exploit all extensions of this CPU   ***
 *** model (arm_sve256). Consider compiler target flags as part of FCFLAGS ***
 *** and CFLAGS (ARCH file).                                               ***


 MEMORY| system memory details [Kb]
 MEMORY|                        rank 0           min           max       average
 MEMORY| MemTotal            125508532     125508532     125508532     125508532
 MEMORY| MemFree             104347464     104347464     104347464     104347464
 MEMORY| Buffers                868556        868556        868556        868556
 MEMORY| Cached               14098976      14098976      14098976      14098976
 MEMORY| Slab                  1599708       1599708       1599708       1599708
 MEMORY| SReclaimable           921424        921424        921424        921424
 MEMORY| MemLikelyFree       120236420     120236420     120236420     120236420


 GENERATE|  Preliminary Number of Bonds generated:                             0
 GENERATE|  Achieved consistency in connectivity generation.


                  #####   #####        #     #   #     #       #          
                 #     # #     #      #    ##### #     #   # #####  ####  
                 #     # #           #       #   ###   #       #   #    # 
                 #     #  #####     #        #   #  #  #   #   #   ###### 
                 #   # #       #   #         #   #   # #   #   #   #      
                 #    #  #     #  #          #   #  #  # # #   #    #   # 
                  #### #  #####  #           #   ###   ##  #   #     ###  

                                   GFN2-xTB  
                                 Version 0.0                       
                            Johann V. Pototschnig                  



 TOTAL NUMBERS AND MAXIMUM NUMBERS

  Total number of            - Atomic kinds:                                   3
                             - Atoms:                                         54
                             - Shell sets:                                    90
                             - Shells:                                        90
                             - Primitive Cartesian functions:                342
                             - Cartesian basis functions:                    162
                             - Spherical basis functions:                    162

  Maximum angular momentum of the orbital basis functions:                     1


 SCF PARAMETERS         Density guess:                                     MOPAC
                        --------------------------------------------------------
                        max_scf:                                             300
                        max_scf_history:                                       0
                        max_diis:                                              4
                        --------------------------------------------------------
                        eps_scf:                                        1.00E-09
                        eps_scf_history:                                0.00E+00
                        eps_diis:                                       1.00E-01
                        eps_eigval:                                     1.00E-05
                        --------------------------------------------------------
                        level_shift [a.u.]:                             0.000000
                        added MOs                                        72    0
                        --------------------------------------------------------
                        Mixing method:                           DIRECT_P_MIXING
                        --------------------------------------------------------
                        Smear method:                                FERMI_DIRAC
                        Electronic temperature [K]:                        300.0
                        Electronic temperature [a.u.]:                  9.50E-04
                        Accuracy threshold:                             1.00E-06
                        --------------------------------------------------------
                        No outer SCF

 CELL_OPT| Pressure tolerance [bar]:                                       100.0
 CELL_OPT| Keep volume of cell:                                               NO
 CELL_OPT| Keep angles between the cell vectors:                              NO
 CELL_OPT| Keep cell symmetry:                                                NO
 CELL_OPT| Constraint:                                                      NONE

 BFGS| Use rational function optimization for step estimation:                NO
 BFGS| Use model Hessian for initial guess:                                   NO
 BFGS| Restart Hessian:                                                       NO
 BFGS| Trust radius:                                                       0.472

 *******************************************************************************
 ***                     STARTING   CELL   OPTIMIZATION                      ***
 ***                                   BFGS                                  ***
 *******************************************************************************

 CELL| Volume [angstrom^3]:                                           586.821774
 CELL| Vector a [angstrom]:       9.647     0.000     0.000   |a| =     9.647000
 CELL| Vector b [angstrom]:      -4.824     8.355     0.000   |b| =     9.647000
 CELL| Vector c [angstrom]:       0.000     0.000     7.281   |c| =     7.281000
 CELL| Angle (b,c), alpha [degree]:                                    90.000000
 CELL| Angle (a,c), beta  [degree]:                                    90.000000
 CELL| Angle (a,b), gamma [degree]:                                   120.000000
 CELL| Numerically orthorhombic:                                              NO
 CELL| Periodicity                                                           XYZ

 Extrapolation method: initial_guess

 Number of electrons:                                                        180
 Number of occupied orbitals:                                                 90
 Number of molecular orbitals:                                               162

 Number of orbital functions:                                                162
 Number of independent orbital functions:                                    162


 SCF WAVEFUNCTION OPTIMIZATION

  Step     Update method      Time    Convergence         Total energy    Change
  ------------------------------------------------------------------------------
     1 TBLite/Diag 0.40E+00    0.0     0.67042472       -99.0184183713 -9.90E+01
     2 TBLite/Diag 0.40E+00    0.0     0.31836757       -99.8975672055 -8.79E-01
     3 TBLite/Diag 0.40E+00    0.0     0.09469315       -99.9193683406 -2.18E-02
     4 TBLite/Diag 0.40E+00    0.0     0.05617521       -99.9337814651 -1.44E-02
     5 TBLite/Diag 0.40E+00    0.0     0.03735356       -99.9348612080 -1.08E-03
     6 TBLite/Diag 0.40E+00    0.0     0.01406872       -99.9381772521 -3.32E-03
     7 TBLite/Diag 0.40E+00    0.0     0.00225451       -99.9382771407 -9.99E-05
     8 TBLite/Diag 0.40E+00    0.0     0.00094451       -99.9382865765 -9.44E-06
     9 TBLite/Diag 0.40E+00    0.0     0.00002061       -99.9382865757  8.60E-10
    10 TBLite/Diag 0.40E+00    0.0     0.00000805       -99.9382865765 -8.55E-10
    11 TBLite/Diag 0.40E+00    0.0     0.00000430       -99.9382865769 -3.28E-10
    12 TBLite/Diag 0.40E+00    0.0     0.00000136       -99.9382865769 -2.50E-11
    13 TBLite/Diag 0.40E+00    0.0     0.00000018       -99.9382865769 -2.13E-13
    14 TBLite/Diag 0.40E+00    0.0     9.3393E-09       -99.9382865769  5.68E-14
    15 TBLite/Diag 0.40E+00    0.0     0.00000001       -99.9382865769  1.42E-14
    16 TBLite/Diag 0.40E+00    0.0     1.0915E-09       -99.9382865769 -2.84E-14
    17 TBLite/Diag 0.40E+00    0.0     1.3413E-10       -99.9382865769  1.42E-13

  *** SCF run converged in    17 steps ***


  Core Hamiltonian energy:                                   -102.17259279754579
  Repulsive potential energy:                                   2.07232062064209
  Electrostatic energy:                                         0.28636649052897
  Self-consistent dispersion energy:                           -0.15279733689910
  Non-self consistent dispersion energy:                        0.02841644639735
  Correction for halogen bonding:                               0.00000000000000
  Electronic entropic energy:                                  -0.00000000000000
  Fermi energy:                                                -0.33496482038786

  Total energy:                                               -99.93828657687648
  Total energy (extrapolated to T->0):                        -99.93828657687648

 ENERGY| Total FORCE_EVAL ( QS ) energy [hartree]            -99.938286576876479

 OPT| **************************************************************************
 OPT| Step number                                                              0
 OPT| Optimization method                                                   BFGS
 OPT| Total energy [hartree]                                      -99.9382865769
 OPT| Internal pressure [bar]                                  164315.8071386141
 OPT| Used time [s]                                                        2.965
 OPT| **************************************************************************
 OPT| Estimated peak process memory [MiB]                                    172

 --------------------------
 OPTIMIZATION STEP:      1
 --------------------------

 CELL| Volume [angstrom^3]:                                           600.440858
 CELL| Vector a [angstrom]:       9.745     0.000     0.000   |a| =     9.744998
 CELL| Vector b [angstrom]:      -4.823     8.468     0.000   |b| =     9.745162
 CELL| Vector c [angstrom]:       0.000    -0.000     7.276   |c| =     7.276500
 CELL| Angle (b,c), alpha [degree]:                                    90.000001
 CELL| Angle (a,c), beta  [degree]:                                    89.999999
 CELL| Angle (a,b), gamma [degree]:                                   119.667298
 CELL| Numerically orthorhombic:                                              NO
 CELL| Periodicity                                                           XYZ

 Extrapolation method: ASPC

 Number of electrons:                                                        180
 Number of occupied orbitals:                                                 90
 Number of molecular orbitals:                                               162

 Number of orbital functions:                                                162
 Number of independent orbital functions:                                    162


 SCF WAVEFUNCTION OPTIMIZATION

  Step     Update method      Time    Convergence         Total energy    Change
  ------------------------------------------------------------------------------
     1 TBLite/Diag 0.40E+00    0.0     0.11935259      -100.1980765131 -1.00E+02
     2 TBLite/Diag 0.40E+00    0.0     0.01571142      -100.2000932249 -2.02E-03
     3 TBLite/Diag 0.40E+00    0.0     0.01151377      -100.2001272721 -3.40E-05
     4 TBLite/Diag 0.40E+00    0.0     0.00486459      -100.2004848393 -3.58E-04
     5 TBLite/Diag 0.40E+00    0.0     0.00102229      -100.2004913552 -6.52E-06
     6 TBLite/Diag 0.40E+00    0.0     0.00014744      -100.2004915750 -2.20E-07
     7 TBLite/Diag 0.40E+00    0.0     0.00007776      -100.2004915894 -1.45E-08
     8 TBLite/Diag 0.40E+00    0.0     0.00004241      -100.2004916010 -1.15E-08
     9 TBLite/Diag 0.40E+00    0.0     0.00000317      -100.2004916010 -2.37E-11
    10 TBLite/Diag 0.40E+00    0.0     0.00000157      -100.2004916010 -2.11E-11
    11 TBLite/Diag 0.40E+00    0.0     0.00000005      -100.2004916010  7.11E-14
    12 TBLite/Diag 0.40E+00    0.0     0.00000001      -100.2004916010 -7.11E-14
    13 TBLite/Diag 0.40E+00    0.0     3.1077E-09      -100.2004916010  8.53E-14
    14 TBLite/Diag 0.40E+00    0.0     1.6992E-09      -100.2004916010 -2.84E-14
    15 TBLite/Diag 0.40E+00    0.0     1.0665E-10      -100.2004916010  2.84E-14

  *** SCF run converged in    15 steps ***


  Core Hamiltonian energy:                                   -101.87236807876008
  Repulsive potential energy:                                   1.50000437771139
  Electrostatic energy:                                         0.29279726924266
  Self-consistent dispersion energy:                           -0.14718768322692
  Non-self consistent dispersion energy:                        0.02626251401094
  Correction for halogen bonding:                               0.00000000000000
  Electronic entropic energy:                                  -0.00000000000000
  Fermi energy:                                                -0.33462765512292

  Total energy:                                              -100.20049160102201
  Total energy (extrapolated to T->0):                       -100.20049160102201

 ENERGY| Total FORCE_EVAL ( QS ) energy [hartree]           -100.200491601022009

 OPT| **************************************************************************
 OPT| Step number                                                              1
 OPT| Optimization method                                                   BFGS
 OPT| Total energy [hartree]                                     -100.2004916010
 OPT| Internal pressure [bar]                                   65509.1807300463
 OPT| Effective energy change [hartree]                            -0.2622050241
 OPT| Predicted energy change [hartree]                            -0.3996758147
 OPT| Scaling factor                                                0.0000000000
 OPT| Step size                                                     0.2138462241
 OPT| Trust radius                                                  0.4724315332
 OPT| Decrease in energy                                                     YES
 OPT| Used time [s]                                                        3.022
 OPT|
 OPT| Maximum step size                                             0.2138462241
 OPT| Convergence limit for maximum step size                       0.0030000000
 OPT| Maximum step size is converged                                          NO
 OPT|
 OPT| RMS step size                                                 0.0689785866
 OPT| Convergence limit for RMS step size                           0.0015000000
 OPT| RMS step size is converged                                              NO
 OPT|
 OPT| Maximum gradient                                              0.0815786067
 OPT| Convergence limit for maximum gradient                        0.0004500000
 OPT| Maximum gradient is converged                                           NO
 OPT|
 OPT| RMS gradient                                                  0.0277307339
 OPT| Convergence limit for RMS gradient                            0.0003000000
 OPT| RMS gradient is converged                                               NO
 OPT|
 OPT| Pressure deviation [bar]                                  65509.1807300463
 OPT| Pressure tolerance [bar]                                    100.0000000000
 OPT| Pressure is converged                                                   NO
 OPT| **************************************************************************
 OPT| Estimated peak process memory after this step [MiB]                    174

 --------------------------
 OPTIMIZATION STEP:      2
 --------------------------

 CELL| Volume [angstrom^3]:                                           606.258174
 CELL| Vector a [angstrom]:       9.789     0.000     0.000   |a| =     9.789143
 CELL| Vector b [angstrom]:      -4.828     8.516     0.000   |b| =     9.789324
 CELL| Vector c [angstrom]:      -0.000     0.000     7.273   |c| =     7.272643
 CELL| Angle (b,c), alpha [degree]:                                    89.999815
 CELL| Angle (a,c), beta  [degree]:                                    90.000184
 CELL| Angle (a,b), gamma [degree]:                                   119.553300
 CELL| Numerically orthorhombic:                                              NO
 CELL| Periodicity                                                           XYZ

 Extrapolation method: ASPC

 Number of electrons:                                                        180
 Number of occupied orbitals:                                                 90
 Number of molecular orbitals:                                               162

 Number of orbital functions:                                                162
 Number of independent orbital functions:                                    162


 SCF WAVEFUNCTION OPTIMIZATION

  Step     Update method      Time    Convergence         Total energy    Change
  ------------------------------------------------------------------------------
     1 TBLite/Diag 0.40E+00    0.0     0.04089500      -100.2695036589 -1.00E+02
     2 TBLite/Diag 0.40E+00    0.0     0.00562066      -100.2698152260 -3.12E-04
     3 TBLite/Diag 0.40E+00    0.0     0.00403294      -100.2698158739 -6.48E-07
     4 TBLite/Diag 0.40E+00    0.0     0.00307545      -100.2699005632 -8.47E-05
     5 TBLite/Diag 0.40E+00    0.0     0.00044615      -100.2699018779 -1.31E-06
     6 TBLite/Diag 0.40E+00    0.0     0.00006932      -100.2699019176 -3.97E-08
     7 TBLite/Diag 0.40E+00    0.0     0.00005140      -100.2699019306 -1.30E-08
     8 TBLite/Diag 0.40E+00    0.0     0.00001001      -100.2699019311 -5.76E-10
     9 TBLite/Diag 0.40E+00    0.0     0.00000133      -100.2699019311 -9.83E-12
    10 TBLite/Diag 0.40E+00    0.0     0.00000033      -100.2699019311 -9.95E-13
    11 TBLite/Diag 0.40E+00    0.0     0.00000002      -100.2699019311  1.14E-13
    12 TBLite/Diag 0.40E+00    0.0     3.2119E-09      -100.2699019311  9.95E-14
    13 TBLite/Diag 0.40E+00    0.0     6.5902E-10      -100.2699019311 -1.14E-13

  *** SCF run converged in    13 steps ***


  Core Hamiltonian energy:                                   -101.84556020894306
  Repulsive potential energy:                                   1.40221507608817
  Electrostatic energy:                                         0.29517007392126
  Self-consistent dispersion energy:                           -0.14825951132923
  Non-self consistent dispersion energy:                        0.02653263912040
  Correction for halogen bonding:                               0.00000000000000
  Electronic entropic energy:                                  -0.00000000000000
  Fermi energy:                                                -0.33849116539315

  Total energy:                                              -100.26990193114246
  Total energy (extrapolated to T->0):                       -100.26990193114246

 ENERGY| Total FORCE_EVAL ( QS ) energy [hartree]           -100.269901931142456

 OPT| **************************************************************************
 OPT| Step number                                                              2
 OPT| Optimization method                                                   BFGS
 OPT| Total energy [hartree]                                     -100.2699019311
 OPT| Internal pressure [bar]                                   19152.9468003928
 OPT| Effective energy change [hartree]                            -0.0694103301
 OPT| Predicted energy change [hartree]                            -0.0487170989
 OPT| Scaling factor                                                0.0000000000
 OPT| Step size                                                     0.0907000515
 OPT| Trust radius                                                  0.4724315332
 OPT| Decrease in energy                                                     YES
 OPT| Used time [s]                                                        2.963
 OPT|
 OPT| Maximum step size                                             0.0907000515
 OPT| Convergence limit for maximum step size                       0.0030000000
 OPT| Maximum step size is converged                                          NO
 OPT|
 OPT| RMS step size                                                 0.0217898736
 OPT| Convergence limit for RMS step size                           0.0015000000
 OPT| RMS step size is converged                                              NO
 OPT|
 OPT| Maximum gradient                                              0.0299428568
 OPT| Convergence limit for maximum gradient                        0.0004500000
 OPT| Maximum gradient is converged                                           NO
 OPT|
 OPT| RMS gradient                                                  0.0117881080
 OPT| Convergence limit for RMS gradient                            0.0003000000
 OPT| RMS gradient is converged                                               NO
 OPT|
 OPT| Pressure deviation [bar]                                  19152.9468003928
 OPT| Pressure tolerance [bar]                                    100.0000000000
 OPT| Pressure is converged                                                   NO
 OPT| **************************************************************************
 OPT| Estimated peak process memory after this step [MiB]                    175

 --------------------------
 OPTIMIZATION STEP:      3
 --------------------------

 CELL| Volume [angstrom^3]:                                           609.864466
 CELL| Vector a [angstrom]:       9.821     0.000     0.000   |a| =     9.820784
 CELL| Vector b [angstrom]:      -4.836     8.548     0.000   |b| =     9.820971
 CELL| Vector c [angstrom]:      -0.000     0.000     7.265   |c| =     7.265027
 CELL| Angle (b,c), alpha [degree]:                                    89.999286
 CELL| Angle (a,c), beta  [degree]:                                    90.000712
 CELL| Angle (a,b), gamma [degree]:                                   119.500291
 CELL| Numerically orthorhombic:                                              NO
 CELL| Periodicity                                                           XYZ

 Extrapolation method: ASPC

 Number of electrons:                                                        180
 Number of occupied orbitals:                                                 90
 Number of molecular orbitals:                                               162

 Number of orbital functions:                                                162
 Number of independent orbital functions:                                    162


 SCF WAVEFUNCTION OPTIMIZATION

  Step     Update method      Time    Convergence         Total energy    Change
  ------------------------------------------------------------------------------
     1 TBLite/Diag 0.40E+00    0.0     0.04083127      -100.2929387828 -1.00E+02
     2 TBLite/Diag 0.40E+00    0.0     0.00164571      -100.2930493614 -1.11E-04
     3 TBLite/Diag 0.40E+00    0.0     0.00201872      -100.2930785289 -2.92E-05
     4 TBLite/Diag 0.40E+00    0.0     0.00109213      -100.2930894689 -1.09E-05
     5 TBLite/Diag 0.40E+00    0.0     0.00021460      -100.2930897382 -2.69E-07
     6 TBLite/Diag 0.40E+00    0.0     0.00007422      -100.2930897743 -3.61E-08
     7 TBLite/Diag 0.40E+00    0.0     0.00005566      -100.2930897835 -9.17E-09
     8 TBLite/Diag 0.40E+00    0.0     0.00001146      -100.2930897844 -9.51E-10
     9 TBLite/Diag 0.40E+00    0.0     0.00000060      -100.2930897844 -1.38E-12
    10 TBLite/Diag 0.40E+00    0.0     0.00000012      -100.2930897844 -7.11E-14
    11 TBLite/Diag 0.40E+00    0.0     0.00000001      -100.2930897844 -1.28E-13
    12 TBLite/Diag 0.40E+00    0.0     1.5908E-09      -100.2930897844  1.71E-13
    13 TBLite/Diag 0.40E+00    0.0     1.6999E-09      -100.2930897844 -8.53E-14
    14 TBLite/Diag 0.40E+00    0.0     7.0758E-10      -100.2930897844 -4.26E-14

  *** SCF run converged in    14 steps ***


  Core Hamiltonian energy:                                   -101.84369549853027
  Repulsive potential energy:                                   1.37152762529260
  Electrostatic energy:                                         0.30022981195269
  Self-consistent dispersion energy:                           -0.14738851522045
  Non-self consistent dispersion energy:                        0.02623679205757
  Correction for halogen bonding:                               0.00000000000000
  Electronic entropic energy:                                  -0.00000000000000
  Fermi energy:                                                -0.33953352207406

  Total energy:                                              -100.29308978444787
  Total energy (extrapolated to T->0):                       -100.29308978444787

 ENERGY| Total FORCE_EVAL ( QS ) energy [hartree]           -100.293089784447872

 OPT| **************************************************************************
 OPT| Step number                                                              3
 OPT| Optimization method                                                   BFGS
 OPT| Total energy [hartree]                                     -100.2930897844
 OPT| Internal pressure [bar]                                    1056.0149901504
 OPT| Effective energy change [hartree]                            -0.0231878533
 OPT| Predicted energy change [hartree]                            -0.0191452454
 OPT| Scaling factor                                                0.0000000000
 OPT| Step size                                                     0.0604860105
 OPT| Trust radius                                                  0.4724315332
 OPT| Decrease in energy                                                     YES
 OPT| Used time [s]                                                        2.977
 OPT|
 OPT| Maximum step size                                             0.0604860105
 OPT| Convergence limit for maximum step size                       0.0030000000
 OPT| Maximum step size is converged                                          NO
 OPT|
 OPT| RMS step size                                                 0.0200890981
 OPT| Convergence limit for RMS step size                           0.0015000000
 OPT| RMS step size is converged                                              NO
 OPT|
 OPT| Maximum gradient                                              0.0082800908
 OPT| Convergence limit for maximum gradient                        0.0004500000
 OPT| Maximum gradient is converged                                           NO
 OPT|
 OPT| RMS gradient                                                  0.0033832727
 OPT| Convergence limit for RMS gradient                            0.0003000000
 OPT| RMS gradient is converged                                               NO
 OPT|
 OPT| Pressure deviation [bar]                                   1056.0149901504
 OPT| Pressure tolerance [bar]                                    100.0000000000
 OPT| Pressure is converged                                                   NO
 OPT| **************************************************************************
 OPT| Estimated peak process memory after this step [MiB]                    175

 --------------------------
 OPTIMIZATION STEP:      4
 --------------------------

 CELL| Volume [angstrom^3]:                                           610.582962
 CELL| Vector a [angstrom]:       9.831     0.000     0.000   |a| =     9.830902
 CELL| Vector b [angstrom]:      -4.841     8.556     0.000   |b| =     9.831078
 CELL| Vector c [angstrom]:      -0.000     0.000     7.259   |c| =     7.258727
 CELL| Angle (b,c), alpha [degree]:                                    89.998727
 CELL| Angle (a,c), beta  [degree]:                                    90.001270
 CELL| Angle (a,b), gamma [degree]:                                   119.501651
 CELL| Numerically orthorhombic:                                              NO
 CELL| Periodicity                                                           XYZ

 Extrapolation method: ASPC

 Number of electrons:                                                        180
 Number of occupied orbitals:                                                 90
 Number of molecular orbitals:                                               162

 Number of orbital functions:                                                162
 Number of independent orbital functions:                                    162


 SCF WAVEFUNCTION OPTIMIZATION

  Step     Update method      Time    Convergence         Total energy    Change
  ------------------------------------------------------------------------------
     1 TBLite/Diag 0.40E+00    0.0     0.01165020      -100.2953241389 -1.00E+02
     2 TBLite/Diag 0.40E+00    0.0     0.00172550      -100.2953388999 -1.48E-05
     3 TBLite/Diag 0.40E+00    0.0     0.00134422      -100.2953372254  1.67E-06
     4 TBLite/Diag 0.40E+00    0.0     0.00071820      -100.2953432092 -5.98E-06
     5 TBLite/Diag 0.40E+00    0.0     0.00004521      -100.2953432145 -5.37E-09
     6 TBLite/Diag 0.40E+00    0.0     0.00002561      -100.2953432186 -4.02E-09
     7 TBLite/Diag 0.40E+00    0.0     0.00000523      -100.2953432187 -1.54E-10
     8 TBLite/Diag 0.40E+00    0.0     0.00000273      -100.2953432188 -4.12E-11
     9 TBLite/Diag 0.40E+00    0.0     0.00000014      -100.2953432188 -3.27E-13
    10 TBLite/Diag 0.40E+00    0.0     0.00000006      -100.2953432188  1.71E-13
    11 TBLite/Diag 0.40E+00    0.0     4.5797E-09      -100.2953432188 -1.56E-13
    12 TBLite/Diag 0.40E+00    0.0     1.1771E-09      -100.2953432188  8.53E-14
    13 TBLite/Diag 0.40E+00    0.0     8.0608E-10      -100.2953432188 -1.28E-13

  *** SCF run converged in    13 steps ***


  Core Hamiltonian energy:                                   -101.83720281732580
  Repulsive potential energy:                                   1.36062072407805
  Electrostatic energy:                                         0.30230495209240
  Self-consistent dispersion energy:                           -0.14722934501210
  Non-self consistent dispersion energy:                        0.02616326740795
  Correction for halogen bonding:                               0.00000000000000
  Electronic entropic energy:                                  -0.00000000000000
  Fermi energy:                                                -0.33934038332163

  Total energy:                                              -100.29534321875951
  Total energy (extrapolated to T->0):                       -100.29534321875951

 ENERGY| Total FORCE_EVAL ( QS ) energy [hartree]           -100.295343218759513

 OPT| **************************************************************************
 OPT| Step number                                                              4
 OPT| Optimization method                                                   BFGS
 OPT| Total energy [hartree]                                     -100.2953432188
 OPT| Internal pressure [bar]                                   -2890.7341177899
 OPT| Effective energy change [hartree]                            -0.0022534343
 OPT| Predicted energy change [hartree]                            -0.0016830446
 OPT| Scaling factor                                                0.0000000000
 OPT| Step size                                                     0.0191211913
 OPT| Trust radius                                                  0.4724315332
 OPT| Decrease in energy                                                     YES
 OPT| Used time [s]                                                        1.706
 OPT|
 OPT| Maximum step size                                             0.0191211913
 OPT| Convergence limit for maximum step size                       0.0030000000
 OPT| Maximum step size is converged                                          NO
 OPT|
 OPT| RMS step size                                                 0.0067188461
 OPT| Convergence limit for RMS step size                           0.0015000000
 OPT| RMS step size is converged                                              NO
 OPT|
 OPT| Maximum gradient                                              0.0082186507
 OPT| Convergence limit for maximum gradient                        0.0004500000
 OPT| Maximum gradient is converged                                           NO
 OPT|
 OPT| RMS gradient                                                  0.0019307409
 OPT| Convergence limit for RMS gradient                            0.0003000000
 OPT| RMS gradient is converged                                               NO
 OPT|
 OPT| Pressure deviation [bar]                                  -2890.7341177899
 OPT| Pressure tolerance [bar]                                    100.0000000000
 OPT| Pressure is converged                                                   NO
 OPT| **************************************************************************
 OPT| Estimated peak process memory after this step [MiB]                    176

 --------------------------
 OPTIMIZATION STEP:      5
 --------------------------

 CELL| Volume [angstrom^3]:                                           610.302099
 CELL| Vector a [angstrom]:       9.835     0.000     0.000   |a| =     9.834600
 CELL| Vector b [angstrom]:      -4.846     8.558     0.000   |b| =     9.834762
 CELL| Vector c [angstrom]:      -0.000     0.000     7.251   |c| =     7.251406
 CELL| Angle (b,c), alpha [degree]:                                    89.998026
 CELL| Angle (a,c), beta  [degree]:                                    90.001970
 CELL| Angle (a,b), gamma [degree]:                                   119.522070
 CELL| Numerically orthorhombic:                                              NO
 CELL| Periodicity                                                           XYZ

 Extrapolation method: ASPC

 Number of electrons:                                                        180
 Number of occupied orbitals:                                                 90
 Number of molecular orbitals:                                               162

 Number of orbital functions:                                                162
 Number of independent orbital functions:                                    162


 SCF WAVEFUNCTION OPTIMIZATION

  Step     Update method      Time    Convergence         Total energy    Change
  ------------------------------------------------------------------------------
     1 TBLite/Diag 0.40E+00    0.0     0.00490400      -100.2959299473 -1.00E+02
     2 TBLite/Diag 0.40E+00    0.0     0.00102705      -100.2959336260 -3.68E-06
     3 TBLite/Diag 0.40E+00    0.0     0.00065410      -100.2959334397  1.86E-07
     4 TBLite/Diag 0.40E+00    0.0     0.00029745      -100.2959345029 -1.06E-06
     5 TBLite/Diag 0.40E+00    0.0     0.00002672      -100.2959345051 -2.18E-09
     6 TBLite/Diag 0.40E+00    0.0     0.00001217      -100.2959345059 -8.11E-10
     7 TBLite/Diag 0.40E+00    0.0     0.00000357      -100.2959345059 -1.31E-11
     8 TBLite/Diag 0.40E+00    0.0     0.00000169      -100.2959345059 -2.60E-11
     9 TBLite/Diag 0.40E+00    0.0     0.00000010      -100.2959345059 -2.56E-13
    10 TBLite/Diag 0.40E+00    0.0     0.00000003      -100.2959345060 -1.28E-13
    11 TBLite/Diag 0.40E+00    0.0     4.3616E-09      -100.2959345059  2.27E-13
    12 TBLite/Diag 0.40E+00    0.0     6.2306E-10      -100.2959345059  7.11E-14

  *** SCF run converged in    12 steps ***


  Core Hamiltonian energy:                                   -101.83304589100496
  Repulsive potential energy:                                   1.35517231396553
  Electrostatic energy:                                         0.30310616780047
  Self-consistent dispersion energy:                           -0.14734631966594
  Non-self consistent dispersion energy:                        0.02617922295510
  Correction for halogen bonding:                               0.00000000000000
  Electronic entropic energy:                                  -0.00000000000000
  Fermi energy:                                                -0.33911731695292

  Total energy:                                              -100.29593450594982
  Total energy (extrapolated to T->0):                       -100.29593450594982

 ENERGY| Total FORCE_EVAL ( QS ) energy [hartree]           -100.295934505949816

 OPT| **************************************************************************
 OPT| Step number                                                              5
 OPT| Optimization method                                                   BFGS
 OPT| Total energy [hartree]                                     -100.2959345059
 OPT| Internal pressure [bar]                                   -4069.1676581724
 OPT| Effective energy change [hartree]                            -0.0005912872
 OPT| Predicted energy change [hartree]                            -0.0004451191
 OPT| Scaling factor                                                0.0000000000
 OPT| Step size                                                     0.0138353927
 OPT| Trust radius                                                  0.4724315332
 OPT| Decrease in energy                                                     YES
 OPT| Used time [s]                                                        1.479
 OPT|
 OPT| Maximum step size                                             0.0138353927
 OPT| Convergence limit for maximum step size                       0.0030000000
 OPT| Maximum step size is converged                                          NO
 OPT|
 OPT| RMS step size                                                 0.0034566748
 OPT| Convergence limit for RMS step size                           0.0015000000
 OPT| RMS step size is converged                                              NO
 OPT|
 OPT| Maximum gradient                                              0.0082140119
 OPT| Convergence limit for maximum gradient                        0.0004500000
 OPT| Maximum gradient is converged                                           NO
 OPT|
 OPT| RMS gradient                                                  0.0010355693
 OPT| Convergence limit for RMS gradient                            0.0003000000
 OPT| RMS gradient is converged                                               NO
 OPT|
 OPT| Pressure deviation [bar]                                  -4069.1676581724
 OPT| Pressure tolerance [bar]                                    100.0000000000
 OPT| Pressure is converged                                                   NO
 OPT| **************************************************************************
 OPT| Estimated peak process memory after this step [MiB]                    176

 --------------------------
 OPTIMIZATION STEP:      6
 --------------------------

 CELL| Volume [angstrom^3]:                                           609.470346
 CELL| Vector a [angstrom]:       9.835     0.000     0.000   |a| =     9.834833
 CELL| Vector b [angstrom]:      -4.850     8.556     0.000   |b| =     9.834982
 CELL| Vector c [angstrom]:      -0.000     0.000     7.243   |c| =     7.243184
 CELL| Angle (b,c), alpha [degree]:                                    89.997190
 CELL| Angle (a,c), beta  [degree]:                                    90.002804
 CELL| Angle (a,b), gamma [degree]:                                   119.549903
 CELL| Numerically orthorhombic:                                              NO
 CELL| Periodicity                                                           XYZ

 Extrapolation method: ASPC

 Number of electrons:                                                        180
 Number of occupied orbitals:                                                 90
 Number of molecular orbitals:                                               162

 Number of orbital functions:                                                162
 Number of independent orbital functions:                                    162


 SCF WAVEFUNCTION OPTIMIZATION

  Step     Update method      Time    Convergence         Total energy    Change
  ------------------------------------------------------------------------------
     1 TBLite/Diag 0.40E+00    0.0     0.00202326      -100.2961716736 -1.00E+02
     2 TBLite/Diag 0.40E+00    0.0     0.00045876      -100.2961723101 -6.37E-07
     3 TBLite/Diag 0.40E+00    0.0     0.00027643      -100.2961722882  2.19E-08
     4 TBLite/Diag 0.40E+00    0.0     0.00014210      -100.2961724148 -1.27E-07
     5 TBLite/Diag 0.40E+00    0.0     0.00001766      -100.2961724165 -1.64E-09
     6 TBLite/Diag 0.40E+00    0.0     0.00000629      -100.2961724168 -3.01E-10
     7 TBLite/Diag 0.40E+00    0.0     0.00000099      -100.2961724168 -6.99E-12
     8 TBLite/Diag 0.40E+00    0.0     0.00000040      -100.2961724168 -1.56E-13
     9 TBLite/Diag 0.40E+00    0.0     0.00000015      -100.2961724168 -2.13E-13
    10 TBLite/Diag 0.40E+00    0.0     0.00000002      -100.2961724168 -8.53E-14
    11 TBLite/Diag 0.40E+00    0.0     2.5995E-09      -100.2961724168 -4.26E-14
    12 TBLite/Diag 0.40E+00    0.0     3.6077E-10      -100.2961724168 -2.84E-14

  *** SCF run converged in    12 steps ***


  Core Hamiltonian energy:                                   -101.83089800369063
  Repulsive potential energy:                                   1.35285991775951
  Electrostatic energy:                                         0.30322546169673
  Self-consistent dispersion energy:                           -0.14760353592042
  Non-self consistent dispersion energy:                        0.02624374339520
  Correction for halogen bonding:                               0.00000000000000
  Electronic entropic energy:                                  -0.00000000000000
  Fermi energy:                                                -0.33906649387517

  Total energy:                                              -100.29617241675962
  Total energy (extrapolated to T->0):                       -100.29617241675962

 ENERGY| Total FORCE_EVAL ( QS ) energy [hartree]           -100.296172416759617

 OPT| **************************************************************************
 OPT| Step number                                                              6
 OPT| Optimization method                                                   BFGS
 OPT| Total energy [hartree]                                     -100.2961724168
 OPT| Internal pressure [bar]                                   -4382.9181172362
 OPT| Effective energy change [hartree]                            -0.0002379108
 OPT| Predicted energy change [hartree]                            -0.0001536409
 OPT| Scaling factor                                                0.0000000000
 OPT| Step size                                                     0.0155379527
 OPT| Trust radius                                                  0.4724315332
 OPT| Decrease in energy                                                     YES
 OPT| Used time [s]                                                        1.456
 OPT|
 OPT| Maximum step size                                             0.0155379527
 OPT| Convergence limit for maximum step size                       0.0030000000
 OPT| Maximum step size is converged                                          NO
 OPT|
 OPT| RMS step size                                                 0.0020619881
 OPT| Convergence limit for RMS step size                           0.0015000000
 OPT| RMS step size is converged                                              NO
 OPT|
 OPT| Maximum gradient                                              0.0082010999
 OPT| Convergence limit for maximum gradient                        0.0004500000
 OPT| Maximum gradient is converged                                           NO
 OPT|
 OPT| RMS gradient                                                  0.0009159707
 OPT| Convergence limit for RMS gradient                            0.0003000000
 OPT| RMS gradient is converged                                               NO
 OPT|
 OPT| Pressure deviation [bar]                                  -4382.9181172362
 OPT| Pressure tolerance [bar]                                    100.0000000000
 OPT| Pressure is converged                                                   NO
 OPT| **************************************************************************
 OPT| Estimated peak process memory after this step [MiB]                    176

 --------------------------
 OPTIMIZATION STEP:      7
 --------------------------

 CELL| Volume [angstrom^3]:                                           607.399026
 CELL| Vector a [angstrom]:       9.833     0.000     0.000   |a| =     9.833111
 CELL| Vector b [angstrom]:      -4.858     8.549     0.000   |b| =     9.833241
 CELL| Vector c [angstrom]:      -0.001     0.000     7.225   |c| =     7.225155
 CELL| Angle (b,c), alpha [degree]:                                    89.995332
 CELL| Angle (a,c), beta  [degree]:                                    90.004655
 CELL| Angle (a,b), gamma [degree]:                                   119.606440
 CELL| Numerically orthorhombic:                                              NO
 CELL| Periodicity                                                           XYZ

 Extrapolation method: ASPC

 Number of electrons:                                                        180
 Number of occupied orbitals:                                                 90
 Number of molecular orbitals:                                               162

 Number of orbital functions:                                                162
 Number of independent orbital functions:                                    162


 SCF WAVEFUNCTION OPTIMIZATION

  Step     Update method      Time    Convergence         Total energy    Change
  ------------------------------------------------------------------------------
     1 TBLite/Diag 0.40E+00    0.0     0.00292736      -100.2964856437 -1.00E+02
     2 TBLite/Diag 0.40E+00    0.0     0.00049276      -100.2964870656 -1.42E-06
     3 TBLite/Diag 0.40E+00    0.0     0.00021446      -100.2964871951 -1.30E-07
     4 TBLite/Diag 0.40E+00    0.0     0.00009449      -100.2964872507 -5.55E-08
     5 TBLite/Diag 0.40E+00    0.0     0.00001176      -100.2964872507 -4.47E-11
     6 TBLite/Diag 0.40E+00    0.0     0.00000816      -100.2964872513 -5.52E-10
     7 TBLite/Diag 0.40E+00    0.0     0.00000120      -100.2964872513 -5.85E-12
     8 TBLite/Diag 0.40E+00    0.0     0.00000074      -100.2964872513 -1.49E-12
     9 TBLite/Diag 0.40E+00    0.0     0.00000024      -100.2964872513 -3.41E-13
    10 TBLite/Diag 0.40E+00    0.0     0.00000005      -100.2964872513 -4.26E-14
    11 TBLite/Diag 0.40E+00    0.0     4.7918E-09      -100.2964872513  8.53E-14
    12 TBLite/Diag 0.40E+00    0.0     5.1751E-10      -100.2964872513  4.26E-14

  *** SCF run converged in    12 steps ***


  Core Hamiltonian energy:                                   -101.82830145305030
  Repulsive potential energy:                                   1.35046897971310
  Electrostatic energy:                                         0.30314543175422
  Self-consistent dispersion energy:                           -0.14821951188882
  Non-self consistent dispersion energy:                        0.02641930219370
  Correction for halogen bonding:                               0.00000000000000
  Electronic entropic energy:                                  -0.00000000000000
  Fermi energy:                                                -0.33913405005791

  Total energy:                                              -100.29648725127809
  Total energy (extrapolated to T->0):                       -100.29648725127809

 ENERGY| Total FORCE_EVAL ( QS ) energy [hartree]           -100.296487251278094

 OPT| **************************************************************************
 OPT| Step number                                                              7
 OPT| Optimization method                                                   BFGS
 OPT| Total energy [hartree]                                     -100.2964872513
 OPT| Internal pressure [bar]                                   -4688.0875433889
 OPT| Effective energy change [hartree]                            -0.0003148345
 OPT| Predicted energy change [hartree]                            -0.0002176674
 OPT| Scaling factor                                                0.0000000000
 OPT| Step size                                                     0.0340691940
 OPT| Trust radius                                                  0.4724315332
 OPT| Decrease in energy                                                     YES
 OPT| Used time [s]                                                        1.449
 OPT|
 OPT| Maximum step size                                             0.0340691940
 OPT| Convergence limit for maximum step size                       0.0030000000
 OPT| Maximum step size is converged                                          NO
 OPT|
 OPT| RMS step size                                                 0.0037088209
 OPT| Convergence limit for RMS step size                           0.0015000000
 OPT| RMS step size is converged                                              NO
 OPT|
 OPT| Maximum gradient                                              0.0081537382
 OPT| Convergence limit for maximum gradient                        0.0004500000
 OPT| Maximum gradient is converged                                           NO
 OPT|
 OPT| RMS gradient                                                  0.0011658209
 OPT| Convergence limit for RMS gradient                            0.0003000000
 OPT| RMS gradient is converged                                               NO
 OPT|
 OPT| Pressure deviation [bar]                                  -4688.0875433889
 OPT| Pressure tolerance [bar]                                    100.0000000000
 OPT| Pressure is converged                                                   NO
 OPT| **************************************************************************
 OPT| Estimated peak process memory after this step [MiB]                    176

 --------------------------
 OPTIMIZATION STEP:      8
 --------------------------

 CELL| Volume [angstrom^3]:                                           603.852269
 CELL| Vector a [angstrom]:       9.829     0.000     0.000   |a| =     9.828571
 CELL| Vector b [angstrom]:      -4.868     8.539     0.000   |b| =     9.828693
 CELL| Vector c [angstrom]:      -0.001     0.001     7.195   |c| =     7.195333
 CELL| Angle (b,c), alpha [degree]:                                    89.992223
 CELL| Angle (a,c), beta  [degree]:                                    90.007750
 CELL| Angle (a,b), gamma [degree]:                                   119.686563
 CELL| Numerically orthorhombic:                                              NO
 CELL| Periodicity                                                           XYZ

 Extrapolation method: ASPC

 Number of electrons:                                                        180
 Number of occupied orbitals:                                                 90
 Number of molecular orbitals:                                               162

 Number of orbital functions:                                                162
 Number of independent orbital functions:                                    162


 SCF WAVEFUNCTION OPTIMIZATION

  Step     Update method      Time    Convergence         Total energy    Change
  ------------------------------------------------------------------------------
     1 TBLite/Diag 0.40E+00    0.0     0.00369580      -100.2968701807 -1.00E+02
     2 TBLite/Diag 0.40E+00    0.0     0.00064759      -100.2968730365 -2.86E-06
     3 TBLite/Diag 0.40E+00    0.0     0.00042073      -100.2968730078  2.86E-08
     4 TBLite/Diag 0.40E+00    0.0     0.00025046      -100.2968734322 -4.24E-07
     5 TBLite/Diag 0.40E+00    0.0     0.00004954      -100.2968734421 -9.88E-09
     6 TBLite/Diag 0.40E+00    0.0     0.00000684      -100.2968734425 -3.84E-10
     7 TBLite/Diag 0.40E+00    0.0     0.00000239      -100.2968734425 -7.79E-12
     8 TBLite/Diag 0.40E+00    0.0     0.00000150      -100.2968734425 -1.32E-11
     9 TBLite/Diag 0.40E+00    0.0     0.00000018      -100.2968734425 -8.53E-14
    10 TBLite/Diag 0.40E+00    0.0     0.00000003      -100.2968734425 -7.11E-14
    11 TBLite/Diag 0.40E+00    0.0     9.9397E-09      -100.2968734425  1.99E-13
    12 TBLite/Diag 0.40E+00    0.0     8.8213E-10      -100.2968734425  1.42E-13

  *** SCF run converged in    12 steps ***


  Core Hamiltonian energy:                                   -101.82614253119458
  Repulsive potential energy:                                   1.34895763784410
  Electrostatic energy:                                         0.30285643749919
  Self-consistent dispersion energy:                           -0.14926284922342
  Non-self consistent dispersion energy:                        0.02671786259513
  Correction for halogen bonding:                               0.00000000000000
  Electronic entropic energy:                                  -0.00000000000000
  Fermi energy:                                                -0.33936634141215

  Total energy:                                              -100.29687344247958
  Total energy (extrapolated to T->0):                       -100.29687344247958

 ENERGY| Total FORCE_EVAL ( QS ) energy [hartree]           -100.296873442479580

 OPT| **************************************************************************
 OPT| Step number                                                              8
 OPT| Optimization method                                                   BFGS
 OPT| Total energy [hartree]                                     -100.2968734425
 OPT| Internal pressure [bar]                                   -4893.1071073974
 OPT| Effective energy change [hartree]                            -0.0003861912
 OPT| Predicted energy change [hartree]                            -0.0002636935
 OPT| Scaling factor                                                0.0000000000
 OPT| Step size                                                     0.0563557467
 OPT| Trust radius                                                  0.4724315332
 OPT| Decrease in energy                                                     YES
 OPT| Used time [s]                                                        1.444
 OPT|
 OPT| Maximum step size                                             0.0563557467
 OPT| Convergence limit for maximum step size                       0.0030000000
 OPT| Maximum step size is converged                                          NO
 OPT|
 OPT| RMS step size                                                 0.0055491996
 OPT| Convergence limit for RMS step size                           0.0015000000
 OPT| RMS step size is converged                                              NO
 OPT|
 OPT| Maximum gradient                                              0.0080990089
 OPT| Convergence limit for maximum gradient                        0.0004500000
 OPT| Maximum gradient is converged                                           NO
 OPT|
 OPT| RMS gradient                                                  0.0013873147
 OPT| Convergence limit for RMS gradient                            0.0003000000
 OPT| RMS gradient is converged                                               NO
 OPT|
 OPT| Pressure deviation [bar]                                  -4893.1071073974
 OPT| Pressure tolerance [bar]                                    100.0000000000
 OPT| Pressure is converged                                                   NO
 OPT| **************************************************************************
 OPT| Estimated peak process memory after this step [MiB]                    176

 --------------------------
 OPTIMIZATION STEP:      9
 --------------------------

 CELL| Volume [angstrom^3]:                                           598.533831
 CELL| Vector a [angstrom]:       9.820     0.000     0.000   |a| =     9.820358
 CELL| Vector b [angstrom]:      -4.878     8.523     0.000   |b| =     9.820501
 CELL| Vector c [angstrom]:      -0.002     0.001     7.151   |c| =     7.150639
 CELL| Angle (b,c), alpha [degree]:                                    89.987400
 CELL| Angle (a,c), beta  [degree]:                                    90.012547
 CELL| Angle (a,b), gamma [degree]:                                   119.781441
 CELL| Numerically orthorhombic:                                              NO
 CELL| Periodicity                                                           XYZ

 Extrapolation method: ASPC

 Number of electrons:                                                        180
 Number of occupied orbitals:                                                 90
 Number of molecular orbitals:                                               162

 Number of orbital functions:                                                162
 Number of independent orbital functions:                                    162


 SCF WAVEFUNCTION OPTIMIZATION

  Step     Update method      Time    Convergence         Total energy    Change
  ------------------------------------------------------------------------------
     1 TBLite/Diag 0.40E+00    0.0     0.00367741      -100.2973106971 -1.00E+02
     2 TBLite/Diag 0.40E+00    0.0     0.00095899      -100.2973153119 -4.61E-06
     3 TBLite/Diag 0.40E+00    0.0     0.00062413      -100.2973151251  1.87E-07
     4 TBLite/Diag 0.40E+00    0.0     0.00032024      -100.2973161046 -9.80E-07
     5 TBLite/Diag 0.40E+00    0.0     0.00005382      -100.2973161141 -9.45E-09
     6 TBLite/Diag 0.40E+00    0.0     0.00001117      -100.2973161149 -8.02E-10
     7 TBLite/Diag 0.40E+00    0.0     0.00000443      -100.2973161149 -3.40E-11
     8 TBLite/Diag 0.40E+00    0.0     0.00000308      -100.2973161150 -5.18E-11
     9 TBLite/Diag 0.40E+00    0.0     0.00000019      -100.2973161150 -3.98E-13
    10 TBLite/Diag 0.40E+00    0.0     0.00000003      -100.2973161150 -7.11E-14
    11 TBLite/Diag 0.40E+00    0.0     9.4117E-09      -100.2973161150  1.42E-14
    12 TBLite/Diag 0.40E+00    0.0     1.1195E-09      -100.2973161150  4.26E-14
    13 TBLite/Diag 0.40E+00    0.0     8.0224E-10      -100.2973161150  2.84E-14

  *** SCF run converged in    13 steps ***


  Core Hamiltonian energy:                                   -101.82502796444680
  Repulsive potential energy:                                   1.34896413486293
  Electrostatic energy:                                         0.30237423013039
  Self-consistent dispersion energy:                           -0.15083184445855
  Non-self consistent dispersion energy:                        0.02720532893808
  Correction for halogen bonding:                               0.00000000000000
  Electronic entropic energy:                                  -0.00000000000000
  Fermi energy:                                                -0.33977045686696

  Total energy:                                              -100.29731611497395
  Total energy (extrapolated to T->0):                       -100.29731611497395

 ENERGY| Total FORCE_EVAL ( QS ) energy [hartree]           -100.297316114973952

 OPT| **************************************************************************
 OPT| Step number                                                              9
 OPT| Optimization method                                                   BFGS
 OPT| Total energy [hartree]                                     -100.2973161150
 OPT| Internal pressure [bar]                                   -4797.0559435749
 OPT| Effective energy change [hartree]                            -0.0004426725
 OPT| Predicted energy change [hartree]                            -0.0003248934
 OPT| Scaling factor                                                0.0000000000
 OPT| Step size                                                     0.0844588408
 OPT| Trust radius                                                  0.4724315332
 OPT| Decrease in energy                                                     YES
 OPT| Used time [s]                                                        1.465
 OPT|
 OPT| Maximum step size                                             0.0844588408
 OPT| Convergence limit for maximum step size                       0.0030000000
 OPT| Maximum step size is converged                                          NO
 OPT|
 OPT| RMS step size                                                 0.0077421467
 OPT| Convergence limit for RMS step size                           0.0015000000
 OPT| RMS step size is converged                                              NO
 OPT|
 OPT| Maximum gradient                                              0.0079421315
 OPT| Convergence limit for maximum gradient                        0.0004500000
 OPT| Maximum gradient is converged                                           NO
 OPT|
 OPT| RMS gradient                                                  0.0014602237
 OPT| Convergence limit for RMS gradient                            0.0003000000
 OPT| RMS gradient is converged                                               NO
 OPT|
 OPT| Pressure deviation [bar]                                  -4797.0559435749
 OPT| Pressure tolerance [bar]                                    100.0000000000
 OPT| Pressure is converged                                                   NO
 OPT| **************************************************************************
 OPT| Estimated peak process memory after this step [MiB]                    176

 --------------------------
 OPTIMIZATION STEP:     10
 --------------------------

 CELL| Volume [angstrom^3]:                                           591.211799
 CELL| Vector a [angstrom]:       9.808     0.000     0.000   |a| =     9.807897
 CELL| Vector b [angstrom]:      -4.886     8.505     0.000   |b| =     9.808105
 CELL| Vector c [angstrom]:      -0.002     0.001     7.088   |c| =     7.087836
 CELL| Angle (b,c), alpha [degree]:                                    89.980516
 CELL| Angle (a,c), beta  [degree]:                                    90.019385
 CELL| Angle (a,b), gamma [degree]:                                   119.876788
 CELL| Numerically orthorhombic:                                              NO
 CELL| Periodicity                                                           XYZ

 Extrapolation method: ASPC

 Number of electrons:                                                        180
 Number of occupied orbitals:                                                 90
 Number of molecular orbitals:                                               162

 Number of orbital functions:                                                162
 Number of independent orbital functions:                                    162


 SCF WAVEFUNCTION OPTIMIZATION

  Step     Update method      Time    Convergence         Total energy    Change
  ------------------------------------------------------------------------------
     1 TBLite/Diag 0.40E+00    0.0     0.00348066      -100.2979036592 -1.00E+02
     2 TBLite/Diag 0.40E+00    0.0     0.00112557      -100.2979096512 -5.99E-06
     3 TBLite/Diag 0.40E+00    0.0     0.00066717      -100.2979099919 -3.41E-07
     4 TBLite/Diag 0.40E+00    0.0     0.00027090      -100.2979109232 -9.31E-07
     5 TBLite/Diag 0.40E+00    0.0     0.00003504      -100.2979109311 -7.89E-09
     6 TBLite/Diag 0.40E+00    0.0     0.00001560      -100.2979109325 -1.38E-09
     7 TBLite/Diag 0.40E+00    0.0     0.00000554      -100.2979109326 -8.04E-11
     8 TBLite/Diag 0.40E+00    0.0     0.00000305      -100.2979109327 -4.77E-11
     9 TBLite/Diag 0.40E+00    0.0     0.00000013      -100.2979109327 -1.28E-13
    10 TBLite/Diag 0.40E+00    0.0     0.00000003      -100.2979109327 -1.28E-13
    11 TBLite/Diag 0.40E+00    0.0     6.1692E-09      -100.2979109327  8.53E-14
    12 TBLite/Diag 0.40E+00    0.0     1.0923E-09      -100.2979109327 -1.14E-13
    13 TBLite/Diag 0.40E+00    0.0     6.8397E-10      -100.2979109327  1.71E-13

  *** SCF run converged in    13 steps ***


  Core Hamiltonian energy:                                   -101.82507683744855
  Repulsive potential energy:                                   1.35056966152090
  Electrostatic energy:                                         0.30173761211523
  Self-consistent dispersion energy:                           -0.15302147429174
  Non-self consistent dispersion energy:                        0.02788010545327
  Correction for halogen bonding:                               0.00000000000000
  Electronic entropic energy:                                  -0.00000000000000
  Fermi energy:                                                -0.34033150358253

  Total energy:                                              -100.29791093265088
  Total energy (extrapolated to T->0):                       -100.29791093265088

 ENERGY| Total FORCE_EVAL ( QS ) energy [hartree]           -100.297910932650879

 OPT| **************************************************************************
 OPT| Step number                                                             10
 OPT| Optimization method                                                   BFGS
 OPT| Total energy [hartree]                                     -100.2979109327
 OPT| Internal pressure [bar]                                   -4318.3487174618
 OPT| Effective energy change [hartree]                            -0.0005948177
 OPT| Predicted energy change [hartree]                            -0.0004081445
 OPT| Scaling factor                                                0.0000000000
 OPT| Step size                                                     0.1186820205
 OPT| Trust radius                                                  0.4724315332
 OPT| Decrease in energy                                                     YES
 OPT| Used time [s]                                                        1.482
 OPT|
 OPT| Maximum step size                                             0.1186820205
 OPT| Convergence limit for maximum step size                       0.0030000000
 OPT| Maximum step size is converged                                          NO
 OPT|
 OPT| RMS step size                                                 0.0103404177
 OPT| Convergence limit for RMS step size                           0.0015000000
 OPT| RMS step size is converged                                              NO
 OPT|
 OPT| Maximum gradient                                              0.0093250097
 OPT| Convergence limit for maximum gradient                        0.0004500000
 OPT| Maximum gradient is converged                                           NO
 OPT|
 OPT| RMS gradient                                                  0.0016405310
 OPT| Convergence limit for RMS gradient                            0.0003000000
 OPT| RMS gradient is converged                                               NO
 OPT|
 OPT| Pressure deviation [bar]                                  -4318.3487174618
 OPT| Pressure tolerance [bar]                                    100.0000000000
 OPT| Pressure is converged                                                   NO
 OPT| **************************************************************************
 OPT| Estimated peak process memory after this step [MiB]                    176

 --------------------------
 OPTIMIZATION STEP:     11
 --------------------------

 CELL| Volume [angstrom^3]:                                           578.944863
 CELL| Vector a [angstrom]:       9.786     0.000     0.000   |a| =     9.786192
 CELL| Vector b [angstrom]:      -4.892     8.476     0.000   |b| =     9.786546
 CELL| Vector c [angstrom]:      -0.004     0.002     6.979   |c| =     6.979370
 CELL| Angle (b,c), alpha [degree]:                                    89.968284
 CELL| Angle (a,c), beta  [degree]:                                    90.031524
 CELL| Angle (a,b), gamma [degree]:                                   119.989196
 CELL| Numerically orthorhombic:                                              NO
 CELL| Periodicity                                                           XYZ

 Extrapolation method: ASPC

 Number of electrons:                                                        180
 Number of occupied orbitals:                                                 90
 Number of molecular orbitals:                                               162

 Number of orbital functions:                                                162
 Number of independent orbital functions:                                    162


 SCF WAVEFUNCTION OPTIMIZATION

  Step     Update method      Time    Convergence         Total energy    Change
  ------------------------------------------------------------------------------
     1 TBLite/Diag 0.40E+00    0.0     0.00424697      -100.2988397192 -1.00E+02
     2 TBLite/Diag 0.40E+00    0.0     0.00150621      -100.2988521225 -1.24E-05
     3 TBLite/Diag 0.40E+00    0.0     0.00078813      -100.2988543211 -2.20E-06
     4 TBLite/Diag 0.40E+00    0.0     0.00023209      -100.2988551337 -8.13E-07
     5 TBLite/Diag 0.40E+00    0.0     0.00004781      -100.2988551501 -1.64E-08
     6 TBLite/Diag 0.40E+00    0.0     0.00001721      -100.2988551524 -2.32E-09
     7 TBLite/Diag 0.40E+00    0.0     0.00000586      -100.2988551526 -1.54E-10
     8 TBLite/Diag 0.40E+00    0.0     0.00000224      -100.2988551526 -2.52E-11
     9 TBLite/Diag 0.40E+00    0.0     0.00000008      -100.2988551526  7.11E-14
    10 TBLite/Diag 0.40E+00    0.0     0.00000004      -100.2988551526 -9.95E-14
    11 TBLite/Diag 0.40E+00    0.0     3.1101E-09      -100.2988551526  2.84E-14
    12 TBLite/Diag 0.40E+00    0.0     2.1445E-09      -100.2988551526 -1.42E-14
    13 TBLite/Diag 0.40E+00    0.0     7.4259E-10      -100.2988551526  2.84E-14

  *** SCF run converged in    13 steps ***


  Core Hamiltonian energy:                                   -101.82567364877852
  Repulsive potential energy:                                   1.35371433368334
  Electrostatic energy:                                         0.30078198069536
  Self-consistent dispersion energy:                           -0.15678857062217
  Non-self consistent dispersion energy:                        0.02911075240543
  Correction for halogen bonding:                               0.00000000000000
  Electronic entropic energy:                                  -0.00000000000000
  Fermi energy:                                                -0.34126135972126

  Total energy:                                              -100.29885515261655
  Total energy (extrapolated to T->0):                       -100.29885515261655

 ENERGY| Total FORCE_EVAL ( QS ) energy [hartree]           -100.298855152616554

 OPT| **************************************************************************
 OPT| Step number                                                             11
 OPT| Optimization method                                                   BFGS
 OPT| Total energy [hartree]                                     -100.2988551526
 OPT| Internal pressure [bar]                                   -3110.7662378056
 OPT| Effective energy change [hartree]                            -0.0009442200
 OPT| Predicted energy change [hartree]                            -0.0006842393
 OPT| Scaling factor                                                0.0000000000
 OPT| Step size                                                     0.2049732241
 OPT| Trust radius                                                  0.4724315332
 OPT| Decrease in energy                                                     YES
 OPT| Used time [s]                                                        1.534
 OPT|
 OPT| Maximum step size                                             0.2049732241
 OPT| Convergence limit for maximum step size                       0.0030000000
 OPT| Maximum step size is converged                                          NO
 OPT|
 OPT| RMS step size                                                 0.0174161198
 OPT| Convergence limit for RMS step size                           0.0015000000
 OPT| RMS step size is converged                                              NO
 OPT|
 OPT| Maximum gradient                                              0.0110942203
 OPT| Convergence limit for maximum gradient                        0.0004500000
 OPT| Maximum gradient is converged                                           NO
 OPT|
 OPT| RMS gradient                                                  0.0022325866
 OPT| Convergence limit for RMS gradient                            0.0003000000
 OPT| RMS gradient is converged                                               NO
 OPT|
 OPT| Pressure deviation [bar]                                  -3110.7662378056
 OPT| Pressure tolerance [bar]                                    100.0000000000
 OPT| Pressure is converged                                                   NO
 OPT| **************************************************************************
 OPT| Estimated peak process memory after this step [MiB]                    176

 --------------------------
 OPTIMIZATION STEP:     12
 --------------------------

 CELL| Volume [angstrom^3]:                                           562.927145
 CELL| Vector a [angstrom]:       9.757     0.000     0.000   |a| =     9.757352
 CELL| Vector b [angstrom]:      -4.891     8.444     0.000   |b| =     9.757908
 CELL| Vector c [angstrom]:      -0.006     0.003     6.832   |c| =     6.832452
 CELL| Angle (b,c), alpha [degree]:                                    89.951020
 CELL| Angle (a,c), beta  [degree]:                                    90.048643
 CELL| Angle (a,b), gamma [degree]:                                   120.078373
 CELL| Numerically orthorhombic:                                              NO
 CELL| Periodicity                                                           XYZ

 Extrapolation method: ASPC

 Number of electrons:                                                        180
 Number of occupied orbitals:                                                 90
 Number of molecular orbitals:                                               162

 Number of orbital functions:                                                162
 Number of independent orbital functions:                                    162


 SCF WAVEFUNCTION OPTIMIZATION

[...]
 OPT| Estimated peak process memory after this step [MiB]                    176

 --------------------------
 OPTIMIZATION STEP:     20
 --------------------------

 CELL| Volume [angstrom^3]:                                           542.926947
 CELL| Vector a [angstrom]:       9.722     0.000     0.000   |a| =     9.722090
 CELL| Vector b [angstrom]:      -4.854     8.424     0.000   |b| =     9.722638
 CELL| Vector c [angstrom]:      -0.009     0.005     6.629   |c| =     6.629075
 CELL| Angle (b,c), alpha [degree]:                                    89.921791
 CELL| Angle (a,c), beta  [degree]:                                    90.077732
 CELL| Angle (a,b), gamma [degree]:                                   119.950907
 CELL| Numerically orthorhombic:                                              NO
 CELL| Periodicity                                                           XYZ

 Extrapolation method: ASPC

 Number of electrons:                                                        180
 Number of occupied orbitals:                                                 90
 Number of molecular orbitals:                                               162

 Number of orbital functions:                                                162
 Number of independent orbital functions:                                    162


 SCF WAVEFUNCTION OPTIMIZATION

  Step     Update method      Time    Convergence         Total energy    Change
  ------------------------------------------------------------------------------
     1 TBLite/Diag 0.40E+00    0.0     0.00043191      -100.3028893708 -1.00E+02
     2 TBLite/Diag 0.40E+00    0.0     0.00008343      -100.3028894037 -3.30E-08
     3 TBLite/Diag 0.40E+00    0.0     0.00005247      -100.3028894061 -2.40E-09
     4 TBLite/Diag 0.40E+00    0.0     0.00002152      -100.3028894124 -6.24E-09
     5 TBLite/Diag 0.40E+00    0.0     0.00000381      -100.3028894125 -1.03E-10
     6 TBLite/Diag 0.40E+00    0.0     0.00000053      -100.3028894125 -2.27E-12
     7 TBLite/Diag 0.40E+00    0.0     0.00000018      -100.3028894125 -2.84E-14
     8 TBLite/Diag 0.40E+00    0.0     0.00000006      -100.3028894125 -9.95E-14
     9 TBLite/Diag 0.40E+00    0.0     0.00000002      -100.3028894125 -7.11E-14
    10 TBLite/Diag 0.40E+00    0.0     2.9134E-10      -100.3028894125  9.95E-14

  *** SCF run converged in    10 steps ***


  Core Hamiltonian energy:                                   -101.81791889612900
  Repulsive potential energy:                                   1.35069419026463
  Electrostatic energy:                                         0.29974992970294
  Self-consistent dispersion energy:                           -0.16866374936986
  Non-self consistent dispersion energy:                        0.03324911307267
  Correction for halogen bonding:                               0.00000000000000
  Electronic entropic energy:                                  -0.00000000000000
  Fermi energy:                                                -0.34420622735631

  Total energy:                                              -100.30288941245863
  Total energy (extrapolated to T->0):                       -100.30288941245863

 ENERGY| Total FORCE_EVAL ( QS ) energy [hartree]           -100.302889412458626

 OPT| **************************************************************************
 OPT| Step number                                                             20
 OPT| Optimization method                                                   BFGS
 OPT| Total energy [hartree]                                     -100.3028894125
 OPT| Internal pressure [bar]                                      58.3558302258
 OPT| Effective energy change [hartree]                            -0.0000053635
 OPT| Predicted energy change [hartree]                            -0.0000047063
 OPT| Scaling factor                                                0.0000000000
 OPT| Step size                                                     0.0016685549
 OPT| Trust radius                                                  0.4724315332
 OPT| Decrease in energy                                                     YES
 OPT| Used time [s]                                                        1.577
 OPT|
 OPT| Maximum step size                                             0.0016685549
 OPT| Convergence limit for maximum step size                       0.0030000000
 OPT| Maximum step size is converged                                         YES
 OPT|
 OPT| RMS step size                                                 0.0003059520
 OPT| Convergence limit for RMS step size                           0.0015000000
 OPT| RMS step size is converged                                             YES
 OPT|
 OPT| Maximum gradient                                              0.0001057242
 OPT| Convergence limit for maximum gradient                        0.0004500000
 OPT| Maximum gradient is converged                                          YES
 OPT|
 OPT| RMS gradient                                                  0.0000339884
 OPT| Convergence limit for RMS gradient                            0.0003000000
 OPT| RMS gradient is converged                                              YES
 OPT|
 OPT| Pressure deviation [bar]                                     58.3558302258
 OPT| Pressure tolerance [bar]                                    100.0000000000
 OPT| Pressure is converged                                                  YES
 OPT| **************************************************************************
 OPT| Estimated peak process memory after this step [MiB]                    176

 *******************************************************************************
 ***                    GEOMETRY OPTIMIZATION COMPLETED                      ***
 *******************************************************************************

 write_final_structure: Optimization converged, writing XYZ file gladly:
  triazine_GFN2_gamma_cell_opt-FINAL-1_20.xyz

 write_final_structure: Optimization converged, writing CIF file gladly:
  triazine_GFN2_gamma_cell_opt-FINAL-1_20.cif

 write_final_structure: Done!

                    Reevaluating energy at the minimum

 CELL| Volume [angstrom^3]:                                           542.926947
 CELL| Vector a [angstrom]:       9.722     0.000     0.000   |a| =     9.722090
 CELL| Vector b [angstrom]:      -4.854     8.424     0.000   |b| =     9.722638
 CELL| Vector c [angstrom]:      -0.009     0.005     6.629   |c| =     6.629075
 CELL| Angle (b,c), alpha [degree]:                                    89.921791
 CELL| Angle (a,c), beta  [degree]:                                    90.077732
 CELL| Angle (a,b), gamma [degree]:                                   119.950907
 CELL| Numerically orthorhombic:                                              NO
 CELL| Periodicity                                                           XYZ

 Extrapolation method: ASPC

 Number of electrons:                                                        180
 Number of occupied orbitals:                                                 90
 Number of molecular orbitals:                                               162

 Number of orbital functions:                                                162
 Number of independent orbital functions:                                    162


 SCF WAVEFUNCTION OPTIMIZATION

  Step     Update method      Time    Convergence         Total energy    Change
  ------------------------------------------------------------------------------
     1 TBLite/Diag 0.40E+00    0.0     7.7022E-10      -100.3028894125 -1.00E+02

  *** SCF run converged in     1 steps ***


  Core Hamiltonian energy:                                   -101.81791889529836
  Repulsive potential energy:                                   1.35069419026463
  Electrostatic energy:                                         0.29974992885283
  Self-consistent dispersion energy:                           -0.16866374935050
  Non-self consistent dispersion energy:                        0.03324911307267
  Correction for halogen bonding:                               0.00000000000000
  Electronic entropic energy:                                  -0.00000000000000
  Fermi energy:                                                -0.34420622741025

  Total energy:                                              -100.30288941245873
  Total energy (extrapolated to T->0):                       -100.30288941245873

 ENERGY| Total FORCE_EVAL ( QS ) energy [hartree]           -100.302889412458725

 -------------------------------------------------------------------------------
 -                                                                             -
 -                                DBCSR STATISTICS                             -
 -                                                                             -
 -------------------------------------------------------------------------------
 COUNTER                                    TOTAL       BLAS       SMM       ACC
 flops     1 x     2 x     1               123120       0.0%    100.0%      0.0%     
 flops     1 x     2 x     4               984960       0.0%    100.0%      0.0%     
 flops     4 x     2 x     1               984960       0.0%    100.0%      0.0%     
 flops     4 x     2 x     4              7879680       0.0%    100.0%      0.0%     
 flops     1 x    32 x     1              9849600       0.0%    100.0%      0.0%     
 flops     1 x     1 x   162             17175240       0.0%    100.0%      0.0%     
 flops     1 x    32 x     4             78796800       0.0%    100.0%      0.0%     
 flops     4 x    32 x     1             78796800       0.0%    100.0%      0.0%     
 flops     1 x     4 x   162            130170240       0.0%    100.0%      0.0%     
 flops     4 x     1 x   162            130170240       0.0%    100.0%      0.0%     
 flops     4 x    32 x     4            630374400       0.0%    100.0%      0.0%     
 flops     4 x     4 x   162           1070288640       0.0%    100.0%      0.0%     
 flops inhomo. stacks                           0       0.0%      0.0%      0.0%
 flops total                         2.155595E+09       0.0%    100.0%      0.0%
 flops max/rank                      2.155595E+09       0.0%    100.0%      0.0%
 matmuls inhomo. stacks                         0       0.0%      0.0%      0.0%
 matmuls total                            2122470       0.0%    100.0%      0.0%
 number of processed stacks                  3330       0.0%    100.0%      0.0%
 average stack size                                     0.0     637.4       0.0
 marketing flops                     2.272210E+09
 -------------------------------------------------------------------------------
 # multiplications                            405
 max memory usage/rank              13.684007E+09
 # max total images/rank                        1
 # max 3D layers                                1
 # MPI messages exchanged                       0
 -------------------------------------------------------------------------------
 -                                                                             -
 -                      DBCSR MESSAGE PASSING PERFORMANCE                      -
 -                                                                             -
 -------------------------------------------------------------------------------
 ROUTINE             CALLS      AVE VOLUME [Bytes]
 MP_Bcast               13                     12.
 MP_Allreduce         1878                      8.
 MP_Alltoall         13387                 142685.
 MP_ISend             1620                  12560.
 MP_IRecv             1620                  12560.
 -------------------------------------------------------------------------------

 -------------------------------------------------------------------------------
 -                                                                             -
 -                          OFFLOAD MEMPOOL STATISTICS                         -
 -                                                                             -
 -------------------------------------------------------------------------------
 Memory consumption                Number of allocations  Used [MiB]  Size [MiB]
 Device                                                1           0           0
 Host                                                  1           0           0
 -------------------------------------------------------------------------------

 MEMORY| Estimated peak process memory [MiB]                                 176

 -------------------------------------------------------------------------------
 -                                                                             -
 -                         MESSAGE PASSING PERFORMANCE                         -
 -                                                                             -
 -------------------------------------------------------------------------------

 ROUTINE             CALLS      AVE VOLUME [Bytes]
 MP_Group               21
 MP_Bcast              618                    652.
 MP_Allreduce         9682                    400.
 MP_Sync               330
 MP_comm_split         309
 -------------------------------------------------------------------------------


 -------------------------------------------------------------------------------
 -                                                                             -
 -                           R E F E R E N C E S                               -
 -                                                                             -
 -------------------------------------------------------------------------------
 
 CP2K version 2026.1 (Development Version), the CP2K developers group (2026).
 CP2K is freely available from https://www.cp2k.org/ .
 
 M. Iannuzzi, J. Wilhelm, F. Stein, A. Bussy, H. Elgabarty, D. Golze, A. Hehn, 
 M. Graml, S. Marek, B. Sertcan Gökmen, C. Schran, H. Forbert, R. Z. 
 Khaliullin, A. Kozhevnikov, M. Taillefumier, R. Meli, V. V. Rybkin, M. Brehm, 
 R. Schade, O. Schütt, J. V. Pototschnig, H. Mirhosseini, A. Knüpfer, D. Marx, 
 M. Krack, J. Hutter, T. D. Kühne.
 J. Phys. Chem. B 130, 1237-1310 (2026).
 The CP2K Program Package Made Simple.
 https://doi.org/10.1021/acs.jpcb.5c05851

 A. Katbashev, M. Stahn, T. Rose, V. Alizadeh, M. Friede, C. Plett, P. 
 Steinbach, S. Ehlert.
 J. Phys. Chem. A 129, 2667-2682 (2025).
 Overview on Building Blocks and Applications of Efficient and Robust Extended 
 Tight Binding.
 https://doi.org/10.1021/acs.jpca.4c08263

 T. D. Kühne, M. Iannuzzi, M. Del Ben, V. V. Rybkin, P. Seewald, F. Stein, T. 
 Laino, R. Z. Khaliullin, O. Schütt, F. Schiffmann, D. Golze, J. Wilhelm, S. 
 Chulkov, M. H. Bani-Hashemian, V. Weber, U. Borstnik, M. Taillefumier, A. S. 
 Jakobovits, A. Lazzaro, H. Pabst, T. Müller, R. Schade, M. Guidon, S. 
 Andermatt, N. Holmberg, G. K. Schenter, A. Hehn, A. Bussy, F. Belleflamme, G. 
 Tabacchi, A. Glöß, M. Lass, I. Bethune, C. J. Mundy, C. Plessl, M. Watkins, 
 J. VandeVondele, M. Krack, J. Hutter.
 J. Chem. Phys. 152, 194103 (2020).
 CP2K: An electronic structure and molecular dynamics software package - 
 Quickstep: Efficient and accurate electronic structure calculations.
 https://doi.org/10.1063/5.0007045

 P. Pracht, E. Caldeweyher, S. Ehlert, S. Grimme.
 ChemRxiv, (2019).
 A Robust Non-Self-Consistent Tight-Binding Quantum Chemistry Method for large 
 Molecules.
 https://doi.org/10.26434/chemrxiv.8326202.v1

 S. Grimme, C. Bannwarth, P. Shushkov.
 J. Chem. Theory Comput. 13, 1989 (2017).
 A Robust and Accurate Tight-Binding Quantum Chemical Method for Structures, 
 Vibrational Frequencies, and Noncovalent Interactions of Large Molecular 
 Systems Parametrized for All spd-Block Elements (Z = 1-86).
 https://doi.org/10.1021/acs.jctc.7b00118

 O. Schuett, P. Messmer, J. Hutter, J. VandeVondele.
 Electronic Structure Calculations on Graphics Processing Units, 173-190 (2016).
 GPU-Accelerated Sparse Matrix-Matrix Multiplication for Linear Scaling Density 
 Functional Theory.
 https://doi.org/10.1002/9781118670712.ch8

 A. Heinecke, G. Henry, M. Hutchinson, H. Pabst.
 Proceedings of Intl. Supercomputing Conference, 981-991 (2016).
 LIBXSMM: Accelerating Small Matrix Multiplications by Runtime Code Generation.
 https://doi.org/10.1109/SC.2016.83

 U. Borstnik, J. VandeVondele, V. Weber, J. Hutter.
 Parallel Comput. 40, 47-58 (2014).
 Sparse matrix multiplication: The distributed block-compressed sparse row 
 library.
 https://doi.org/10.1016/j.parco.2014.03.012

 T. D. Kühne, M. Krack, F. R. Mohamed, M. Parrinello.
 Phys. Rev. Lett. 98, 066401 (2007).
 Efficient and accurate Car-Parrinello-like approach to Born-Oppenheimer 
 molecular dynamics.
 https://doi.org/10.1103/PhysRevLett.98.066401

 M. Frigo, S. G. Johnson.
 Proc. IEEE 93, 216-231 (2005).
 The design and implementation of FFTW3.
 https://doi.org/10.1109/JPROC.2004.840301

 J. Kolafa.
 J. Comput. Chem. 25, 335-342 (2004).
 Time-reversible always stable predictor-corrector method for molecular dynamics 
 of polarizable molecules.
 https://doi.org/10.1002/jcc.10385

 N. D. Mermin.
 Phys. Rev. 137, A1441-A1443 (1965).
 Thermal Properties of the Inhomogeneous Electron Gas.
 https://doi.org/10.1103/PhysRev.137.A1441


 -------------------------------------------------------------------------------
 -                                                                             -
 -                                T I M I N G                                  -
 -                                                                             -
 -------------------------------------------------------------------------------
 SUBROUTINE                       CALLS  ASD         SELF TIME        TOTAL TIME
                                MAXIMUM       AVERAGE  MAXIMUM  AVERAGE  MAXIMUM
 CP2K                                 1  1.0    0.002    0.002   46.159   46.159
 cp_cell_opt                          1  2.0    0.000    0.000   46.152   46.152
 geoopt_bfgs                          1  3.0    0.003    0.003   46.152   46.152
 cp_eval_at                          22  4.0    0.003    0.003   46.079   46.079
 qs_forces                           21  5.0    0.001    0.001   45.679   45.679
 build_tblite_matrices               43  7.0   33.825   33.825   34.640   34.640
 qs_energies                         22  6.0    0.001    0.001   15.504   15.504
 qs_energies_init_hamiltonians       22  7.0    0.000    0.000   11.368   11.368
 rebuild_ks_matrix                  289  9.8    0.000    0.000    8.303    8.303
 build_tblite_ks_matrix             289 10.8    8.294    8.294    8.302    8.302
 qs_ks_update_qs_env_forces          21  6.0    0.000    0.000    7.259    7.259
 scf_env_do_scf                      22  7.0    0.000    0.000    3.727    3.727
 scf_env_do_scf_inner_loop          268  8.0    0.506    0.506    3.725    3.725
 qs_scf_new_mos                     268  9.0    0.001    0.001    2.054    2.054
 qs_ks_update_qs_env                268  9.0    0.001    0.001    1.079    1.079
 -------------------------------------------------------------------------------

 The number of warnings for this run is : 0
 
 -------------------------------------------------------------------------------
  **** **** ******  **  PROGRAM ENDED AT                 2026-05-23 22:49:00.491
 ***** ** ***  *** **   PROGRAM RAN ON                                spark-c86c
 **    ****   ******    PROGRAM RAN BY                                  kuehne88
 ***** **    ** ** **   PROGRAM PROCESS ID                               2270982
  **** **  *******  **  PROGRAM STOPPED IN /home/kuehne88/periodic-gfn2-benchmar
                                           ks/X23b/runs/cellopt_gamma/GFN2/triaz
                                           ine_GFN2_gamma_cellopt
