 DBCSR| CPU Multiplication driver                                           XSMM (U)
 DBCSR| Multrec recursion limit                                              512 (U)
 DBCSR| Multiplication stack size                                           1000 (D)
 DBCSR| Maximum elements for images                                    UNLIMITED (U)
 DBCSR| Multiplicative factor virtual images                                   1 (U)
 DBCSR| Use multiplication densification                                       T (D)
 DBCSR| Multiplication size stacks                                             3 (U)
 DBCSR| Use memory pool for CPU allocation                                     F (U)
 DBCSR| Number of 3D layers                                               SINGLE (U)
 DBCSR| Use MPI memory allocation                                              F (U)
 DBCSR| Use RMA algorithm                                                      F (U)
 DBCSR| Use Communication thread                                               T (U)
 DBCSR| Communication thread load                                             87 (D)
 DBCSR| MPI: My process id                                                     0
 DBCSR| MPI: Number of processes                                               1
 DBCSR| OMP: Current number of threads                                         1
 DBCSR| OMP: Max number of threads                                             1
 DBCSR| Split modifier for TAS multiplication algorithm                  1.0E+00 (U)


  **** **** ******  **  PROGRAM STARTED AT               2026-05-23 22:48:26.784
 ***** ** ***  *** **   PROGRAM STARTED ON                            spark-c86c
 **    ****   ******    PROGRAM STARTED BY                              kuehne88
 ***** **    ** ** **   PROGRAM PROCESS ID                               2271521
  **** **  *******  **  PROGRAM STARTED IN /home/kuehne88/periodic-gfn2-benchmar
                                           ks/X23b/runs/cellopt_gamma/GFN2/urea_
                                           GFN2_gamma_cellopt

 CP2K| version string:                 CP2K version 2026.1 (Development Version)
 CP2K| source code revision number:                                   0622d442e4
 CP2K| cp2kflags: omp fftw3 libxc parallel scalapack mpi_f08 xsmm spglib libdftd
 CP2K|            4 dftd4_v3 mctc-lib tblite
 CP2K| is freely available from                            https://www.cp2k.org/
 CP2K| Program compiled at                                   2026-05-23 22:05:08
 CP2K| Program compiled on                                            spark-c86c
 CP2K| Program compiled for                                              aarch64
 CP2K| Data directory path    /home/kuehne88/cp2k-master-tblite-20260523/install
 CP2K| Input file name                               urea_GFN2_gamma_cellopt.inp

 GLOBAL| Force Environment number                                              1
 GLOBAL| Basis set file name                                           BASIS_SET
 GLOBAL| Potential file name                                           POTENTIAL
 GLOBAL| MM Potential file name                                     MM_POTENTIAL
 GLOBAL| Coordinate file name                                      __STD_INPUT__
 GLOBAL| Method name                                                        CP2K
 GLOBAL| Project name                                   urea_GFN2_gamma_cell_opt
 GLOBAL| Run type                                                       CELL_OPT
 GLOBAL| FFT library                                                       FFTW3
 GLOBAL| Diagonalization library                                       ScaLAPACK
 GLOBAL| Cholesky decomposition library                                ScaLAPACK
 GLOBAL| DGEMM library                                                      BLAS
 GLOBAL| Direct generalized diagonalization requested                          F
 GLOBAL| Orthonormality check for eigenvectors                          DISABLED
 GLOBAL| Matrix multiplication library                                 ScaLAPACK
 GLOBAL| All-to-all communication in single precision                          F
 GLOBAL| FFTs using library dependent lengths                                  F
 GLOBAL| Grid backend                                                       AUTO
 GLOBAL| Global print level                                                  LOW
 GLOBAL| MPI I/O enabled                                                       T
 GLOBAL| Total number of message passing processes                             1
 GLOBAL| Number of distributed systems (nodes)                                 1
 GLOBAL| Number of threads for this process                                    1
 GLOBAL| This output is from process                                           0
 GLOBAL| OpenMP stack size per thread (OMP_STACKSIZE)                    default
 GLOBAL| CPU model name                                                  UNKNOWN
 GLOBAL| CPUID                                                              2200
 GLOBAL| Compiled for CPUID                                                 2000

 *** HINT in environment.F:970 :: The compiler target flags (arm_arch64)   ***
 *** used to build this binary cannot exploit all extensions of this CPU   ***
 *** model (arm_sve256). Consider compiler target flags as part of FCFLAGS ***
 *** and CFLAGS (ARCH file).                                               ***


 MEMORY| system memory details [Kb]
 MEMORY|                        rank 0           min           max       average
 MEMORY| MemTotal            125508532     125508532     125508532     125508532
 MEMORY| MemFree             104300056     104300056     104300056     104300056
 MEMORY| Buffers                868680        868680        868680        868680
 MEMORY| Cached               14104004      14104004      14104004      14104004
 MEMORY| Slab                  1600256       1600256       1600256       1600256
 MEMORY| SReclaimable           921912        921912        921912        921912
 MEMORY| MemLikelyFree       120194652     120194652     120194652     120194652


 GENERATE|  Preliminary Number of Bonds generated:                             0
 GENERATE|  Achieved consistency in connectivity generation.


                  #####   #####        #     #   #     #       #          
                 #     # #     #      #    ##### #     #   # #####  ####  
                 #     # #           #       #   ###   #       #   #    # 
                 #     #  #####     #        #   #  #  #   #   #   ###### 
                 #   # #       #   #         #   #   # #   #   #   #      
                 #    #  #     #  #          #   #  #  # # #   #    #   # 
                  #### #  #####  #           #   ###   ##  #   #     ###  

                                   GFN2-xTB  
                                 Version 0.0                       
                            Johann V. Pototschnig                  



 TOTAL NUMBERS AND MAXIMUM NUMBERS

  Total number of            - Atomic kinds:                                   4
                             - Atoms:                                         16
                             - Shell sets:                                    24
                             - Shells:                                        24
                             - Primitive Cartesian functions:                 88
                             - Cartesian basis functions:                     40
                             - Spherical basis functions:                     40

  Maximum angular momentum of the orbital basis functions:                     1


 SCF PARAMETERS         Density guess:                                     MOPAC
                        --------------------------------------------------------
                        max_scf:                                             300
                        max_scf_history:                                       0
                        max_diis:                                              4
                        --------------------------------------------------------
                        eps_scf:                                        1.00E-09
                        eps_scf_history:                                0.00E+00
                        eps_diis:                                       1.00E-01
                        eps_eigval:                                     1.00E-05
                        --------------------------------------------------------
                        level_shift [a.u.]:                             0.000000
                        added MOs                                        16    0
                        --------------------------------------------------------
                        Mixing method:                           DIRECT_P_MIXING
                        --------------------------------------------------------
                        Smear method:                                FERMI_DIRAC
                        Electronic temperature [K]:                        300.0
                        Electronic temperature [a.u.]:                  9.50E-04
                        Accuracy threshold:                             1.00E-06
                        --------------------------------------------------------
                        No outer SCF

 CELL_OPT| Pressure tolerance [bar]:                                       100.0
 CELL_OPT| Keep volume of cell:                                               NO
 CELL_OPT| Keep angles between the cell vectors:                              NO
 CELL_OPT| Keep cell symmetry:                                                NO
 CELL_OPT| Constraint:                                                      NONE

 BFGS| Use rational function optimization for step estimation:                NO
 BFGS| Use model Hessian for initial guess:                                   NO
 BFGS| Restart Hessian:                                                       NO
 BFGS| Trust radius:                                                       0.472

 *******************************************************************************
 ***                     STARTING   CELL   OPTIMIZATION                      ***
 ***                                   BFGS                                  ***
 *******************************************************************************

 CELL| Volume [angstrom^3]:                                           145.059850
 CELL| Vector a [angstrom]:       5.565     0.000     0.000   |a| =     5.565000
 CELL| Vector b [angstrom]:       0.000     5.565     0.000   |b| =     5.565000
 CELL| Vector c [angstrom]:       0.000     0.000     4.684   |c| =     4.684000
 CELL| Angle (b,c), alpha [degree]:                                    90.000000
 CELL| Angle (a,c), beta  [degree]:                                    90.000000
 CELL| Angle (a,b), gamma [degree]:                                    90.000000
 CELL| Numerically orthorhombic:                                             YES
 CELL| Periodicity                                                           XYZ

 Extrapolation method: initial_guess

 Number of electrons:                                                         48
 Number of occupied orbitals:                                                 24
 Number of molecular orbitals:                                                40

 Number of orbital functions:                                                 40
 Number of independent orbital functions:                                     40


 SCF WAVEFUNCTION OPTIMIZATION

  Step     Update method      Time    Convergence         Total energy    Change
  ------------------------------------------------------------------------------
     1 TBLite/Diag 0.40E+00    0.0     1.05313884       -27.9643868410 -2.80E+01
     2 TBLite/Diag 0.40E+00    0.0     0.23798130       -28.2423392364 -2.78E-01
     3 TBLite/Diag 0.40E+00    0.0     0.06837672       -28.2513090790 -8.97E-03
     4 TBLite/Diag 0.40E+00    0.0     0.03948606       -28.2560426762 -4.73E-03
     5 TBLite/Diag 0.40E+00    0.0     0.01930287       -28.2568622314 -8.20E-04
     6 TBLite/Diag 0.40E+00    0.0     0.00789297       -28.2570607734 -1.99E-04
     7 TBLite/Diag 0.40E+00    0.0     0.00330779       -28.2570532964  7.48E-06
     8 TBLite/Diag 0.40E+00    0.0     0.00154631       -28.2570702224 -1.69E-05
     9 TBLite/Diag 0.40E+00    0.0     0.00014141       -28.2570705031 -2.81E-07
    10 TBLite/Diag 0.40E+00    0.0     0.00011457       -28.2570705683 -6.52E-08
    11 TBLite/Diag 0.40E+00    0.0     0.00001093       -28.2570705685 -1.60E-10
    12 TBLite/Diag 0.40E+00    0.0     0.00000184       -28.2570705685 -3.29E-11
    13 TBLite/Diag 0.40E+00    0.0     0.00000290       -28.2570705685 -3.89E-11
    14 TBLite/Diag 0.40E+00    0.0     0.00000004       -28.2570705685 -1.78E-14
    15 TBLite/Diag 0.40E+00    0.0     0.00000001       -28.2570705685 -1.42E-14
    16 TBLite/Diag 0.40E+00    0.0     0.00000001       -28.2570705685  1.07E-14
    17 TBLite/Diag 0.40E+00    0.0     5.0536E-10       -28.2570705685 -3.55E-14

  *** SCF run converged in    17 steps ***


  Core Hamiltonian energy:                                    -28.63427782156190
  Repulsive potential energy:                                   0.30155019272398
  Electrostatic energy:                                         0.10261369249383
  Self-consistent dispersion energy:                           -0.03414260624440
  Non-self consistent dispersion energy:                        0.00718597404136
  Correction for halogen bonding:                               0.00000000000000
  Electronic entropic energy:                                  -0.00000000000000
  Fermi energy:                                                -0.21828835612913

  Total energy:                                               -28.25707056854714
  Total energy (extrapolated to T->0):                        -28.25707056854714

 ENERGY| Total FORCE_EVAL ( QS ) energy [hartree]            -28.257070568547135

 OPT| **************************************************************************
 OPT| Step number                                                              0
 OPT| Optimization method                                                   BFGS
 OPT| Total energy [hartree]                                      -28.2570705685
 OPT| Internal pressure [bar]                                   -1708.6377318893
 OPT| Used time [s]                                                        0.854
 OPT| **************************************************************************
 OPT| Estimated peak process memory [MiB]                                    161

 --------------------------
 OPTIMIZATION STEP:      1
 --------------------------

 CELL| Volume [angstrom^3]:                                           145.027483
 CELL| Vector a [angstrom]:       5.565     0.000     0.000   |a| =     5.565037
 CELL| Vector b [angstrom]:       0.000     5.565     0.000   |b| =     5.565037
 CELL| Vector c [angstrom]:       0.000     0.000     4.683   |c| =     4.682893
 CELL| Angle (b,c), alpha [degree]:                                    90.000000
 CELL| Angle (a,c), beta  [degree]:                                    90.000000
 CELL| Angle (a,b), gamma [degree]:                                    89.999991
 CELL| Numerically orthorhombic:                                              NO
 CELL| Periodicity                                                           XYZ

 Extrapolation method: ASPC

 Number of electrons:                                                         48
 Number of occupied orbitals:                                                 24
 Number of molecular orbitals:                                                40

 Number of orbital functions:                                                 40
 Number of independent orbital functions:                                     40


 SCF WAVEFUNCTION OPTIMIZATION

  Step     Update method      Time    Convergence         Total energy    Change
  ------------------------------------------------------------------------------
     1 TBLite/Diag 0.40E+00    0.0     0.03005231       -28.2576344954 -2.83E+01
     2 TBLite/Diag 0.40E+00    0.0     0.00648388       -28.2579327958 -2.98E-04
     3 TBLite/Diag 0.40E+00    0.0     0.00132738       -28.2579442718 -1.15E-05
     4 TBLite/Diag 0.40E+00    0.0     0.00051369       -28.2579450608 -7.89E-07
     5 TBLite/Diag 0.40E+00    0.0     0.00032761       -28.2579457019 -6.41E-07
     6 TBLite/Diag 0.40E+00    0.0     0.00004769       -28.2579457092 -7.34E-09
     7 TBLite/Diag 0.40E+00    0.0     0.00000465       -28.2579457093 -6.55E-11
     8 TBLite/Diag 0.40E+00    0.0     0.00000081       -28.2579457093 -3.86E-12
     9 TBLite/Diag 0.40E+00    0.0     0.00000048       -28.2579457093 -5.33E-13
    10 TBLite/Diag 0.40E+00    0.0     0.00000012       -28.2579457093 -7.11E-15
    11 TBLite/Diag 0.40E+00    0.0     0.00000006       -28.2579457093 -4.97E-14
    12 TBLite/Diag 0.40E+00    0.0     1.4233E-09       -28.2579457093  7.11E-15
    13 TBLite/Diag 0.40E+00    0.0     8.8596E-10       -28.2579457093 -1.07E-14

  *** SCF run converged in    13 steps ***


  Core Hamiltonian energy:                                    -28.63564805508575
  Repulsive potential energy:                                   0.30514472258374
  Electrostatic energy:                                         0.09953039010672
  Self-consistent dispersion energy:                           -0.03416265914663
  Non-self consistent dispersion energy:                        0.00718989228038
  Correction for halogen bonding:                               0.00000000000000
  Electronic entropic energy:                                  -0.00000000000000
  Fermi energy:                                                -0.21437510908594

  Total energy:                                               -28.25794570926154
  Total energy (extrapolated to T->0):                        -28.25794570926154

 ENERGY| Total FORCE_EVAL ( QS ) energy [hartree]            -28.257945709261541

 OPT| **************************************************************************
 OPT| Step number                                                              1
 OPT| Optimization method                                                   BFGS
 OPT| Total energy [hartree]                                      -28.2579457093
 OPT| Internal pressure [bar]                                    5930.9811834207
 OPT| Effective energy change [hartree]                            -0.0008751407
 OPT| Predicted energy change [hartree]                            -0.0010275328
 OPT| Scaling factor                                                0.0000000000
 OPT| Step size                                                     0.0227837081
 OPT| Trust radius                                                  0.4724315332
 OPT| Decrease in energy                                                     YES
 OPT| Used time [s]                                                        0.848
 OPT|
 OPT| Maximum step size                                             0.0227837081
 OPT| Convergence limit for maximum step size                       0.0030000000
 OPT| Maximum step size is converged                                          NO
 OPT|
 OPT| RMS step size                                                 0.0061690170
 OPT| Convergence limit for RMS step size                           0.0015000000
 OPT| RMS step size is converged                                              NO
 OPT|
 OPT| Maximum gradient                                              0.0075620427
 OPT| Convergence limit for maximum gradient                        0.0004500000
 OPT| Maximum gradient is converged                                           NO
 OPT|
 OPT| RMS gradient                                                  0.0020082831
 OPT| Convergence limit for RMS gradient                            0.0003000000
 OPT| RMS gradient is converged                                               NO
 OPT|
 OPT| Pressure deviation [bar]                                   5930.9811834207
 OPT| Pressure tolerance [bar]                                    100.0000000000
 OPT| Pressure is converged                                                   NO
 OPT| **************************************************************************
 OPT| Estimated peak process memory after this step [MiB]                    162

 --------------------------
 OPTIMIZATION STEP:      2
 --------------------------

 CELL| Volume [angstrom^3]:                                           145.122477
 CELL| Vector a [angstrom]:       5.565     0.000     0.000   |a| =     5.564873
 CELL| Vector b [angstrom]:       0.000     5.565     0.000   |b| =     5.564873
 CELL| Vector c [angstrom]:      -0.000     0.000     4.686   |c| =     4.686235
 CELL| Angle (b,c), alpha [degree]:                                    90.000000
 CELL| Angle (a,c), beta  [degree]:                                    90.000000
 CELL| Angle (a,b), gamma [degree]:                                    89.999976
 CELL| Numerically orthorhombic:                                              NO
 CELL| Periodicity                                                           XYZ

 Extrapolation method: ASPC

 Number of electrons:                                                         48
 Number of occupied orbitals:                                                 24
 Number of molecular orbitals:                                                40

 Number of orbital functions:                                                 40
 Number of independent orbital functions:                                     40


 SCF WAVEFUNCTION OPTIMIZATION

  Step     Update method      Time    Convergence         Total energy    Change
  ------------------------------------------------------------------------------
     1 TBLite/Diag 0.40E+00    0.0     0.00622489       -28.2580455638 -2.83E+01
     2 TBLite/Diag 0.40E+00    0.0     0.00128610       -28.2580571601 -1.16E-05
     3 TBLite/Diag 0.40E+00    0.0     0.00024062       -28.2580574821 -3.22E-07
     4 TBLite/Diag 0.40E+00    0.0     0.00013287       -28.2580575058 -2.38E-08
     5 TBLite/Diag 0.40E+00    0.0     0.00006349       -28.2580575243 -1.84E-08
     6 TBLite/Diag 0.40E+00    0.0     0.00000942       -28.2580575246 -3.06E-10
     7 TBLite/Diag 0.40E+00    0.0     0.00000071       -28.2580575246 -9.95E-13
     8 TBLite/Diag 0.40E+00    0.0     0.00000008       -28.2580575246  0.00E+00
     9 TBLite/Diag 0.40E+00    0.0     0.00000003       -28.2580575246 -2.13E-14
    10 TBLite/Diag 0.40E+00    0.0     0.00000001       -28.2580575246  1.42E-14
    11 TBLite/Diag 0.40E+00    0.0     2.4981E-09       -28.2580575246 -1.42E-14
    12 TBLite/Diag 0.40E+00    0.0     5.2314E-10       -28.2580575246  2.13E-14

  *** SCF run converged in    12 steps ***


  Core Hamiltonian energy:                                    -28.63425930699927
  Repulsive potential energy:                                   0.30291263445463
  Electrostatic energy:                                         0.10024495252030
  Self-consistent dispersion energy:                           -0.03413625577929
  Non-self consistent dispersion energy:                        0.00718045123565
  Correction for halogen bonding:                               0.00000000000000
  Electronic entropic energy:                                  -0.00000000000000
  Fermi energy:                                                -0.21471479426632

  Total energy:                                               -28.25805752456798
  Total energy (extrapolated to T->0):                        -28.25805752456798

 ENERGY| Total FORCE_EVAL ( QS ) energy [hartree]            -28.258057524567985

 OPT| **************************************************************************
 OPT| Step number                                                              2
 OPT| Optimization method                                                   BFGS
 OPT| Total energy [hartree]                                      -28.2580575246
 OPT| Internal pressure [bar]                                    3254.8351142468
 OPT| Effective energy change [hartree]                            -0.0001118153
 OPT| Predicted energy change [hartree]                            -0.0000827851
 OPT| Scaling factor                                                0.0000000000
 OPT| Step size                                                     0.0063164415
 OPT| Trust radius                                                  0.4724315332
 OPT| Decrease in energy                                                     YES
 OPT| Used time [s]                                                        0.846
 OPT|
 OPT| Maximum step size                                             0.0063164415
 OPT| Convergence limit for maximum step size                       0.0030000000
 OPT| Maximum step size is converged                                          NO
 OPT|
 OPT| RMS step size                                                 0.0015524223
 OPT| Convergence limit for RMS step size                           0.0015000000
 OPT| RMS step size is converged                                              NO
 OPT|
 OPT| Maximum gradient                                              0.0042224317
 OPT| Convergence limit for maximum gradient                        0.0004500000
 OPT| Maximum gradient is converged                                           NO
 OPT|
 OPT| RMS gradient                                                  0.0010551354
 OPT| Convergence limit for RMS gradient                            0.0003000000
 OPT| RMS gradient is converged                                               NO
 OPT|
 OPT| Pressure deviation [bar]                                   3254.8351142468
 OPT| Pressure tolerance [bar]                                    100.0000000000
 OPT| Pressure is converged                                                   NO
 OPT| **************************************************************************
 OPT| Estimated peak process memory after this step [MiB]                    162

 --------------------------
 OPTIMIZATION STEP:      3
 --------------------------

 CELL| Volume [angstrom^3]:                                           145.275889
 CELL| Vector a [angstrom]:       5.565     0.000     0.000   |a| =     5.564585
 CELL| Vector b [angstrom]:       0.000     5.565     0.000   |b| =     5.564585
 CELL| Vector c [angstrom]:      -0.000    -0.000     4.692   |c| =     4.691675
 CELL| Angle (b,c), alpha [degree]:                                    90.000000
 CELL| Angle (a,c), beta  [degree]:                                    90.000000
 CELL| Angle (a,b), gamma [degree]:                                    89.999945
 CELL| Numerically orthorhombic:                                              NO
 CELL| Periodicity                                                           XYZ

 Extrapolation method: ASPC

 Number of electrons:                                                         48
 Number of occupied orbitals:                                                 24
 Number of molecular orbitals:                                                40

 Number of orbital functions:                                                 40
 Number of independent orbital functions:                                     40


 SCF WAVEFUNCTION OPTIMIZATION

  Step     Update method      Time    Convergence         Total energy    Change
  ------------------------------------------------------------------------------
     1 TBLite/Diag 0.40E+00    0.0     0.00323971       -28.2581643140 -2.83E+01
     2 TBLite/Diag 0.40E+00    0.0     0.00060114       -28.2581669260 -2.61E-06
     3 TBLite/Diag 0.40E+00    0.0     0.00014143       -28.2581670114 -8.54E-08
     4 TBLite/Diag 0.40E+00    0.0     0.00008044       -28.2581670196 -8.23E-09
     5 TBLite/Diag 0.40E+00    0.0     0.00003957       -28.2581670259 -6.23E-09
     6 TBLite/Diag 0.40E+00    0.0     0.00000558       -28.2581670260 -1.16E-10
     7 TBLite/Diag 0.40E+00    0.0     0.00000128       -28.2581670260 -3.15E-12
     8 TBLite/Diag 0.40E+00    0.0     0.00000018       -28.2581670260 -9.59E-14
     9 TBLite/Diag 0.40E+00    0.0     0.00000005       -28.2581670260 -1.07E-14
    10 TBLite/Diag 0.40E+00    0.0     0.00000001       -28.2581670260  5.33E-14
    11 TBLite/Diag 0.40E+00    0.0     3.4416E-09       -28.2581670260 -2.13E-14
    12 TBLite/Diag 0.40E+00    0.0     1.9159E-10       -28.2581670260 -2.84E-14

  *** SCF run converged in    12 steps ***


  Core Hamiltonian energy:                                    -28.63293235489083
  Repulsive potential energy:                                   0.30101838541918
  Electrostatic energy:                                         0.10067809227841
  Self-consistent dispersion energy:                           -0.03409710216893
  Non-self consistent dispersion energy:                        0.00716595337695
  Correction for halogen bonding:                               0.00000000000000
  Electronic entropic energy:                                  -0.00000000000000
  Fermi energy:                                                -0.21508093591540

  Total energy:                                               -28.25816702598523
  Total energy (extrapolated to T->0):                        -28.25816702598523

 ENERGY| Total FORCE_EVAL ( QS ) energy [hartree]            -28.258167025985227

 OPT| **************************************************************************
 OPT| Step number                                                              3
 OPT| Optimization method                                                   BFGS
 OPT| Total energy [hartree]                                      -28.2581670260
 OPT| Internal pressure [bar]                                     719.2039283636
 OPT| Effective energy change [hartree]                            -0.0001095014
 OPT| Predicted energy change [hartree]                            -0.0000648193
 OPT| Scaling factor                                                0.0000000000
 OPT| Step size                                                     0.0102792030
 OPT| Trust radius                                                  0.4724315332
 OPT| Decrease in energy                                                     YES
 OPT| Used time [s]                                                        0.844
 OPT|
 OPT| Maximum step size                                             0.0102792030
 OPT| Convergence limit for maximum step size                       0.0030000000
 OPT| Maximum step size is converged                                          NO
 OPT|
 OPT| RMS step size                                                 0.0023523522
 OPT| Convergence limit for RMS step size                           0.0015000000
 OPT| RMS step size is converged                                              NO
 OPT|
 OPT| Maximum gradient                                              0.0042693103
 OPT| Convergence limit for maximum gradient                        0.0004500000
 OPT| Maximum gradient is converged                                           NO
 OPT|
 OPT| RMS gradient                                                  0.0012379265
 OPT| Convergence limit for RMS gradient                            0.0003000000
 OPT| RMS gradient is converged                                               NO
 OPT|
 OPT| Pressure deviation [bar]                                    719.2039283636
 OPT| Pressure tolerance [bar]                                    100.0000000000
 OPT| Pressure is converged                                                   NO
 OPT| **************************************************************************
 OPT| Estimated peak process memory after this step [MiB]                    162

 --------------------------
 OPTIMIZATION STEP:      4
 --------------------------

 CELL| Volume [angstrom^3]:                                           145.835535
 CELL| Vector a [angstrom]:       5.563     0.000     0.000   |a| =     5.562899
 CELL| Vector b [angstrom]:       0.000     5.563     0.000   |b| =     5.562899
 CELL| Vector c [angstrom]:       0.000     0.000     4.713   |c| =     4.712605
 CELL| Angle (b,c), alpha [degree]:                                    90.000000
 CELL| Angle (a,c), beta  [degree]:                                    90.000000
 CELL| Angle (a,b), gamma [degree]:                                    89.999820
 CELL| Numerically orthorhombic:                                              NO
 CELL| Periodicity                                                           XYZ

 Extrapolation method: ASPC

 Number of electrons:                                                         48
 Number of occupied orbitals:                                                 24
 Number of molecular orbitals:                                                40

 Number of orbital functions:                                                 40
 Number of independent orbital functions:                                     40


 SCF WAVEFUNCTION OPTIMIZATION

  Step     Update method      Time    Convergence         Total energy    Change
  ------------------------------------------------------------------------------
     1 TBLite/Diag 0.40E+00    0.0     0.00703400       -28.2585081197 -2.83E+01
     2 TBLite/Diag 0.40E+00    0.0     0.00106712       -28.2585163471 -8.23E-06
     3 TBLite/Diag 0.40E+00    0.0     0.00030645       -28.2585166536 -3.07E-07
     4 TBLite/Diag 0.40E+00    0.0     0.00019368       -28.2585167167 -6.30E-08
     5 TBLite/Diag 0.40E+00    0.0     0.00008490       -28.2585167445 -2.79E-08
     6 TBLite/Diag 0.40E+00    0.0     0.00001190       -28.2585167451 -6.13E-10
     7 TBLite/Diag 0.40E+00    0.0     0.00000431       -28.2585167452 -3.12E-11
     8 TBLite/Diag 0.40E+00    0.0     0.00000037       -28.2585167452 -4.69E-13
     9 TBLite/Diag 0.40E+00    0.0     0.00000018       -28.2585167452 -9.95E-14
    10 TBLite/Diag 0.40E+00    0.0     0.00000003       -28.2585167452  0.00E+00
    11 TBLite/Diag 0.40E+00    0.0     0.00000001       -28.2585167452  2.49E-14
    12 TBLite/Diag 0.40E+00    0.0     8.6179E-10       -28.2585167452  1.42E-14

  *** SCF run converged in    12 steps ***


  Core Hamiltonian energy:                                    -28.62978325751893
  Repulsive potential energy:                                   0.29641657165113
  Electrostatic energy:                                         0.10169339963287
  Self-consistent dispersion energy:                           -0.03395815252577
  Non-self consistent dispersion energy:                        0.00711469359364
  Correction for halogen bonding:                               0.00000000000000
  Electronic entropic energy:                                  -0.00000000000000
  Fermi energy:                                                -0.21612759652389

  Total energy:                                               -28.25851674516707
  Total energy (extrapolated to T->0):                        -28.25851674516707

 ENERGY| Total FORCE_EVAL ( QS ) energy [hartree]            -28.258516745167071

 OPT| **************************************************************************
 OPT| Step number                                                              4
 OPT| Optimization method                                                   BFGS
 OPT| Total energy [hartree]                                      -28.2585167452
 OPT| Internal pressure [bar]                                   -6260.9485547740
 OPT| Effective energy change [hartree]                            -0.0003497192
 OPT| Predicted energy change [hartree]                            -0.0002302511
 OPT| Scaling factor                                                0.0000000000
 OPT| Step size                                                     0.0395525209
 OPT| Trust radius                                                  0.4724315332
 OPT| Decrease in energy                                                     YES
 OPT| Used time [s]                                                        0.838
 OPT|
 OPT| Maximum step size                                             0.0395525209
 OPT| Convergence limit for maximum step size                       0.0030000000
 OPT| Maximum step size is converged                                          NO
 OPT|
 OPT| RMS step size                                                 0.0097898950
 OPT| Convergence limit for RMS step size                           0.0015000000
 OPT| RMS step size is converged                                              NO
 OPT|
 OPT| Maximum gradient                                              0.0088849181
 OPT| Convergence limit for maximum gradient                        0.0004500000
 OPT| Maximum gradient is converged                                           NO
 OPT|
 OPT| RMS gradient                                                  0.0024062179
 OPT| Convergence limit for RMS gradient                            0.0003000000
 OPT| RMS gradient is converged                                               NO
 OPT|
 OPT| Pressure deviation [bar]                                  -6260.9485547740
 OPT| Pressure tolerance [bar]                                    100.0000000000
 OPT| Pressure is converged                                                   NO
 OPT| **************************************************************************
 OPT| Estimated peak process memory after this step [MiB]                    162

 --------------------------
 OPTIMIZATION STEP:      5
 --------------------------

 CELL| Volume [angstrom^3]:                                           146.486561
 CELL| Vector a [angstrom]:       5.560     0.000     0.000   |a| =     5.559516
 CELL| Vector b [angstrom]:       0.000     5.560     0.000   |b| =     5.559516
 CELL| Vector c [angstrom]:      -0.000    -0.000     4.739   |c| =     4.739405
 CELL| Angle (b,c), alpha [degree]:                                    90.000000
 CELL| Angle (a,c), beta  [degree]:                                    90.000000
 CELL| Angle (a,b), gamma [degree]:                                    89.999665
 CELL| Numerically orthorhombic:                                              NO
 CELL| Periodicity                                                           XYZ

 Extrapolation method: ASPC

 Number of electrons:                                                         48
 Number of occupied orbitals:                                                 24
 Number of molecular orbitals:                                                40

 Number of orbital functions:                                                 40
 Number of independent orbital functions:                                     40


 SCF WAVEFUNCTION OPTIMIZATION

  Step     Update method      Time    Convergence         Total energy    Change
  ------------------------------------------------------------------------------
     1 TBLite/Diag 0.40E+00    0.0     0.00734738       -28.2588926730 -2.83E+01
     2 TBLite/Diag 0.40E+00    0.0     0.00048904       -28.2588941340 -1.46E-06
     3 TBLite/Diag 0.40E+00    0.0     0.00013948       -28.2588942300 -9.60E-08
     4 TBLite/Diag 0.40E+00    0.0     0.00008893       -28.2588942501 -2.01E-08
     5 TBLite/Diag 0.40E+00    0.0     0.00003711       -28.2588942547 -4.66E-09
     6 TBLite/Diag 0.40E+00    0.0     0.00000862       -28.2588942550 -2.40E-10
     7 TBLite/Diag 0.40E+00    0.0     0.00000273       -28.2588942550 -1.22E-11
     8 TBLite/Diag 0.40E+00    0.0     0.00000026       -28.2588942550 -3.45E-13
     9 TBLite/Diag 0.40E+00    0.0     0.00000007       -28.2588942550  1.78E-14
    10 TBLite/Diag 0.40E+00    0.0     0.00000002       -28.2588942550 -3.55E-15
    11 TBLite/Diag 0.40E+00    0.0     0.00000001       -28.2588942550 -2.13E-14
    12 TBLite/Diag 0.40E+00    0.0     8.3355E-10       -28.2588942550  0.00E+00

  *** SCF run converged in    12 steps ***


  Core Hamiltonian energy:                                    -28.62832990488809
  Repulsive potential energy:                                   0.29365912807780
  Electrostatic energy:                                         0.10252303633330
  Self-consistent dispersion energy:                           -0.03380057711801
  Non-self consistent dispersion energy:                        0.00705406262222
  Correction for halogen bonding:                               0.00000000000000
  Electronic entropic energy:                                  -0.00000000000000
  Fermi energy:                                                -0.21688502269536

  Total energy:                                               -28.25889425497278
  Total energy (extrapolated to T->0):                        -28.25889425497278

 ENERGY| Total FORCE_EVAL ( QS ) energy [hartree]            -28.258894254972777

 OPT| **************************************************************************
 OPT| Step number                                                              5
 OPT| Optimization method                                                   BFGS
 OPT| Total energy [hartree]                                      -28.2588942550
 OPT| Internal pressure [bar]                                  -11717.0268230783
 OPT| Effective energy change [hartree]                            -0.0003775098
 OPT| Predicted energy change [hartree]                            -0.0002483263
 OPT| Scaling factor                                                0.0000000000
 OPT| Step size                                                     0.0506447397
 OPT| Trust radius                                                  0.4724315332
 OPT| Decrease in energy                                                     YES
 OPT| Used time [s]                                                        0.836
 OPT|
 OPT| Maximum step size                                             0.0506447397
 OPT| Convergence limit for maximum step size                       0.0030000000
 OPT| Maximum step size is converged                                          NO
 OPT|
 OPT| RMS step size                                                 0.0137849016
 OPT| Convergence limit for RMS step size                           0.0015000000
 OPT| RMS step size is converged                                              NO
 OPT|
 OPT| Maximum gradient                                              0.0104714626
 OPT| Convergence limit for maximum gradient                        0.0004500000
 OPT| Maximum gradient is converged                                           NO
 OPT|
 OPT| RMS gradient                                                  0.0029202668
 OPT| Convergence limit for RMS gradient                            0.0003000000
 OPT| RMS gradient is converged                                               NO
 OPT|
 OPT| Pressure deviation [bar]                                 -11717.0268230783
 OPT| Pressure tolerance [bar]                                    100.0000000000
 OPT| Pressure is converged                                                   NO
 OPT| **************************************************************************
 OPT| Estimated peak process memory after this step [MiB]                    162

 --------------------------
 OPTIMIZATION STEP:      6
 --------------------------

 CELL| Volume [angstrom^3]:                                           147.152581
 CELL| Vector a [angstrom]:       5.553     0.000     0.000   |a| =     5.553156
 CELL| Vector b [angstrom]:       0.000     5.553     0.000   |b| =     5.553156
 CELL| Vector c [angstrom]:      -0.000    -0.000     4.772   |c| =     4.771865
 CELL| Angle (b,c), alpha [degree]:                                    90.000000
 CELL| Angle (a,c), beta  [degree]:                                    90.000000
 CELL| Angle (a,b), gamma [degree]:                                    89.999502
 CELL| Numerically orthorhombic:                                              NO
 CELL| Periodicity                                                           XYZ

 Extrapolation method: ASPC

 Number of electrons:                                                         48
 Number of occupied orbitals:                                                 24
 Number of molecular orbitals:                                                40

 Number of orbital functions:                                                 40
 Number of independent orbital functions:                                     40


 SCF WAVEFUNCTION OPTIMIZATION

  Step     Update method      Time    Convergence         Total energy    Change
  ------------------------------------------------------------------------------
     1 TBLite/Diag 0.40E+00    0.0     0.00984118       -28.2593308408 -2.83E+01
     2 TBLite/Diag 0.40E+00    0.0     0.00086555       -28.2593330593 -2.22E-06
     3 TBLite/Diag 0.40E+00    0.0     0.00040278       -28.2593331219 -6.25E-08
     4 TBLite/Diag 0.40E+00    0.0     0.00022159       -28.2593333339 -2.12E-07
     5 TBLite/Diag 0.40E+00    0.0     0.00000963       -28.2593333344 -5.06E-10
     6 TBLite/Diag 0.40E+00    0.0     0.00000690       -28.2593333346 -1.89E-10
     7 TBLite/Diag 0.40E+00    0.0     0.00000101       -28.2593333346 -2.35E-12
     8 TBLite/Diag 0.40E+00    0.0     0.00000006       -28.2593333346 -7.11E-15
     9 TBLite/Diag 0.40E+00    0.0     0.00000005       -28.2593333346 -1.42E-14
    10 TBLite/Diag 0.40E+00    0.0     0.00000002       -28.2593333346 -3.55E-15
    11 TBLite/Diag 0.40E+00    0.0     9.4467E-09       -28.2593333346  7.11E-15
    12 TBLite/Diag 0.40E+00    0.0     7.4783E-10       -28.2593333346 -7.11E-15

  *** SCF run converged in    12 steps ***


  Core Hamiltonian energy:                                    -28.62986170408388
  Repulsive potential energy:                                   0.29413665958653
  Electrostatic energy:                                         0.10304629350101
  Self-consistent dispersion energy:                           -0.03364366305173
  Non-self consistent dispersion energy:                        0.00698907942058
  Correction for halogen bonding:                               0.00000000000000
  Electronic entropic energy:                                  -0.00000000000000
  Fermi energy:                                                -0.21697338848624

  Total energy:                                               -28.25933333462750
  Total energy (extrapolated to T->0):                        -28.25933333462750

 ENERGY| Total FORCE_EVAL ( QS ) energy [hartree]            -28.259333334627495

 OPT| **************************************************************************
 OPT| Step number                                                              6
 OPT| Optimization method                                                   BFGS
 OPT| Total energy [hartree]                                      -28.2593333346
 OPT| Internal pressure [bar]                                  -14075.6199033832
 OPT| Effective energy change [hartree]                            -0.0004390797
 OPT| Predicted energy change [hartree]                            -0.0002980937
 OPT| Scaling factor                                                0.0000000000
 OPT| Step size                                                     0.0613401576
 OPT| Trust radius                                                  0.4724315332
 OPT| Decrease in energy                                                     YES
 OPT| Used time [s]                                                        0.830
 OPT|
 OPT| Maximum step size                                             0.0613401576
 OPT| Convergence limit for maximum step size                       0.0030000000
 OPT| Maximum step size is converged                                          NO
 OPT|
 OPT| RMS step size                                                 0.0184292183
 OPT| Convergence limit for RMS step size                           0.0015000000
 OPT| RMS step size is converged                                              NO
 OPT|
 OPT| Maximum gradient                                              0.0080695347
 OPT| Convergence limit for maximum gradient                        0.0004500000
 OPT| Maximum gradient is converged                                           NO
 OPT|
 OPT| RMS gradient                                                  0.0023380135
 OPT| Convergence limit for RMS gradient                            0.0003000000
 OPT| RMS gradient is converged                                               NO
 OPT|
 OPT| Pressure deviation [bar]                                 -14075.6199033832
 OPT| Pressure tolerance [bar]                                    100.0000000000
 OPT| Pressure is converged                                                   NO
 OPT| **************************************************************************
 OPT| Estimated peak process memory after this step [MiB]                    162

 --------------------------
 OPTIMIZATION STEP:      7
 --------------------------

 CELL| Volume [angstrom^3]:                                           147.348974
 CELL| Vector a [angstrom]:       5.547     0.000     0.000   |a| =     5.546503
 CELL| Vector b [angstrom]:       0.000     5.547     0.000   |b| =     5.546503
 CELL| Vector c [angstrom]:      -0.000    -0.000     4.790   |c| =     4.789703
 CELL| Angle (b,c), alpha [degree]:                                    90.000000
 CELL| Angle (a,c), beta  [degree]:                                    90.000000
 CELL| Angle (a,b), gamma [degree]:                                    89.999464
 CELL| Numerically orthorhombic:                                              NO
 CELL| Periodicity                                                           XYZ

 Extrapolation method: ASPC

 Number of electrons:                                                         48
 Number of occupied orbitals:                                                 24
 Number of molecular orbitals:                                                40

 Number of orbital functions:                                                 40
 Number of independent orbital functions:                                     40


 SCF WAVEFUNCTION OPTIMIZATION

  Step     Update method      Time    Convergence         Total energy    Change
  ------------------------------------------------------------------------------
     1 TBLite/Diag 0.40E+00    0.0     0.00657862       -28.2595813931 -2.83E+01
     2 TBLite/Diag 0.40E+00    0.0     0.00135505       -28.2595874215 -6.03E-06
     3 TBLite/Diag 0.40E+00    0.0     0.00043654       -28.2595878223 -4.01E-07
     4 TBLite/Diag 0.40E+00    0.0     0.00017194       -28.2595879303 -1.08E-07
     5 TBLite/Diag 0.40E+00    0.0     0.00003365       -28.2595879348 -4.49E-09
     6 TBLite/Diag 0.40E+00    0.0     0.00001162       -28.2595879354 -5.69E-10
     7 TBLite/Diag 0.40E+00    0.0     0.00000482       -28.2595879354 -3.23E-11
     8 TBLite/Diag 0.40E+00    0.0     0.00000030       -28.2595879354 -1.85E-13
     9 TBLite/Diag 0.40E+00    0.0     0.00000013       -28.2595879354 -6.04E-14
    10 TBLite/Diag 0.40E+00    0.0     0.00000003       -28.2595879354  3.20E-14
    11 TBLite/Diag 0.40E+00    0.0     5.5418E-09       -28.2595879354  1.07E-14
    12 TBLite/Diag 0.40E+00    0.0     3.8099E-10       -28.2595879354 -1.07E-14

  *** SCF run converged in    12 steps ***


  Core Hamiltonian energy:                                    -28.63403787017812
  Repulsive potential energy:                                   0.29807648908908
  Electrostatic energy:                                         0.10300650322354
  Self-consistent dispersion energy:                           -0.03360136478345
  Non-self consistent dispersion energy:                        0.00696830720795
  Correction for halogen bonding:                               0.00000000000000
  Electronic entropic energy:                                  -0.00000000000000
  Fermi energy:                                                -0.21616820077037

  Total energy:                                               -28.25958793544099
  Total energy (extrapolated to T->0):                        -28.25958793544099

 ENERGY| Total FORCE_EVAL ( QS ) energy [hartree]            -28.259587935440994

 OPT| **************************************************************************
 OPT| Step number                                                              7
 OPT| Optimization method                                                   BFGS
 OPT| Total energy [hartree]                                      -28.2595879354
 OPT| Internal pressure [bar]                                  -11349.5201975530
 OPT| Effective energy change [hartree]                            -0.0002546008
 OPT| Predicted energy change [hartree]                            -0.0001750134
 OPT| Scaling factor                                                0.0000000000
 OPT| Step size                                                     0.0353007233
 OPT| Trust radius                                                  0.4724315332
 OPT| Decrease in energy                                                     YES
 OPT| Used time [s]                                                        0.828
 OPT|
 OPT| Maximum step size                                             0.0353007233
 OPT| Convergence limit for maximum step size                       0.0030000000
 OPT| Maximum step size is converged                                          NO
 OPT|
 OPT| RMS step size                                                 0.0119288833
 OPT| Convergence limit for RMS step size                           0.0015000000
 OPT| RMS step size is converged                                              NO
 OPT|
 OPT| Maximum gradient                                              0.0042080952
 OPT| Convergence limit for maximum gradient                        0.0004500000
 OPT| Maximum gradient is converged                                           NO
 OPT|
 OPT| RMS gradient                                                  0.0012686904
 OPT| Convergence limit for RMS gradient                            0.0003000000
 OPT| RMS gradient is converged                                               NO
 OPT|
 OPT| Pressure deviation [bar]                                 -11349.5201975530
 OPT| Pressure tolerance [bar]                                    100.0000000000
 OPT| Pressure is converged                                                   NO
 OPT| **************************************************************************
 OPT| Estimated peak process memory after this step [MiB]                    162

 --------------------------
 OPTIMIZATION STEP:      8
 --------------------------

 CELL| Volume [angstrom^3]:                                           147.204327
 CELL| Vector a [angstrom]:       5.541     0.000     0.000   |a| =     5.540628
 CELL| Vector b [angstrom]:       0.000     5.541     0.000   |b| =     5.540628
 CELL| Vector c [angstrom]:      -0.000    -0.000     4.795   |c| =     4.795155
 CELL| Angle (b,c), alpha [degree]:                                    90.000000
 CELL| Angle (a,c), beta  [degree]:                                    90.000000
 CELL| Angle (a,b), gamma [degree]:                                    89.999531
 CELL| Numerically orthorhombic:                                              NO
 CELL| Periodicity                                                           XYZ

 Extrapolation method: ASPC

 Number of electrons:                                                         48
 Number of occupied orbitals:                                                 24
 Number of molecular orbitals:                                                40

 Number of orbital functions:                                                 40
 Number of independent orbital functions:                                     40


 SCF WAVEFUNCTION OPTIMIZATION

  Step     Update method      Time    Convergence         Total energy    Change
  ------------------------------------------------------------------------------
     1 TBLite/Diag 0.40E+00    0.0     0.00312747       -28.2597083723 -2.83E+01
     2 TBLite/Diag 0.40E+00    0.0     0.00093343       -28.2597108516 -2.48E-06
     3 TBLite/Diag 0.40E+00    0.0     0.00030975       -28.2597110483 -1.97E-07
     4 TBLite/Diag 0.40E+00    0.0     0.00011569       -28.2597111123 -6.41E-08
     5 TBLite/Diag 0.40E+00    0.0     0.00001765       -28.2597111140 -1.71E-09
     6 TBLite/Diag 0.40E+00    0.0     0.00001193       -28.2597111144 -3.94E-10
     7 TBLite/Diag 0.40E+00    0.0     0.00000417       -28.2597111144 -2.46E-11
     8 TBLite/Diag 0.40E+00    0.0     0.00000023       -28.2597111144 -2.31E-13
     9 TBLite/Diag 0.40E+00    0.0     0.00000008       -28.2597111144  7.11E-15
    10 TBLite/Diag 0.40E+00    0.0     0.00000002       -28.2597111144 -3.55E-15
    11 TBLite/Diag 0.40E+00    0.0     5.2595E-09       -28.2597111144  3.20E-14
    12 TBLite/Diag 0.40E+00    0.0     5.1304E-10       -28.2597111144 -3.55E-15

  *** SCF run converged in    12 steps ***


  Core Hamiltonian energy:                                    -28.63783609671683
  Repulsive potential energy:                                   0.30196108559044
  Electrostatic energy:                                         0.10282629644021
  Self-consistent dispersion energy:                           -0.03364035092088
  Non-self consistent dispersion energy:                        0.00697795115874
  Correction for halogen bonding:                               0.00000000000000
  Electronic entropic energy:                                  -0.00000000000000
  Fermi energy:                                                -0.21522741126804

  Total energy:                                               -28.25971111444831
  Total energy (extrapolated to T->0):                        -28.25971111444831

 ENERGY| Total FORCE_EVAL ( QS ) energy [hartree]            -28.259711114448312

 OPT| **************************************************************************
 OPT| Step number                                                              8
 OPT| Optimization method                                                   BFGS
 OPT| Total energy [hartree]                                      -28.2597111144
 OPT| Internal pressure [bar]                                   -7466.8238702733
 OPT| Effective energy change [hartree]                            -0.0001231790
 OPT| Predicted energy change [hartree]                            -0.0000815999
 OPT| Scaling factor                                                0.0000000000
 OPT| Step size                                                     0.0176367322
 OPT| Trust radius                                                  0.4724315332
 OPT| Decrease in energy                                                     YES
 OPT| Used time [s]                                                        0.830
 OPT|
 OPT| Maximum step size                                             0.0176367322
 OPT| Convergence limit for maximum step size                       0.0030000000
 OPT| Maximum step size is converged                                          NO
 OPT|
 OPT| RMS step size                                                 0.0053301461
 OPT| Convergence limit for RMS step size                           0.0015000000
 OPT| RMS step size is converged                                              NO
 OPT|
 OPT| Maximum gradient                                              0.0039422881
 OPT| Convergence limit for maximum gradient                        0.0004500000
 OPT| Maximum gradient is converged                                           NO
 OPT|
 OPT| RMS gradient                                                  0.0011089805
 OPT| Convergence limit for RMS gradient                            0.0003000000
 OPT| RMS gradient is converged                                               NO
 OPT|
 OPT| Pressure deviation [bar]                                  -7466.8238702733
 OPT| Pressure tolerance [bar]                                    100.0000000000
 OPT| Pressure is converged                                                   NO
 OPT| **************************************************************************
 OPT| Estimated peak process memory after this step [MiB]                    162

 --------------------------
 OPTIMIZATION STEP:      9
 --------------------------

 CELL| Volume [angstrom^3]:                                           146.903079
 CELL| Vector a [angstrom]:       5.532     0.000     0.000   |a| =     5.532290
 CELL| Vector b [angstrom]:       0.000     5.532     0.000   |b| =     5.532290
 CELL| Vector c [angstrom]:      -0.000    -0.000     4.800   |c| =     4.799777
 CELL| Angle (b,c), alpha [degree]:                                    90.000000
 CELL| Angle (a,c), beta  [degree]:                                    90.000000
 CELL| Angle (a,b), gamma [degree]:                                    89.999673
 CELL| Numerically orthorhombic:                                              NO
 CELL| Periodicity                                                           XYZ

 Extrapolation method: ASPC

 Number of electrons:                                                         48
 Number of occupied orbitals:                                                 24
 Number of molecular orbitals:                                                40

 Number of orbital functions:                                                 40
 Number of independent orbital functions:                                     40


 SCF WAVEFUNCTION OPTIMIZATION

  Step     Update method      Time    Convergence         Total energy    Change
  ------------------------------------------------------------------------------
     1 TBLite/Diag 0.40E+00    0.0     0.00263821       -28.2598282743 -2.83E+01
     2 TBLite/Diag 0.40E+00    0.0     0.00067381       -28.2598294743 -1.20E-06
     3 TBLite/Diag 0.40E+00    0.0     0.00027432       -28.2598295663 -9.19E-08
     4 TBLite/Diag 0.40E+00    0.0     0.00012374       -28.2598296455 -7.93E-08
     5 TBLite/Diag 0.40E+00    0.0     0.00001714       -28.2598296465 -9.35E-10
     6 TBLite/Diag 0.40E+00    0.0     0.00000411       -28.2598296465 -4.68E-11
     7 TBLite/Diag 0.40E+00    0.0     0.00000284       -28.2598296465 -1.08E-11
     8 TBLite/Diag 0.40E+00    0.0     0.00000018       -28.2598296465 -1.78E-13
     9 TBLite/Diag 0.40E+00    0.0     0.00000006       -28.2598296465  1.07E-14
    10 TBLite/Diag 0.40E+00    0.0     0.00000002       -28.2598296465  0.00E+00
    11 TBLite/Diag 0.40E+00    0.0     7.0131E-09       -28.2598296465  7.11E-15
    12 TBLite/Diag 0.40E+00    0.0     8.8224E-10       -28.2598296465 -1.78E-14

  *** SCF run converged in    12 steps ***


  Core Hamiltonian energy:                                    -28.64118177275414
  Repulsive potential energy:                                   0.30533518369768
  Electrostatic energy:                                         0.10272952009912
  Self-consistent dispersion energy:                           -0.03371828063900
  Non-self consistent dispersion energy:                        0.00700570305767
  Correction for halogen bonding:                               0.00000000000000
  Electronic entropic energy:                                  -0.00000000000000
  Fermi energy:                                                -0.21426215440786

  Total energy:                                               -28.25982964653867
  Total energy (extrapolated to T->0):                        -28.25982964653867

 ENERGY| Total FORCE_EVAL ( QS ) energy [hartree]            -28.259829646538666

 OPT| **************************************************************************
 OPT| Step number                                                              9
 OPT| Optimization method                                                   BFGS
 OPT| Total energy [hartree]                                      -28.2598296465
 OPT| Internal pressure [bar]                                   -3982.9347877876
 OPT| Effective energy change [hartree]                            -0.0001185321
 OPT| Predicted energy change [hartree]                            -0.0000762396
 OPT| Scaling factor                                                0.0000000000
 OPT| Step size                                                     0.0160856428
 OPT| Trust radius                                                  0.4724315332
 OPT| Decrease in energy                                                     YES
 OPT| Used time [s]                                                        0.837
 OPT|
 OPT| Maximum step size                                             0.0160856428
 OPT| Convergence limit for maximum step size                       0.0030000000
 OPT| Maximum step size is converged                                          NO
 OPT|
 OPT| RMS step size                                                 0.0052924653
 OPT| Convergence limit for RMS step size                           0.0015000000
 OPT| RMS step size is converged                                              NO
 OPT|
 OPT| Maximum gradient                                              0.0036973357
 OPT| Convergence limit for maximum gradient                        0.0004500000
 OPT| Maximum gradient is converged                                           NO
 OPT|
 OPT| RMS gradient                                                  0.0015214526
 OPT| Convergence limit for RMS gradient                            0.0003000000
 OPT| RMS gradient is converged                                               NO
 OPT|
 OPT| Pressure deviation [bar]                                  -3982.9347877876
 OPT| Pressure tolerance [bar]                                    100.0000000000
 OPT| Pressure is converged                                                   NO
 OPT| **************************************************************************
 OPT| Estimated peak process memory after this step [MiB]                    162

 --------------------------
 OPTIMIZATION STEP:     10
 --------------------------

 CELL| Volume [angstrom^3]:                                           146.206883
 CELL| Vector a [angstrom]:       5.513     0.000     0.000   |a| =     5.512604
 CELL| Vector b [angstrom]:      -0.000     5.513     0.000   |b| =     5.512604
 CELL| Vector c [angstrom]:       0.000    -0.000     4.811   |c| =     4.811210
 CELL| Angle (b,c), alpha [degree]:                                    90.000000
 CELL| Angle (a,c), beta  [degree]:                                    90.000000
 CELL| Angle (a,b), gamma [degree]:                                    90.000011
 CELL| Numerically orthorhombic:                                              NO
 CELL| Periodicity                                                           XYZ

 Extrapolation method: ASPC

 Number of electrons:                                                         48
 Number of occupied orbitals:                                                 24
 Number of molecular orbitals:                                                40

 Number of orbital functions:                                                 40
 Number of independent orbital functions:                                     40


 SCF WAVEFUNCTION OPTIMIZATION

  Step     Update method      Time    Convergence         Total energy    Change
  ------------------------------------------------------------------------------
     1 TBLite/Diag 0.40E+00    0.0     0.00539931       -28.2600523815 -2.83E+01
     2 TBLite/Diag 0.40E+00    0.0     0.00078672       -28.2600550738 -2.69E-06
     3 TBLite/Diag 0.40E+00    0.0     0.00039460       -28.2600552129 -1.39E-07
     4 TBLite/Diag 0.40E+00    0.0     0.00023937       -28.2600554391 -2.26E-07
     5 TBLite/Diag 0.40E+00    0.0     0.00002443       -28.2600554428 -3.71E-09
     6 TBLite/Diag 0.40E+00    0.0     0.00001471       -28.2600554434 -5.77E-10
     7 TBLite/Diag 0.40E+00    0.0     0.00000462       -28.2600554434 -2.59E-11
     8 TBLite/Diag 0.40E+00    0.0     0.00000018       -28.2600554434 -1.28E-13
     9 TBLite/Diag 0.40E+00    0.0     0.00000011       -28.2600554434  2.13E-14
    10 TBLite/Diag 0.40E+00    0.0     0.00000003       -28.2600554434 -2.49E-14
    11 TBLite/Diag 0.40E+00    0.0     9.0520E-09       -28.2600554434  0.00E+00
    12 TBLite/Diag 0.40E+00    0.0     1.9607E-09       -28.2600554434 -2.49E-14
    13 TBLite/Diag 0.40E+00    0.0     1.9610E-10       -28.2600554434  4.62E-14

  *** SCF run converged in    13 steps ***


  Core Hamiltonian energy:                                    -28.64561568165346
  Repulsive potential energy:                                   0.30963362432967
  Electrostatic energy:                                         0.10275529182808
  Self-consistent dispersion energy:                           -0.03389908809867
  Non-self consistent dispersion energy:                        0.00707041020289
  Correction for halogen bonding:                               0.00000000000000
  Electronic entropic energy:                                  -0.00000000000000
  Fermi energy:                                                -0.21279129906825

  Total energy:                                               -28.26005544339150
  Total energy (extrapolated to T->0):                        -28.26005544339150

 ENERGY| Total FORCE_EVAL ( QS ) energy [hartree]            -28.260055443391497

 OPT| **************************************************************************
 OPT| Step number                                                             10
 OPT| Optimization method                                                   BFGS
 OPT| Total energy [hartree]                                      -28.2600554434
 OPT| Internal pressure [bar]                                      86.0648463423
 OPT| Effective energy change [hartree]                            -0.0002257969
 OPT| Predicted energy change [hartree]                            -0.0001549349
 OPT| Scaling factor                                                0.0000000000
 OPT| Step size                                                     0.0372010224
 OPT| Trust radius                                                  0.4724315332
 OPT| Decrease in energy                                                     YES
 OPT| Used time [s]                                                        0.842
 OPT|
 OPT| Maximum step size                                             0.0372010224
 OPT| Convergence limit for maximum step size                       0.0030000000
 OPT| Maximum step size is converged                                          NO
 OPT|
 OPT| RMS step size                                                 0.0114574381
 OPT| Convergence limit for RMS step size                           0.0015000000
 OPT| RMS step size is converged                                              NO
 OPT|
 OPT| Maximum gradient                                              0.0067142229
 OPT| Convergence limit for maximum gradient                        0.0004500000
 OPT| Maximum gradient is converged                                           NO
 OPT|
 OPT| RMS gradient                                                  0.0021764470
 OPT| Convergence limit for RMS gradient                            0.0003000000
 OPT| RMS gradient is converged                                               NO
 OPT|
 OPT| Pressure deviation [bar]                                     86.0648463423
 OPT| Pressure tolerance [bar]                                    100.0000000000
 OPT| Pressure is converged                                                  YES
 OPT| **************************************************************************
 OPT| Estimated peak process memory after this step [MiB]                    162

 --------------------------
 OPTIMIZATION STEP:     11
 --------------------------

 CELL| Volume [angstrom^3]:                                           145.035127
 CELL| Vector a [angstrom]:       5.479     0.000     0.000   |a| =     5.478670
 CELL| Vector b [angstrom]:      -0.000     5.479     0.000   |b| =     5.478670
 CELL| Vector c [angstrom]:       0.000    -0.000     4.832   |c| =     4.831956
 CELL| Angle (b,c), alpha [degree]:                                    90.000000
 CELL| Angle (a,c), beta  [degree]:                                    90.000000
 CELL| Angle (a,b), gamma [degree]:                                    90.000559
 CELL| Numerically orthorhombic:                                              NO
 CELL| Periodicity                                                           XYZ

 Extrapolation method: ASPC

 Number of electrons:                                                         48
 Number of occupied orbitals:                                                 24
 Number of molecular orbitals:                                                40

 Number of orbital functions:                                                 40
 Number of independent orbital functions:                                     40


 SCF WAVEFUNCTION OPTIMIZATION

  Step     Update method      Time    Convergence         Total energy    Change
  ------------------------------------------------------------------------------
     1 TBLite/Diag 0.40E+00    0.0     0.00828978       -28.2603653753 -2.83E+01
     2 TBLite/Diag 0.40E+00    0.0     0.00088665       -28.2603702178 -4.84E-06
     3 TBLite/Diag 0.40E+00    0.0     0.00034471       -28.2603705880 -3.70E-07
     4 TBLite/Diag 0.40E+00    0.0     0.00026152       -28.2603707733 -1.85E-07
     5 TBLite/Diag 0.40E+00    0.0     0.00005746       -28.2603707891 -1.59E-08
     6 TBLite/Diag 0.40E+00    0.0     0.00001286       -28.2603707897 -5.86E-10
     7 TBLite/Diag 0.40E+00    0.0     0.00000248       -28.2603707897 -2.04E-11
     8 TBLite/Diag 0.40E+00    0.0     0.00000069       -28.2603707897 -9.24E-13
     9 TBLite/Diag 0.40E+00    0.0     0.00000020       -28.2603707897 -7.11E-14
    10 TBLite/Diag 0.40E+00    0.0     0.00000005       -28.2603707897 -3.55E-15
    11 TBLite/Diag 0.40E+00    0.0     0.00000002       -28.2603707897 -3.55E-15
    12 TBLite/Diag 0.40E+00    0.0     2.4951E-09       -28.2603707897 -7.11E-15
    13 TBLite/Diag 0.40E+00    0.0     3.8068E-10       -28.2603707897  3.55E-14

  *** SCF run converged in    13 steps ***


  Core Hamiltonian energy:                                    -28.64892792348439
  Repulsive potential energy:                                   0.31255388518856
  Electrostatic energy:                                         0.10302906551270
  Self-consistent dispersion energy:                           -0.03420784215088
  Non-self consistent dispersion energy:                        0.00718202520000
  Correction for halogen bonding:                               0.00000000000000
  Electronic entropic energy:                                  -0.00000000000000
  Fermi energy:                                                -0.21131826534205

  Total energy:                                               -28.26037078973401
  Total energy (extrapolated to T->0):                        -28.26037078973401

 ENERGY| Total FORCE_EVAL ( QS ) energy [hartree]            -28.260370789734012

 OPT| **************************************************************************
 OPT| Step number                                                             11
 OPT| Optimization method                                                   BFGS
 OPT| Total energy [hartree]                                      -28.2603707897
 OPT| Internal pressure [bar]                                    2045.8646322926
 OPT| Effective energy change [hartree]                            -0.0003153463
 OPT| Predicted energy change [hartree]                            -0.0002369575
 OPT| Scaling factor                                                0.0000000000
 OPT| Step size                                                     0.0641259394
 OPT| Trust radius                                                  0.4724315332
 OPT| Decrease in energy                                                     YES
 OPT| Used time [s]                                                        0.886
 OPT|
 OPT| Maximum step size                                             0.0641259394
 OPT| Convergence limit for maximum step size                       0.0030000000
 OPT| Maximum step size is converged                                          NO
 OPT|
 OPT| RMS step size                                                 0.0188937201
 OPT| Convergence limit for RMS step size                           0.0015000000
 OPT| RMS step size is converged                                              NO
 OPT|
 OPT| Maximum gradient                                              0.0081876996
 OPT| Convergence limit for maximum gradient                        0.0004500000
 OPT| Maximum gradient is converged                                           NO
 OPT|
 OPT| RMS gradient                                                  0.0025109732
 OPT| Convergence limit for RMS gradient                            0.0003000000
 OPT| RMS gradient is converged                                               NO
 OPT|
 OPT| Pressure deviation [bar]                                   2045.8646322926
 OPT| Pressure tolerance [bar]                                    100.0000000000
 OPT| Pressure is converged                                                   NO
 OPT| **************************************************************************
 OPT| Estimated peak process memory after this step [MiB]                    162

 --------------------------
 OPTIMIZATION STEP:     12
 --------------------------

 CELL| Volume [angstrom^3]:                                           143.690564
 CELL| Vector a [angstrom]:       5.441     0.000     0.000   |a| =     5.440769
 CELL| Vector b [angstrom]:      -0.000     5.441     0.000   |b| =     5.440769
 CELL| Vector c [angstrom]:       0.000    -0.000     4.854   |c| =     4.854088
 CELL| Angle (b,c), alpha [degree]:                                    90.000000
 CELL| Angle (a,c), beta  [degree]:                                    90.000000
 CELL| Angle (a,b), gamma [degree]:                                    90.001089
 CELL| Numerically orthorhombic:                                              NO
 CELL| Periodicity                                                           XYZ

 Extrapolation method: ASPC

 Number of electrons:                                                         48
 Number of occupied orbitals:                                                 24
 Number of molecular orbitals:                                                40

 Number of orbital functions:                                                 40
 Number of independent orbital functions:                                     40


 SCF WAVEFUNCTION OPTIMIZATION

  Step     Update method      Time    Convergence         Total energy    Change
  ------------------------------------------------------------------------------
     1 TBLite/Diag 0.40E+00    0.0     0.00729025       -28.2606772967 -2.83E+01
     2 TBLite/Diag 0.40E+00    0.0     0.00078662       -28.2606816817 -4.39E-06
     3 TBLite/Diag 0.40E+00    0.0     0.00029965       -28.2606821968 -5.15E-07
     4 TBLite/Diag 0.40E+00    0.0     0.00006807       -28.2606822247 -2.79E-08
     5 TBLite/Diag 0.40E+00    0.0     0.00003858       -28.2606822268 -2.15E-09
[...]
 OPT| **************************************************************************
 OPT| Estimated peak process memory after this step [MiB]                    163

 --------------------------
 OPTIMIZATION STEP:     32
 --------------------------

 CELL| Volume [angstrom^3]:                                           116.587845
 CELL| Vector a [angstrom]:       4.915     0.000     0.000   |a| =     4.915257
 CELL| Vector b [angstrom]:       0.000     4.915     0.000   |b| =     4.915257
 CELL| Vector c [angstrom]:       0.000    -0.000     4.826   |c| =     4.825705
 CELL| Angle (b,c), alpha [degree]:                                    90.000000
 CELL| Angle (a,c), beta  [degree]:                                    90.000000
 CELL| Angle (a,b), gamma [degree]:                                    89.999943
 CELL| Numerically orthorhombic:                                              NO
 CELL| Periodicity                                                           XYZ

 Extrapolation method: ASPC

 Number of electrons:                                                         48
 Number of occupied orbitals:                                                 24
 Number of molecular orbitals:                                                40

 Number of orbital functions:                                                 40
 Number of independent orbital functions:                                     40


 SCF WAVEFUNCTION OPTIMIZATION

  Step     Update method      Time    Convergence         Total energy    Change
  ------------------------------------------------------------------------------
     1 TBLite/Diag 0.40E+00    0.0     0.00019611       -28.2764887469 -2.83E+01
     2 TBLite/Diag 0.40E+00    0.0     0.00004262       -28.2764887600 -1.31E-08
     3 TBLite/Diag 0.40E+00    0.0     0.00000835       -28.2764887604 -4.20E-10
     4 TBLite/Diag 0.40E+00    0.0     0.00000395       -28.2764887604 -3.97E-11
     5 TBLite/Diag 0.40E+00    0.0     0.00000265       -28.2764887605 -2.56E-11
     6 TBLite/Diag 0.40E+00    0.0     0.00000031       -28.2764887605 -2.74E-13
     7 TBLite/Diag 0.40E+00    0.0     0.00000003       -28.2764887605 -7.11E-15
     8 TBLite/Diag 0.40E+00    0.0     0.00000001       -28.2764887605  7.11E-15
     9 TBLite/Diag 0.40E+00    0.0     2.8885E-09       -28.2764887605  0.00E+00
    10 TBLite/Diag 0.40E+00    0.0     1.8246E-09       -28.2764887605 -3.55E-15
    11 TBLite/Diag 0.40E+00    0.0     3.4650E-10       -28.2764887605 -1.78E-14

  *** SCF run converged in    11 steps ***


  Core Hamiltonian energy:                                    -28.63899428095667
  Repulsive potential energy:                                   0.30123640344318
  Electrostatic energy:                                         0.09407681166252
  Self-consistent dispersion energy:                           -0.04361007934107
  Non-self consistent dispersion energy:                        0.01080238471980
  Correction for halogen bonding:                               0.00000000000000
  Electronic entropic energy:                                  -0.00000000000000
  Fermi energy:                                                -0.21314796668017

  Total energy:                                               -28.27648876047224
  Total energy (extrapolated to T->0):                        -28.27648876047224

 ENERGY| Total FORCE_EVAL ( QS ) energy [hartree]            -28.276488760472240

 OPT| **************************************************************************
 OPT| Step number                                                             32
 OPT| Optimization method                                                   BFGS
 OPT| Total energy [hartree]                                      -28.2764887605
 OPT| Internal pressure [bar]                                      17.6793650223
 OPT| Effective energy change [hartree]                            -0.0000002529
 OPT| Predicted energy change [hartree]                            -0.0000001974
 OPT| Scaling factor                                                0.3008586547
 OPT| Step size                                                     0.0009228677
 OPT| Trust radius                                                  0.4724315332
 OPT| Decrease in energy                                                     YES
 OPT| Used time [s]                                                        0.616
 OPT|
 OPT| Maximum step size                                             0.0009228677
 OPT| Convergence limit for maximum step size                       0.0030000000
 OPT| Maximum step size is converged                                         YES
 OPT|
 OPT| RMS step size                                                 0.0002789362
 OPT| Convergence limit for RMS step size                           0.0015000000
 OPT| RMS step size is converged                                             YES
 OPT|
 OPT| Maximum gradient                                              0.0000960889
 OPT| Convergence limit for maximum gradient                        0.0004500000
 OPT| Maximum gradient is converged                                          YES
 OPT|
 OPT| RMS gradient                                                  0.0000440242
 OPT| Convergence limit for RMS gradient                            0.0003000000
 OPT| RMS gradient is converged                                              YES
 OPT|
 OPT| Pressure deviation [bar]                                     17.6793650223
 OPT| Pressure tolerance [bar]                                    100.0000000000
 OPT| Pressure is converged                                                  YES
 OPT| **************************************************************************
 OPT| Estimated peak process memory after this step [MiB]                    163

 *******************************************************************************
 ***                    GEOMETRY OPTIMIZATION COMPLETED                      ***
 *******************************************************************************

 write_final_structure: Optimization converged, writing XYZ file gladly:
  urea_GFN2_gamma_cell_opt-FINAL-1_32.xyz

 write_final_structure: Optimization converged, writing CIF file gladly:
  urea_GFN2_gamma_cell_opt-FINAL-1_32.cif

 write_final_structure: Done!

                    Reevaluating energy at the minimum

 CELL| Volume [angstrom^3]:                                           116.587845
 CELL| Vector a [angstrom]:       4.915     0.000     0.000   |a| =     4.915257
 CELL| Vector b [angstrom]:       0.000     4.915     0.000   |b| =     4.915257
 CELL| Vector c [angstrom]:       0.000    -0.000     4.826   |c| =     4.825705
 CELL| Angle (b,c), alpha [degree]:                                    90.000000
 CELL| Angle (a,c), beta  [degree]:                                    90.000000
 CELL| Angle (a,b), gamma [degree]:                                    89.999943
 CELL| Numerically orthorhombic:                                              NO
 CELL| Periodicity                                                           XYZ

 Extrapolation method: ASPC

 Number of electrons:                                                         48
 Number of occupied orbitals:                                                 24
 Number of molecular orbitals:                                                40

 Number of orbital functions:                                                 40
 Number of independent orbital functions:                                     40


 SCF WAVEFUNCTION OPTIMIZATION

  Step     Update method      Time    Convergence         Total energy    Change
  ------------------------------------------------------------------------------
     1 TBLite/Diag 0.40E+00    0.0     4.2385E-11       -28.2764887605 -2.83E+01

  *** SCF run converged in     1 steps ***


  Core Hamiltonian energy:                                    -28.63899428095827
  Repulsive potential energy:                                   0.30123640344318
  Electrostatic energy:                                         0.09407681166412
  Self-consistent dispersion energy:                           -0.04361007934109
  Non-self consistent dispersion energy:                        0.01080238471980
  Correction for halogen bonding:                               0.00000000000000
  Electronic entropic energy:                                  -0.00000000000000
  Fermi energy:                                                -0.21314796668212

  Total energy:                                               -28.27648876047226
  Total energy (extrapolated to T->0):                        -28.27648876047226

 ENERGY| Total FORCE_EVAL ( QS ) energy [hartree]            -28.276488760472258

 -------------------------------------------------------------------------------
 -                                                                             -
 -                                DBCSR STATISTICS                             -
 -                                                                             -
 -------------------------------------------------------------------------------
 COUNTER                                    TOTAL       BLAS       SMM       ACC
 flops     1 x     8 x     1               158720       0.0%    100.0%      0.0%     
 flops     4 x     8 x     1               634880       0.0%    100.0%      0.0%     
 flops     1 x     8 x     4               634880       0.0%    100.0%      0.0%     
 flops     1 x    32 x     1               634880       0.0%    100.0%      0.0%     
 flops     1 x     1 x    40              1414080       0.0%    100.0%      0.0%     
 flops     4 x     8 x     4              2539520       0.0%    100.0%      0.0%     
 flops     4 x    32 x     1              2539520       0.0%    100.0%      0.0%     
 flops     1 x    32 x     4              2539520       0.0%    100.0%      0.0%     
 flops     4 x     1 x    40              5027840       0.0%    100.0%      0.0%     
 flops     1 x     4 x    40              5027840       0.0%    100.0%      0.0%     
 flops     4 x    32 x     4             10158080       0.0%    100.0%      0.0%     
 flops     4 x     4 x    40             22625280       0.0%    100.0%      0.0%     
 flops inhomo. stacks                           0       0.0%      0.0%      0.0%
 flops total                        53.935040E+06       0.0%    100.0%      0.0%
 flops max/rank                     53.935040E+06       0.0%    100.0%      0.0%
 matmuls inhomo. stacks                         0       0.0%      0.0%      0.0%
 matmuls total                             146136       0.0%    100.0%      0.0%
 number of processed stacks                  3204       0.0%    100.0%      0.0%
 average stack size                                     0.0      45.6       0.0
 marketing flops                    57.548800E+06
 -------------------------------------------------------------------------------
 # multiplications                            646
 max memory usage/rank              13.669540E+09
 # max total images/rank                        1
 # max 3D layers                                1
 # MPI messages exchanged                       0
 -------------------------------------------------------------------------------
 -                                                                             -
 -                      DBCSR MESSAGE PASSING PERFORMANCE                      -
 -                                                                             -
 -------------------------------------------------------------------------------
 ROUTINE             CALLS      AVE VOLUME [Bytes]
 MP_Bcast               13                     12.
 MP_Allreduce         2963                      8.
 MP_Alltoall         21311                   9176.
 MP_ISend             2584                   1177.
 MP_IRecv             2584                   1177.
 -------------------------------------------------------------------------------

 -------------------------------------------------------------------------------
 -                                                                             -
 -                          OFFLOAD MEMPOOL STATISTICS                         -
 -                                                                             -
 -------------------------------------------------------------------------------
 Memory consumption                Number of allocations  Used [MiB]  Size [MiB]
 Device                                                2           0           0
 Host                                                  2           0           0
 -------------------------------------------------------------------------------

 MEMORY| Estimated peak process memory [MiB]                                 163

 -------------------------------------------------------------------------------
 -                                                                             -
 -                         MESSAGE PASSING PERFORMANCE                         -
 -                                                                             -
 -------------------------------------------------------------------------------

 ROUTINE             CALLS      AVE VOLUME [Bytes]
 MP_Group               33
 MP_Bcast              980                    166.
 MP_Allreduce        15994                    117.
 MP_Sync               523
 MP_comm_split         490
 -------------------------------------------------------------------------------


 -------------------------------------------------------------------------------
 -                                                                             -
 -                           R E F E R E N C E S                               -
 -                                                                             -
 -------------------------------------------------------------------------------
 
 CP2K version 2026.1 (Development Version), the CP2K developers group (2026).
 CP2K is freely available from https://www.cp2k.org/ .
 
 M. Iannuzzi, J. Wilhelm, F. Stein, A. Bussy, H. Elgabarty, D. Golze, A. Hehn, 
 M. Graml, S. Marek, B. Sertcan Gökmen, C. Schran, H. Forbert, R. Z. 
 Khaliullin, A. Kozhevnikov, M. Taillefumier, R. Meli, V. V. Rybkin, M. Brehm, 
 R. Schade, O. Schütt, J. V. Pototschnig, H. Mirhosseini, A. Knüpfer, D. Marx, 
 M. Krack, J. Hutter, T. D. Kühne.
 J. Phys. Chem. B 130, 1237-1310 (2026).
 The CP2K Program Package Made Simple.
 https://doi.org/10.1021/acs.jpcb.5c05851

 A. Katbashev, M. Stahn, T. Rose, V. Alizadeh, M. Friede, C. Plett, P. 
 Steinbach, S. Ehlert.
 J. Phys. Chem. A 129, 2667-2682 (2025).
 Overview on Building Blocks and Applications of Efficient and Robust Extended 
 Tight Binding.
 https://doi.org/10.1021/acs.jpca.4c08263

 T. D. Kühne, M. Iannuzzi, M. Del Ben, V. V. Rybkin, P. Seewald, F. Stein, T. 
 Laino, R. Z. Khaliullin, O. Schütt, F. Schiffmann, D. Golze, J. Wilhelm, S. 
 Chulkov, M. H. Bani-Hashemian, V. Weber, U. Borstnik, M. Taillefumier, A. S. 
 Jakobovits, A. Lazzaro, H. Pabst, T. Müller, R. Schade, M. Guidon, S. 
 Andermatt, N. Holmberg, G. K. Schenter, A. Hehn, A. Bussy, F. Belleflamme, G. 
 Tabacchi, A. Glöß, M. Lass, I. Bethune, C. J. Mundy, C. Plessl, M. Watkins, 
 J. VandeVondele, M. Krack, J. Hutter.
 J. Chem. Phys. 152, 194103 (2020).
 CP2K: An electronic structure and molecular dynamics software package - 
 Quickstep: Efficient and accurate electronic structure calculations.
 https://doi.org/10.1063/5.0007045

 P. Pracht, E. Caldeweyher, S. Ehlert, S. Grimme.
 ChemRxiv, (2019).
 A Robust Non-Self-Consistent Tight-Binding Quantum Chemistry Method for large 
 Molecules.
 https://doi.org/10.26434/chemrxiv.8326202.v1

 S. Grimme, C. Bannwarth, P. Shushkov.
 J. Chem. Theory Comput. 13, 1989 (2017).
 A Robust and Accurate Tight-Binding Quantum Chemical Method for Structures, 
 Vibrational Frequencies, and Noncovalent Interactions of Large Molecular 
 Systems Parametrized for All spd-Block Elements (Z = 1-86).
 https://doi.org/10.1021/acs.jctc.7b00118

 O. Schuett, P. Messmer, J. Hutter, J. VandeVondele.
 Electronic Structure Calculations on Graphics Processing Units, 173-190 (2016).
 GPU-Accelerated Sparse Matrix-Matrix Multiplication for Linear Scaling Density 
 Functional Theory.
 https://doi.org/10.1002/9781118670712.ch8

 A. Heinecke, G. Henry, M. Hutchinson, H. Pabst.
 Proceedings of Intl. Supercomputing Conference, 981-991 (2016).
 LIBXSMM: Accelerating Small Matrix Multiplications by Runtime Code Generation.
 https://doi.org/10.1109/SC.2016.83

 U. Borstnik, J. VandeVondele, V. Weber, J. Hutter.
 Parallel Comput. 40, 47-58 (2014).
 Sparse matrix multiplication: The distributed block-compressed sparse row 
 library.
 https://doi.org/10.1016/j.parco.2014.03.012

 T. D. Kühne, M. Krack, F. R. Mohamed, M. Parrinello.
 Phys. Rev. Lett. 98, 066401 (2007).
 Efficient and accurate Car-Parrinello-like approach to Born-Oppenheimer 
 molecular dynamics.
 https://doi.org/10.1103/PhysRevLett.98.066401

 M. Frigo, S. G. Johnson.
 Proc. IEEE 93, 216-231 (2005).
 The design and implementation of FFTW3.
 https://doi.org/10.1109/JPROC.2004.840301

 J. Kolafa.
 J. Comput. Chem. 25, 335-342 (2004).
 Time-reversible always stable predictor-corrector method for molecular dynamics 
 of polarizable molecules.
 https://doi.org/10.1002/jcc.10385

 N. D. Mermin.
 Phys. Rev. 137, A1441-A1443 (1965).
 Thermal Properties of the Inhomogeneous Electron Gas.
 https://doi.org/10.1103/PhysRev.137.A1441


 -------------------------------------------------------------------------------
 -                                                                             -
 -                                T I M I N G                                  -
 -                                                                             -
 -------------------------------------------------------------------------------
 SUBROUTINE                       CALLS  ASD         SELF TIME        TOTAL TIME
                                MAXIMUM       AVERAGE  MAXIMUM  AVERAGE  MAXIMUM
 CP2K                                 1  1.0    0.002    0.002   29.397   29.397
 cp_cell_opt                          1  2.0    0.000    0.000   29.391   29.391
 geoopt_bfgs                          1  3.0    0.004    0.004   29.391   29.391
 cp_eval_at                          34  4.0    0.004    0.004   29.339   29.339
 qs_forces                           33  5.0    0.002    0.002   29.196   29.196
 build_tblite_matrices               67  7.0   25.878   25.878   26.340   26.340
 qs_energies                         34  6.0    0.001    0.001    8.328    8.328
 qs_energies_init_hamiltonians       34  7.0    0.000    0.000    7.242    7.242
 rebuild_ks_matrix                  458  9.8    0.000    0.000    2.062    2.062
 build_tblite_ks_matrix             458 10.8    2.051    2.051    2.061    2.061
 qs_ks_update_qs_env_forces          33  6.0    0.000    0.000    1.867    1.867
 scf_env_do_scf                      34  7.0    0.001    0.001    0.934    0.934
 scf_env_do_scf_inner_loop          425  8.0    0.109    0.109    0.932    0.932
 -------------------------------------------------------------------------------

 The number of warnings for this run is : 0
 
 -------------------------------------------------------------------------------
  **** **** ******  **  PROGRAM ENDED AT                 2026-05-23 22:48:56.508
 ***** ** ***  *** **   PROGRAM RAN ON                                spark-c86c
 **    ****   ******    PROGRAM RAN BY                                  kuehne88
 ***** **    ** ** **   PROGRAM PROCESS ID                               2271521
  **** **  *******  **  PROGRAM STOPPED IN /home/kuehne88/periodic-gfn2-benchmar
                                           ks/X23b/runs/cellopt_gamma/GFN2/urea_
                                           GFN2_gamma_cellopt
