 DBCSR| CPU Multiplication driver                                           XSMM (U)
 DBCSR| Multrec recursion limit                                              512 (U)
 DBCSR| Multiplication stack size                                           1000 (D)
 DBCSR| Maximum elements for images                                    UNLIMITED (U)
 DBCSR| Multiplicative factor virtual images                                   1 (U)
 DBCSR| Use multiplication densification                                       T (D)
 DBCSR| Multiplication size stacks                                             3 (U)
 DBCSR| Use memory pool for CPU allocation                                     F (U)
 DBCSR| Number of 3D layers                                               SINGLE (U)
 DBCSR| Use MPI memory allocation                                              F (U)
 DBCSR| Use RMA algorithm                                                      F (U)
 DBCSR| Use Communication thread                                               T (U)
 DBCSR| Communication thread load                                             87 (D)
 DBCSR| MPI: My process id                                                     0
 DBCSR| MPI: Number of processes                                               1
 DBCSR| OMP: Current number of threads                                         1
 DBCSR| OMP: Max number of threads                                             1
 DBCSR| Split modifier for TAS multiplication algorithm                  1.0E+00 (U)


  **** **** ******  **  PROGRAM STARTED AT               2026-05-23 22:46:19.976
 ***** ** ***  *** **   PROGRAM STARTED ON                            spark-c86c
 **    ****   ******    PROGRAM STARTED BY                              kuehne88
 ***** **    ** ** **   PROGRAM PROCESS ID                               2227541
  **** **  *******  **  PROGRAM STARTED IN /home/kuehne88/periodic-gfn2-benchmar
                                           ks/X23b/runs/molecule_geoopt/GFN2/imi
                                           dazole_GFN2_mol_geoopt

 CP2K| version string:                 CP2K version 2026.1 (Development Version)
 CP2K| source code revision number:                                   0622d442e4
 CP2K| cp2kflags: omp fftw3 libxc parallel scalapack mpi_f08 xsmm spglib libdftd
 CP2K|            4 dftd4_v3 mctc-lib tblite
 CP2K| is freely available from                            https://www.cp2k.org/
 CP2K| Program compiled at                                   2026-05-23 22:05:08
 CP2K| Program compiled on                                            spark-c86c
 CP2K| Program compiled for                                              aarch64
 CP2K| Data directory path    /home/kuehne88/cp2k-master-tblite-20260523/install
 CP2K| Input file name                             imidazole_GFN2_mol_geoopt.inp

 GLOBAL| Force Environment number                                              1
 GLOBAL| Basis set file name                                           BASIS_SET
 GLOBAL| Potential file name                                           POTENTIAL
 GLOBAL| MM Potential file name                                     MM_POTENTIAL
 GLOBAL| Coordinate file name                                      __STD_INPUT__
 GLOBAL| Method name                                                        CP2K
 GLOBAL| Project name                                  imidazole_GFN2_mol_geoopt
 GLOBAL| Run type                                                        GEO_OPT
 GLOBAL| FFT library                                                       FFTW3
 GLOBAL| Diagonalization library                                       ScaLAPACK
 GLOBAL| Cholesky decomposition library                                ScaLAPACK
 GLOBAL| DGEMM library                                                      BLAS
 GLOBAL| Direct generalized diagonalization requested                          F
 GLOBAL| Orthonormality check for eigenvectors                          DISABLED
 GLOBAL| Matrix multiplication library                                 ScaLAPACK
 GLOBAL| All-to-all communication in single precision                          F
 GLOBAL| FFTs using library dependent lengths                                  F
 GLOBAL| Grid backend                                                       AUTO
 GLOBAL| Global print level                                                  LOW
 GLOBAL| MPI I/O enabled                                                       T
 GLOBAL| Total number of message passing processes                             1
 GLOBAL| Number of distributed systems (nodes)                                 1
 GLOBAL| Number of threads for this process                                    1
 GLOBAL| This output is from process                                           0
 GLOBAL| OpenMP stack size per thread (OMP_STACKSIZE)                    default
 GLOBAL| CPU model name                                                  UNKNOWN
 GLOBAL| CPUID                                                              2200
 GLOBAL| Compiled for CPUID                                                 2000

 *** HINT in environment.F:970 :: The compiler target flags (arm_arch64)   ***
 *** used to build this binary cannot exploit all extensions of this CPU   ***
 *** model (arm_sve256). Consider compiler target flags as part of FCFLAGS ***
 *** and CFLAGS (ARCH file).                                               ***


 MEMORY| system memory details [Kb]
 MEMORY|                        rank 0           min           max       average
 MEMORY| MemTotal            125508532     125508532     125508532     125508532
 MEMORY| MemFree             105808784     105808784     105808784     105808784
 MEMORY| Buffers                866144        866144        866144        866144
 MEMORY| Cached               13217052      13217052      13217052      13217052
 MEMORY| Slab                  1564704       1564704       1564704       1564704
 MEMORY| SReclaimable           888664        888664        888664        888664
 MEMORY| MemLikelyFree       120780644     120780644     120780644     120780644


 GENERATE|  Preliminary Number of Bonds generated:                             0
 GENERATE|  Achieved consistency in connectivity generation.


                  #####   #####        #     #   #     #       #          
                 #     # #     #      #    ##### #     #   # #####  ####  
                 #     # #           #       #   ###   #       #   #    # 
                 #     #  #####     #        #   #  #  #   #   #   ###### 
                 #   # #       #   #         #   #   # #   #   #   #      
                 #    #  #     #  #          #   #  #  # # #   #    #   # 
                  #### #  #####  #           #   ###   ##  #   #     ###  

                                   GFN2-xTB  
                                 Version 0.0                       
                            Johann V. Pototschnig                  



 TOTAL NUMBERS AND MAXIMUM NUMBERS

  Total number of            - Atomic kinds:                                   3
                             - Atoms:                                          9
                             - Shell sets:                                    14
                             - Shells:                                        14
                             - Primitive Cartesian functions:                 52
                             - Cartesian basis functions:                     24
                             - Spherical basis functions:                     24

  Maximum angular momentum of the orbital basis functions:                     1


 SCF PARAMETERS         Density guess:                                     MOPAC
                        --------------------------------------------------------
                        max_scf:                                             300
                        max_scf_history:                                       0
                        max_diis:                                              4
                        --------------------------------------------------------
                        eps_scf:                                        1.00E-09
                        eps_scf_history:                                0.00E+00
                        eps_diis:                                       1.00E-01
                        eps_eigval:                                     1.00E-05
                        --------------------------------------------------------
                        level_shift [a.u.]:                             0.000000
                        added MOs                                        11    0
                        --------------------------------------------------------
                        Mixing method:                           DIRECT_P_MIXING
                        --------------------------------------------------------
                        Smear method:                                FERMI_DIRAC
                        Electronic temperature [K]:                        300.0
                        Electronic temperature [a.u.]:                  9.50E-04
                        Accuracy threshold:                             1.00E-06
                        --------------------------------------------------------
                        No outer SCF

 BFGS| Use rational function optimization for step estimation:                NO
 BFGS| Use model Hessian for initial guess:                                  YES
 BFGS| Restart Hessian:                                                       NO
 BFGS| Trust radius:                                                       0.472

 *******************************************************************************
 ***                     STARTING GEOMETRY OPTIMIZATION                      ***
 ***                                   BFGS                                  ***
 *******************************************************************************

 Extrapolation method: initial_guess

 Number of electrons:                                                         26
 Number of occupied orbitals:                                                 13
 Number of molecular orbitals:                                                24

 Number of orbital functions:                                                 24
 Number of independent orbital functions:                                     24


 SCF WAVEFUNCTION OPTIMIZATION

  Step     Update method      Time    Convergence         Total energy    Change
  ------------------------------------------------------------------------------
     1 TBLite/Diag 0.40E+00    0.0     1.06336681       -14.2220691871 -1.42E+01
     2 TBLite/Diag 0.40E+00    0.0     0.35347241       -14.2861144636 -6.40E-02
     3 TBLite/Diag 0.40E+00    0.0     0.16893033       -14.2872685107 -1.15E-03
     4 TBLite/Diag 0.40E+00    0.0     0.12432101       -14.2947469779 -7.48E-03
     5 TBLite/Diag 0.40E+00    0.0     0.03510518       -14.2961842877 -1.44E-03
     6 TBLite/Diag 0.40E+00    0.0     0.00614715       -14.2962046855 -2.04E-05
     7 TBLite/Diag 0.40E+00    0.0     0.00494118       -14.2962170013 -1.23E-05
     8 TBLite/Diag 0.40E+00    0.0     0.00190926       -14.2962199320 -2.93E-06
     9 TBLite/Diag 0.40E+00    0.0     0.00050651       -14.2962200294 -9.74E-08
    10 TBLite/Diag 0.40E+00    0.0     0.00039166       -14.2962200201  9.28E-09
    11 TBLite/Diag 0.40E+00    0.0     0.00020996       -14.2962200649 -4.47E-08
    12 TBLite/Diag 0.40E+00    0.0     0.00001975       -14.2962200649 -8.78E-12
    13 TBLite/Diag 0.40E+00    0.0     0.00000987       -14.2962200649 -7.21E-11
    14 TBLite/Diag 0.40E+00    0.0     0.00000067       -14.2962200649 -1.75E-12
    15 TBLite/Diag 0.40E+00    0.0     0.00000042       -14.2962200649 -2.59E-13
    16 TBLite/Diag 0.40E+00    0.0     0.00000006       -14.2962200649  0.00E+00
    17 TBLite/Diag 0.40E+00    0.0     5.1385E-09       -14.2962200649 -1.07E-14
    18 TBLite/Diag 0.40E+00    0.0     1.3644E-09       -14.2962200649  7.11E-15
    19 TBLite/Diag 0.40E+00    0.0     2.2635E-10       -14.2962200649  5.33E-15

  *** SCF run converged in    19 steps ***


  Core Hamiltonian energy:                                    -14.52085552316734
  Repulsive potential energy:                                   0.19938082805255
  Electrostatic energy:                                         0.03013799390506
  Self-consistent dispersion energy:                           -0.00488444944781
  Non-self consistent dispersion energy:                        0.00000108571771
  Correction for halogen bonding:                               0.00000000000000
  Electronic entropic energy:                                  -0.00000000000000
  Fermi energy:                                                -0.24021391630719

  Total energy:                                               -14.29622006493983
  Total energy (extrapolated to T->0):                        -14.29622006493983

 ENERGY| Total FORCE_EVAL ( QS ) energy [hartree]            -14.296220064939829

 OPT| **************************************************************************
 OPT| Step number                                                              0
 OPT| Optimization method                                                   BFGS
 OPT| Total energy [hartree]                                      -14.2962200649
 OPT| Used time [s]                                                        0.017
 OPT| **************************************************************************
 OPT| Estimated peak process memory [MiB]                                    162

 --------------------------
 OPTIMIZATION STEP:      1
 --------------------------

 Extrapolation method: ASPC

 Number of electrons:                                                         26
 Number of occupied orbitals:                                                 13
 Number of molecular orbitals:                                                24

 Number of orbital functions:                                                 24
 Number of independent orbital functions:                                     24


 SCF WAVEFUNCTION OPTIMIZATION

  Step     Update method      Time    Convergence         Total energy    Change
  ------------------------------------------------------------------------------
     1 TBLite/Diag 0.40E+00    0.0     0.02482329       -14.2974824990 -1.43E+01
     2 TBLite/Diag 0.40E+00    0.0     0.00257681       -14.2974902280 -7.73E-06
     3 TBLite/Diag 0.40E+00    0.0     0.00280473       -14.2974865051  3.72E-06
     4 TBLite/Diag 0.40E+00    0.0     0.00217109       -14.2974916041 -5.10E-06
     5 TBLite/Diag 0.40E+00    0.0     0.00043727       -14.2974918240 -2.20E-07
     6 TBLite/Diag 0.40E+00    0.0     0.00017728       -14.2974918202  3.89E-09
     7 TBLite/Diag 0.40E+00    0.0     0.00011627       -14.2974918288 -8.62E-09
     8 TBLite/Diag 0.40E+00    0.0     0.00002492       -14.2974918293 -4.84E-10
     9 TBLite/Diag 0.40E+00    0.0     0.00000171       -14.2974918293 -3.79E-12
    10 TBLite/Diag 0.40E+00    0.0     0.00000041       -14.2974918293 -1.99E-13
    11 TBLite/Diag 0.40E+00    0.0     0.00000004       -14.2974918293  8.88E-15
    12 TBLite/Diag 0.40E+00    0.0     0.00000001       -14.2974918293  0.00E+00
    13 TBLite/Diag 0.40E+00    0.0     3.4920E-09       -14.2974918293  1.78E-15
    14 TBLite/Diag 0.40E+00    0.0     1.7608E-10       -14.2974918293 -3.55E-15

  *** SCF run converged in    14 steps ***


  Core Hamiltonian energy:                                    -14.53447106440268
  Repulsive potential energy:                                   0.21224739125393
  Electrostatic energy:                                         0.02962148079795
  Self-consistent dispersion energy:                           -0.00489067868647
  Non-self consistent dispersion energy:                        0.00000104177368
  Correction for halogen bonding:                               0.00000000000000
  Electronic entropic energy:                                  -0.00000000000000
  Fermi energy:                                                -0.23627325688079

  Total energy:                                               -14.29749182926358
  Total energy (extrapolated to T->0):                        -14.29749182926358

 ENERGY| Total FORCE_EVAL ( QS ) energy [hartree]            -14.297491829263585

 OPT| **************************************************************************
 OPT| Step number                                                              1
 OPT| Optimization method                                                   BFGS
 OPT| Total energy [hartree]                                      -14.2974918293
 OPT| Effective energy change [hartree]                            -0.0012717643
 OPT| Predicted energy change [hartree]                            -0.0010773134
 OPT| Scaling factor                                                0.0000000000
 OPT| Step size                                                     0.0420279995
 OPT| Trust radius                                                  0.4724315332
 OPT| Decrease in energy                                                     YES
 OPT| Used time [s]                                                        0.013
 OPT|
 OPT| Maximum step size                                             0.0420279995
 OPT| Convergence limit for maximum step size                       0.0030000000
 OPT| Maximum step size is converged                                          NO
 OPT|
 OPT| RMS step size                                                 0.0162159631
 OPT| Convergence limit for RMS step size                           0.0015000000
 OPT| RMS step size is converged                                              NO
 OPT|
 OPT| Maximum gradient                                              0.0078533946
 OPT| Convergence limit for maximum gradient                        0.0004500000
 OPT| Maximum gradient is converged                                           NO
 OPT|
 OPT| RMS gradient                                                  0.0024866080
 OPT| Convergence limit for RMS gradient                            0.0003000000
 OPT| RMS gradient is converged                                               NO
 OPT| **************************************************************************
 OPT| Estimated peak process memory after this step [MiB]                    163

 --------------------------
 OPTIMIZATION STEP:      2
 --------------------------

 Extrapolation method: ASPC

 Number of electrons:                                                         26
 Number of occupied orbitals:                                                 13
 Number of molecular orbitals:                                                24

 Number of orbital functions:                                                 24
 Number of independent orbital functions:                                     24


 SCF WAVEFUNCTION OPTIMIZATION

  Step     Update method      Time    Convergence         Total energy    Change
  ------------------------------------------------------------------------------
     1 TBLite/Diag 0.40E+00    0.0     0.01224126       -14.2976071714 -1.43E+01
     2 TBLite/Diag 0.40E+00    0.0     0.00225131       -14.2976132929 -6.12E-06
     3 TBLite/Diag 0.40E+00    0.0     0.00210128       -14.2976121365  1.16E-06
     4 TBLite/Diag 0.40E+00    0.0     0.00196596       -14.2976140393 -1.90E-06
     5 TBLite/Diag 0.40E+00    0.0     0.00051076       -14.2976143184 -2.79E-07
     6 TBLite/Diag 0.40E+00    0.0     0.00010300       -14.2976143164  1.98E-09
     7 TBLite/Diag 0.40E+00    0.0     0.00007309       -14.2976143213 -4.85E-09
     8 TBLite/Diag 0.40E+00    0.0     0.00001391       -14.2976143214 -1.62E-10
     9 TBLite/Diag 0.40E+00    0.0     0.00000192       -14.2976143215 -4.05E-12
    10 TBLite/Diag 0.40E+00    0.0     0.00000074       -14.2976143215 -9.24E-13
    11 TBLite/Diag 0.40E+00    0.0     0.00000007       -14.2976143215 -3.55E-15
    12 TBLite/Diag 0.40E+00    0.0     0.00000002       -14.2976143215 -3.55E-15
    13 TBLite/Diag 0.40E+00    0.0     4.1190E-09       -14.2976143215  1.07E-14
    14 TBLite/Diag 0.40E+00    0.0     6.3579E-10       -14.2976143215 -8.88E-15

  *** SCF run converged in    14 steps ***


  Core Hamiltonian energy:                                    -14.54143608316473
  Repulsive potential energy:                                   0.21932949629422
  Electrostatic energy:                                         0.02938105642145
  Self-consistent dispersion energy:                           -0.00488981077605
  Non-self consistent dispersion energy:                        0.00000101977390
  Correction for halogen bonding:                               0.00000000000000
  Electronic entropic energy:                                  -0.00000000000000
  Fermi energy:                                                -0.23381266775606

  Total energy:                                               -14.29761432145121
  Total energy (extrapolated to T->0):                        -14.29761432145121

 ENERGY| Total FORCE_EVAL ( QS ) energy [hartree]            -14.297614321451208

 OPT| **************************************************************************
 OPT| Step number                                                              2
 OPT| Optimization method                                                   BFGS
 OPT| Total energy [hartree]                                      -14.2976143215
 OPT| Effective energy change [hartree]                            -0.0001224922
 OPT| Predicted energy change [hartree]                            -0.0002393495
 OPT| Scaling factor                                                0.0000000000
 OPT| Step size                                                     0.0263602319
 OPT| Trust radius                                                  0.4724315332
 OPT| Decrease in energy                                                     YES
 OPT| Used time [s]                                                        0.013
 OPT|
 OPT| Maximum step size                                             0.0263602319
 OPT| Convergence limit for maximum step size                       0.0030000000
 OPT| Maximum step size is converged                                          NO
 OPT|
 OPT| RMS step size                                                 0.0103449857
 OPT| Convergence limit for RMS step size                           0.0015000000
 OPT| RMS step size is converged                                              NO
 OPT|
 OPT| Maximum gradient                                              0.0036003595
 OPT| Convergence limit for maximum gradient                        0.0004500000
 OPT| Maximum gradient is converged                                           NO
 OPT|
 OPT| RMS gradient                                                  0.0012435001
 OPT| Convergence limit for RMS gradient                            0.0003000000
 OPT| RMS gradient is converged                                               NO
 OPT| **************************************************************************
 OPT| Estimated peak process memory after this step [MiB]                    163

 --------------------------
 OPTIMIZATION STEP:      3
 --------------------------

 Extrapolation method: ASPC

 Number of electrons:                                                         26
 Number of occupied orbitals:                                                 13
 Number of molecular orbitals:                                                24

 Number of orbital functions:                                                 24
 Number of independent orbital functions:                                     24


 SCF WAVEFUNCTION OPTIMIZATION

  Step     Update method      Time    Convergence         Total energy    Change
  ------------------------------------------------------------------------------
     1 TBLite/Diag 0.40E+00    0.0     0.00338825       -14.2976625794 -1.43E+01
     2 TBLite/Diag 0.40E+00    0.0     0.00082137       -14.2976629260 -3.47E-07
     3 TBLite/Diag 0.40E+00    0.0     0.00092593       -14.2976626065  3.20E-07
     4 TBLite/Diag 0.40E+00    0.0     0.00082450       -14.2976630705 -4.64E-07
     5 TBLite/Diag 0.40E+00    0.0     0.00009493       -14.2976630749 -4.37E-09
     6 TBLite/Diag 0.40E+00    0.0     0.00006395       -14.2976630760 -1.09E-09
     7 TBLite/Diag 0.40E+00    0.0     0.00002189       -14.2976630765 -5.42E-10
     8 TBLite/Diag 0.40E+00    0.0     0.00000158       -14.2976630765 -3.58E-12
     9 TBLite/Diag 0.40E+00    0.0     0.00000052       -14.2976630765 -3.91E-13
    10 TBLite/Diag 0.40E+00    0.0     0.00000013       -14.2976630765 -4.80E-14
    11 TBLite/Diag 0.40E+00    0.0     0.00000003       -14.2976630765  5.33E-15
    12 TBLite/Diag 0.40E+00    0.0     9.7643E-09       -14.2976630765  5.33E-15
    13 TBLite/Diag 0.40E+00    0.0     1.5389E-09       -14.2976630765  3.55E-15
    14 TBLite/Diag 0.40E+00    0.0     2.1110E-10       -14.2976630765  0.00E+00

  *** SCF run converged in    14 steps ***


  Core Hamiltonian energy:                                    -14.53959948861484
  Repulsive potential energy:                                   0.21740189160336
  Electrostatic energy:                                         0.02942407735504
  Self-consistent dispersion energy:                           -0.00489058306413
  Non-self consistent dispersion energy:                        0.00000102619483
  Correction for halogen bonding:                               0.00000000000000
  Electronic entropic energy:                                  -0.00000000000000
  Fermi energy:                                                -0.23445014341114

  Total energy:                                               -14.29766307652573
  Total energy (extrapolated to T->0):                        -14.29766307652573

 ENERGY| Total FORCE_EVAL ( QS ) energy [hartree]            -14.297663076525733

 OPT| **************************************************************************
 OPT| Step number                                                              3
 OPT| Optimization method                                                   BFGS
 OPT| Total energy [hartree]                                      -14.2976630765
 OPT| Effective energy change [hartree]                            -0.0000487551
 OPT| Predicted energy change [hartree]                            -0.0000478778
 OPT| Scaling factor                                                0.0000000000
 OPT| Step size                                                     0.0099151099
 OPT| Trust radius                                                  0.4724315332
 OPT| Decrease in energy                                                     YES
 OPT| Used time [s]                                                        0.013
 OPT|
 OPT| Maximum step size                                             0.0099151099
 OPT| Convergence limit for maximum step size                       0.0030000000
 OPT| Maximum step size is converged                                          NO
 OPT|
 OPT| RMS step size                                                 0.0038425689
 OPT| Convergence limit for RMS step size                           0.0015000000
 OPT| RMS step size is converged                                              NO
 OPT|
 OPT| Maximum gradient                                              0.0008989734
 OPT| Convergence limit for maximum gradient                        0.0004500000
 OPT| Maximum gradient is converged                                           NO
 OPT|
 OPT| RMS gradient                                                  0.0002912445
 OPT| Convergence limit for RMS gradient                            0.0003000000
 OPT| RMS gradient is converged                                              YES
 OPT| **************************************************************************
 OPT| Estimated peak process memory after this step [MiB]                    163

 --------------------------
 OPTIMIZATION STEP:      4
 --------------------------

 Extrapolation method: ASPC

 Number of electrons:                                                         26
 Number of occupied orbitals:                                                 13
 Number of molecular orbitals:                                                24

 Number of orbital functions:                                                 24
 Number of independent orbital functions:                                     24


 SCF WAVEFUNCTION OPTIMIZATION

  Step     Update method      Time    Convergence         Total energy    Change
  ------------------------------------------------------------------------------
     1 TBLite/Diag 0.40E+00    0.0     0.00072222       -14.2976644400 -1.43E+01
     2 TBLite/Diag 0.40E+00    0.0     0.00026898       -14.2976644851 -4.51E-08
     3 TBLite/Diag 0.40E+00    0.0     0.00013061       -14.2976644914 -6.30E-09
     4 TBLite/Diag 0.40E+00    0.0     0.00008507       -14.2976644952 -3.80E-09
     5 TBLite/Diag 0.40E+00    0.0     0.00003066       -14.2976644960 -7.41E-10
     6 TBLite/Diag 0.40E+00    0.0     0.00000664       -14.2976644960 -2.27E-11
     7 TBLite/Diag 0.40E+00    0.0     0.00000250       -14.2976644960 -3.82E-12
     8 TBLite/Diag 0.40E+00    0.0     0.00000030       -14.2976644960 -1.26E-13
     9 TBLite/Diag 0.40E+00    0.0     0.00000008       -14.2976644960 -2.13E-14
    10 TBLite/Diag 0.40E+00    0.0     0.00000003       -14.2976644960  8.88E-15
    11 TBLite/Diag 0.40E+00    0.0     2.0256E-09       -14.2976644960  8.88E-15
    12 TBLite/Diag 0.40E+00    0.0     1.7058E-10       -14.2976644960 -1.42E-14

  *** SCF run converged in    12 steps ***


  Core Hamiltonian energy:                                    -14.53939416284997
  Repulsive potential energy:                                   0.21719691588273
  Electrostatic energy:                                         0.02942223841281
  Self-consistent dispersion energy:                           -0.00489051457697
  Non-self consistent dispersion energy:                        0.00000102712066
  Correction for halogen bonding:                               0.00000000000000
  Electronic entropic energy:                                  -0.00000000000000
  Fermi energy:                                                -0.23451433379638

  Total energy:                                               -14.29766449601074
  Total energy (extrapolated to T->0):                        -14.29766449601074

 ENERGY| Total FORCE_EVAL ( QS ) energy [hartree]            -14.297664496010736

 OPT| **************************************************************************
 OPT| Step number                                                              4
 OPT| Optimization method                                                   BFGS
 OPT| Total energy [hartree]                                      -14.2976644960
 OPT| Effective energy change [hartree]                            -0.0000014195
 OPT| Predicted energy change [hartree]                            -0.0000009880
 OPT| Scaling factor                                                0.0000000000
 OPT| Step size                                                     0.0014441780
 OPT| Trust radius                                                  0.4724315332
 OPT| Decrease in energy                                                     YES
 OPT| Used time [s]                                                        0.012
 OPT|
 OPT| Maximum step size                                             0.0014441780
 OPT| Convergence limit for maximum step size                       0.0030000000
 OPT| Maximum step size is converged                                         YES
 OPT|
 OPT| RMS step size                                                 0.0004951989
 OPT| Convergence limit for RMS step size                           0.0015000000
 OPT| RMS step size is converged                                             YES
 OPT|
 OPT| Maximum gradient                                              0.0004312192
 OPT| Convergence limit for maximum gradient                        0.0004500000
 OPT| Maximum gradient is converged                                          YES
 OPT|
 OPT| RMS gradient                                                  0.0001403921
 OPT| Convergence limit for RMS gradient                            0.0003000000
 OPT| RMS gradient is converged                                              YES
 OPT| **************************************************************************
 OPT| Estimated peak process memory after this step [MiB]                    163

 *******************************************************************************
 ***                    GEOMETRY OPTIMIZATION COMPLETED                      ***
 *******************************************************************************

 write_final_structure: Optimization converged, writing XYZ file gladly:
  imidazole_GFN2_mol_geoopt-FINAL-1_4.xyz

 write_final_structure: Optimization converged, writing CIF file gladly:
  imidazole_GFN2_mol_geoopt-FINAL-1_4.cif

 write_final_structure: Done!

                    Reevaluating energy at the minimum

 Extrapolation method: ASPC

 Number of electrons:                                                         26
 Number of occupied orbitals:                                                 13
 Number of molecular orbitals:                                                24

 Number of orbital functions:                                                 24
 Number of independent orbital functions:                                     24


 SCF WAVEFUNCTION OPTIMIZATION

  Step     Update method      Time    Convergence         Total energy    Change
  ------------------------------------------------------------------------------
     1 TBLite/Diag 0.40E+00    0.0     3.3018E-10       -14.2976644960 -1.43E+01

  *** SCF run converged in     1 steps ***


  Core Hamiltonian energy:                                    -14.53939416285113
  Repulsive potential energy:                                   0.21719691588273
  Electrostatic energy:                                         0.02942223841400
  Self-consistent dispersion energy:                           -0.00489051457699
  Non-self consistent dispersion energy:                        0.00000102712066
  Correction for halogen bonding:                               0.00000000000000
  Electronic entropic energy:                                  -0.00000000000000
  Fermi energy:                                                -0.23451433379456

  Total energy:                                               -14.29766449601073
  Total energy (extrapolated to T->0):                        -14.29766449601073

 ENERGY| Total FORCE_EVAL ( QS ) energy [hartree]            -14.297664496010729

 -------------------------------------------------------------------------------
 -                                                                             -
 -                                DBCSR STATISTICS                             -
 -                                                                             -
 -------------------------------------------------------------------------------
 COUNTER                                    TOTAL       BLAS       SMM       ACC
 flops     1 x    24 x     1                11520       0.0%    100.0%      0.0%     
 flops     1 x     1 x    24                40320       0.0%    100.0%      0.0%     
 flops     1 x    24 x     4                57600       0.0%    100.0%      0.0%     
 flops     4 x    24 x     1                57600       0.0%    100.0%      0.0%     
 flops     1 x     4 x    24               161280       0.0%    100.0%      0.0%     
 flops     4 x     1 x    24               161280       0.0%    100.0%      0.0%     
 flops     4 x    24 x     4               288000       0.0%    100.0%      0.0%     
 flops     4 x     4 x    24               967680       0.0%    100.0%      0.0%     
 flops inhomo. stacks                           0       0.0%      0.0%      0.0%
 flops total                         1.745280E+06       0.0%    100.0%      0.0%
 flops max/rank                      1.745280E+06       0.0%    100.0%      0.0%
 matmuls inhomo. stacks                         0       0.0%      0.0%      0.0%
 matmuls total                               4995       0.0%    100.0%      0.0%
 number of processed stacks                   396       0.0%    100.0%      0.0%
 average stack size                                     0.0      12.6       0.0
 marketing flops                     1.672704E+06
 -------------------------------------------------------------------------------
 # multiplications                             99
 max memory usage/rank              13.670154E+09
 # max total images/rank                        1
 # max 3D layers                                1
 # MPI messages exchanged                       0
 -------------------------------------------------------------------------------
 -                                                                             -
 -                      DBCSR MESSAGE PASSING PERFORMANCE                      -
 -                                                                             -
 -------------------------------------------------------------------------------
 ROUTINE             CALLS      AVE VOLUME [Bytes]
 MP_Bcast                9                     12.
 MP_Allreduce          500                      9.
 MP_Alltoall          3435                   3268.
 MP_ISend              396                    289.
 MP_IRecv              396                    289.
 -------------------------------------------------------------------------------

 -------------------------------------------------------------------------------
 -                                                                             -
 -                          OFFLOAD MEMPOOL STATISTICS                         -
 -                                                                             -
 -------------------------------------------------------------------------------
 Memory consumption                Number of allocations  Used [MiB]  Size [MiB]
 Device                                                1           0           0
 Host                                                  1           0           0
 -------------------------------------------------------------------------------

 MEMORY| Estimated peak process memory [MiB]                                 163

 -------------------------------------------------------------------------------
 -                                                                             -
 -                         MESSAGE PASSING PERFORMANCE                         -
 -                                                                             -
 -------------------------------------------------------------------------------

 ROUTINE             CALLS      AVE VOLUME [Bytes]
 MP_Group                1
 MP_Bcast              162                    102.
 MP_Allreduce         2522                     70.
 MP_Sync                85
 MP_comm_split          84
 -------------------------------------------------------------------------------


 -------------------------------------------------------------------------------
 -                                                                             -
 -                           R E F E R E N C E S                               -
 -                                                                             -
 -------------------------------------------------------------------------------
 
 CP2K version 2026.1 (Development Version), the CP2K developers group (2026).
 CP2K is freely available from https://www.cp2k.org/ .
 
 M. Iannuzzi, J. Wilhelm, F. Stein, A. Bussy, H. Elgabarty, D. Golze, A. Hehn, 
 M. Graml, S. Marek, B. Sertcan Gökmen, C. Schran, H. Forbert, R. Z. 
 Khaliullin, A. Kozhevnikov, M. Taillefumier, R. Meli, V. V. Rybkin, M. Brehm, 
 R. Schade, O. Schütt, J. V. Pototschnig, H. Mirhosseini, A. Knüpfer, D. Marx, 
 M. Krack, J. Hutter, T. D. Kühne.
 J. Phys. Chem. B 130, 1237-1310 (2026).
 The CP2K Program Package Made Simple.
 https://doi.org/10.1021/acs.jpcb.5c05851

 A. Katbashev, M. Stahn, T. Rose, V. Alizadeh, M. Friede, C. Plett, P. 
 Steinbach, S. Ehlert.
 J. Phys. Chem. A 129, 2667-2682 (2025).
 Overview on Building Blocks and Applications of Efficient and Robust Extended 
 Tight Binding.
 https://doi.org/10.1021/acs.jpca.4c08263

 T. D. Kühne, M. Iannuzzi, M. Del Ben, V. V. Rybkin, P. Seewald, F. Stein, T. 
 Laino, R. Z. Khaliullin, O. Schütt, F. Schiffmann, D. Golze, J. Wilhelm, S. 
 Chulkov, M. H. Bani-Hashemian, V. Weber, U. Borstnik, M. Taillefumier, A. S. 
 Jakobovits, A. Lazzaro, H. Pabst, T. Müller, R. Schade, M. Guidon, S. 
 Andermatt, N. Holmberg, G. K. Schenter, A. Hehn, A. Bussy, F. Belleflamme, G. 
 Tabacchi, A. Glöß, M. Lass, I. Bethune, C. J. Mundy, C. Plessl, M. Watkins, 
 J. VandeVondele, M. Krack, J. Hutter.
 J. Chem. Phys. 152, 194103 (2020).
 CP2K: An electronic structure and molecular dynamics software package - 
 Quickstep: Efficient and accurate electronic structure calculations.
 https://doi.org/10.1063/5.0007045

 P. Pracht, E. Caldeweyher, S. Ehlert, S. Grimme.
 ChemRxiv, (2019).
 A Robust Non-Self-Consistent Tight-Binding Quantum Chemistry Method for large 
 Molecules.
 https://doi.org/10.26434/chemrxiv.8326202.v1

 S. Grimme, C. Bannwarth, P. Shushkov.
 J. Chem. Theory Comput. 13, 1989 (2017).
 A Robust and Accurate Tight-Binding Quantum Chemical Method for Structures, 
 Vibrational Frequencies, and Noncovalent Interactions of Large Molecular 
 Systems Parametrized for All spd-Block Elements (Z = 1-86).
 https://doi.org/10.1021/acs.jctc.7b00118

 O. Schuett, P. Messmer, J. Hutter, J. VandeVondele.
 Electronic Structure Calculations on Graphics Processing Units, 173-190 (2016).
 GPU-Accelerated Sparse Matrix-Matrix Multiplication for Linear Scaling Density 
 Functional Theory.
 https://doi.org/10.1002/9781118670712.ch8

 A. Heinecke, G. Henry, M. Hutchinson, H. Pabst.
 Proceedings of Intl. Supercomputing Conference, 981-991 (2016).
 LIBXSMM: Accelerating Small Matrix Multiplications by Runtime Code Generation.
 https://doi.org/10.1109/SC.2016.83

 U. Borstnik, J. VandeVondele, V. Weber, J. Hutter.
 Parallel Comput. 40, 47-58 (2014).
 Sparse matrix multiplication: The distributed block-compressed sparse row 
 library.
 https://doi.org/10.1016/j.parco.2014.03.012

 T. D. Kühne, M. Krack, F. R. Mohamed, M. Parrinello.
 Phys. Rev. Lett. 98, 066401 (2007).
 Efficient and accurate Car-Parrinello-like approach to Born-Oppenheimer 
 molecular dynamics.
 https://doi.org/10.1103/PhysRevLett.98.066401

 M. Frigo, S. G. Johnson.
 Proc. IEEE 93, 216-231 (2005).
 The design and implementation of FFTW3.
 https://doi.org/10.1109/JPROC.2004.840301

 J. Kolafa.
 J. Comput. Chem. 25, 335-342 (2004).
 Time-reversible always stable predictor-corrector method for molecular dynamics 
 of polarizable molecules.
 https://doi.org/10.1002/jcc.10385

 N. D. Mermin.
 Phys. Rev. 137, A1441-A1443 (1965).
 Thermal Properties of the Inhomogeneous Electron Gas.
 https://doi.org/10.1103/PhysRev.137.A1441


 -------------------------------------------------------------------------------
 -                                                                             -
 -                                T I M I N G                                  -
 -                                                                             -
 -------------------------------------------------------------------------------
 SUBROUTINE                       CALLS  ASD         SELF TIME        TOTAL TIME
                                MAXIMUM       AVERAGE  MAXIMUM  AVERAGE  MAXIMUM
 CP2K                                 1  1.0    0.001    0.001    0.075    0.075
 cp_geo_opt                           1  2.0    0.000    0.000    0.070    0.070
 geoopt_bfgs                          1  3.0    0.000    0.000    0.070    0.070
 cp_eval_at                           6  4.0    0.000    0.000    0.067    0.067
 qs_forces                            5  5.0    0.000    0.000    0.064    0.064
 qs_energies                          6  5.8    0.000    0.000    0.062    0.062
 scf_env_do_scf                       6  6.8    0.000    0.000    0.051    0.051
 scf_env_do_scf_inner_loop           74  8.0    0.004    0.004    0.051    0.051
 qs_scf_new_mos                      74  9.0    0.000    0.000    0.036    0.036
 cp_dbcsr_plus_fm_fm_t               84 10.9    0.000    0.000    0.020    0.020
 calculate_dm_sparse                 79 10.0    0.000    0.000    0.019    0.019
 dbcsr_multiply_generic              99 11.9    0.001    0.001    0.017    0.017
 copy_dbcsr_to_fm                   163 10.5    0.000    0.000    0.010    0.010
 make_m2s                           198 12.9    0.001    0.001    0.010    0.010
 rebuild_ks_matrix                   79  9.8    0.000    0.000    0.009    0.009
 build_tblite_ks_matrix              79 10.8    0.009    0.009    0.009    0.009
 dbcsr_complete_redistribute        346 12.2    0.004    0.004    0.009    0.009
 qs_ks_update_qs_env                 74  9.0    0.000    0.000    0.008    0.008
 eigensolver                         74 10.0    0.001    0.001    0.007    0.007
 cp_fm_syevd                         84 10.7    0.000    0.000    0.006    0.006
 qs_diis_b_step                      68 10.0    0.000    0.000    0.006    0.006
 init_scf_run                         6  6.8    0.000    0.000    0.006    0.006
 build_tblite_matrices               11  7.0    0.002    0.002    0.005    0.005
 scf_env_initial_rho_setup            6  7.8    0.000    0.000    0.005    0.005
 wfi_extrapolate                      6  8.8    0.000    0.000    0.005    0.005
 copy_fm_to_dbcsr                   183 11.8    0.000    0.000    0.005    0.005
 make_images                        198 13.9    0.001    0.001    0.004    0.004
 cp_fm_syevd_base                    84 11.7    0.004    0.004    0.004    0.004
 dbcsr_finalize                    1853 12.2    0.001    0.001    0.004    0.004
 qs_energies_init_hamiltonians        6  6.8    0.000    0.000    0.003    0.003
 multiply_cannon                     99 12.9    0.001    0.001    0.003    0.003
 cp_dbcsr_sm_fm_multiply             15 10.3    0.000    0.000    0.003    0.003
 tb_get_multipole                    11  8.0    0.002    0.002    0.003    0.003
 dbcsr_create_new                  2638 13.1    0.002    0.002    0.003    0.003
 qs_init_subsys                       1  2.0    0.000    0.000    0.003    0.003
 dbcsr_desymmetrize_deep            163 11.5    0.001    0.001    0.003    0.003
 dbcsr_crop_matrix                  168 13.9    0.000    0.000    0.003    0.003
 qs_ks_update_qs_env_forces           5  6.0    0.000    0.000    0.002    0.002
 dbcsr_copy_submatrix               168 14.9    0.001    0.001    0.002    0.002
 dbcsr_iterator_start              4533 12.6    0.002    0.002    0.002    0.002
 dbcsr_merge_all                    598 14.9    0.001    0.001    0.002    0.002
 cp_dbcsr_sm_fm_multiply_core        15 11.3    0.000    0.000    0.002    0.002
 reorthogonalize_vectors              5  9.8    0.000    0.000    0.002    0.002
 cp_fm_redistribute_start            84 11.7    0.001    0.001    0.002    0.002
 make_basis_lowdin                    5 10.8    0.000    0.000    0.002    0.002
 parallel_gemm_fm_gemm              171 10.7    0.000    0.000    0.002    0.002
 cp_fm_gemm                         171 11.7    0.002    0.002    0.002    0.002
 dbcsr_iterator_stop               4533 12.6    0.001    0.001    0.002    0.002
 -------------------------------------------------------------------------------

 The number of warnings for this run is : 0
 
 -------------------------------------------------------------------------------
  **** **** ******  **  PROGRAM ENDED AT                 2026-05-23 22:46:20.825
 ***** ** ***  *** **   PROGRAM RAN ON                                spark-c86c
 **    ****   ******    PROGRAM RAN BY                                  kuehne88
 ***** **    ** ** **   PROGRAM PROCESS ID                               2227541
  **** **  *******  **  PROGRAM STOPPED IN /home/kuehne88/periodic-gfn2-benchmar
                                           ks/X23b/runs/molecule_geoopt/GFN2/imi
                                           dazole_GFN2_mol_geoopt
