 DBCSR| CPU Multiplication driver                                           XSMM (U)
 DBCSR| Multrec recursion limit                                              512 (U)
 DBCSR| Multiplication stack size                                           1000 (D)
 DBCSR| Maximum elements for images                                    UNLIMITED (U)
 DBCSR| Multiplicative factor virtual images                                   1 (U)
 DBCSR| Use multiplication densification                                       T (D)
 DBCSR| Multiplication size stacks                                             3 (U)
 DBCSR| Use memory pool for CPU allocation                                     F (U)
 DBCSR| Number of 3D layers                                               SINGLE (U)
 DBCSR| Use MPI memory allocation                                              F (U)
 DBCSR| Use RMA algorithm                                                      F (U)
 DBCSR| Use Communication thread                                               T (U)
 DBCSR| Communication thread load                                             87 (D)
 DBCSR| MPI: My process id                                                     0
 DBCSR| MPI: Number of processes                                               1
 DBCSR| OMP: Current number of threads                                         1
 DBCSR| OMP: Max number of threads                                             1
 DBCSR| Split modifier for TAS multiplication algorithm                  1.0E+00 (U)


  **** **** ******  **  PROGRAM STARTED AT               2026-05-23 22:46:18.309
 ***** ** ***  *** **   PROGRAM STARTED ON                            spark-c86c
 **    ****   ******    PROGRAM STARTED BY                              kuehne88
 ***** **    ** ** **   PROGRAM PROCESS ID                               2222444
  **** **  *******  **  PROGRAM STARTED IN /home/kuehne88/periodic-gfn2-benchmar
                                           ks/X23b/runs/molecule_geoopt/GFN1/cyt
                                           osine_GFN1_mol_geoopt

 CP2K| version string:                 CP2K version 2026.1 (Development Version)
 CP2K| source code revision number:                                   0622d442e4
 CP2K| cp2kflags: omp fftw3 libxc parallel scalapack mpi_f08 xsmm spglib libdftd
 CP2K|            4 dftd4_v3 mctc-lib tblite
 CP2K| is freely available from                            https://www.cp2k.org/
 CP2K| Program compiled at                                   2026-05-23 22:05:08
 CP2K| Program compiled on                                            spark-c86c
 CP2K| Program compiled for                                              aarch64
 CP2K| Data directory path    /home/kuehne88/cp2k-master-tblite-20260523/install
 CP2K| Input file name                              cytosine_GFN1_mol_geoopt.inp

 GLOBAL| Force Environment number                                              1
 GLOBAL| Basis set file name                                           BASIS_SET
 GLOBAL| Potential file name                                           POTENTIAL
 GLOBAL| MM Potential file name                                     MM_POTENTIAL
 GLOBAL| Coordinate file name                                      __STD_INPUT__
 GLOBAL| Method name                                                        CP2K
 GLOBAL| Project name                                   cytosine_GFN1_mol_geoopt
 GLOBAL| Run type                                                        GEO_OPT
 GLOBAL| FFT library                                                       FFTW3
 GLOBAL| Diagonalization library                                       ScaLAPACK
 GLOBAL| Cholesky decomposition library                                ScaLAPACK
 GLOBAL| DGEMM library                                                      BLAS
 GLOBAL| Direct generalized diagonalization requested                          F
 GLOBAL| Orthonormality check for eigenvectors                          DISABLED
 GLOBAL| Matrix multiplication library                                 ScaLAPACK
 GLOBAL| All-to-all communication in single precision                          F
 GLOBAL| FFTs using library dependent lengths                                  F
 GLOBAL| Grid backend                                                       AUTO
 GLOBAL| Global print level                                                  LOW
 GLOBAL| MPI I/O enabled                                                       T
 GLOBAL| Total number of message passing processes                             1
 GLOBAL| Number of distributed systems (nodes)                                 1
 GLOBAL| Number of threads for this process                                    1
 GLOBAL| This output is from process                                           0
 GLOBAL| OpenMP stack size per thread (OMP_STACKSIZE)                    default
 GLOBAL| CPU model name                                                  UNKNOWN
 GLOBAL| CPUID                                                              2200
 GLOBAL| Compiled for CPUID                                                 2000

 *** HINT in environment.F:970 :: The compiler target flags (arm_arch64)   ***
 *** used to build this binary cannot exploit all extensions of this CPU   ***
 *** model (arm_sve256). Consider compiler target flags as part of FCFLAGS ***
 *** and CFLAGS (ARCH file).                                               ***


 MEMORY| system memory details [Kb]
 MEMORY|                        rank 0           min           max       average
 MEMORY| MemTotal            125508532     125508532     125508532     125508532
 MEMORY| MemFree             105628160     105628160     105628160     105628160
 MEMORY| Buffers                865984        865984        865984        865984
 MEMORY| Cached               13214800      13214800      13214800      13214800
 MEMORY| Slab                  1565168       1565168       1565168       1565168
 MEMORY| SReclaimable           888300        888300        888300        888300
 MEMORY| MemLikelyFree       120597244     120597244     120597244     120597244


 GENERATE|  Preliminary Number of Bonds generated:                             0
 GENERATE|  Achieved consistency in connectivity generation.


                  #####   #####        #     #   #     #       #          
                 #     # #     #      #    ##### #     #   # #####  ####  
                 #     # #           #       #   ###   #       #   #    # 
                 #     #  #####     #        #   #  #  #   #   #   ###### 
                 #   # #       #   #         #   #   # #   #   #   #      
                 #    #  #     #  #          #   #  #  # # #   #    #   # 
                  #### #  #####  #           #   ###   ##  #   #     ###  

                                   GFN1-xTB  
                                 Version 0.0                       
                            Johann V. Pototschnig                  



 TOTAL NUMBERS AND MAXIMUM NUMBERS

  Total number of            - Atomic kinds:                                   4
                             - Atoms:                                         13
                             - Shell sets:                                    26
                             - Shells:                                        26
                             - Primitive Cartesian functions:                151
                             - Cartesian basis functions:                     42
                             - Spherical basis functions:                     42

  Maximum angular momentum of the orbital basis functions:                     1


 SCF PARAMETERS         Density guess:                                     MOPAC
                        --------------------------------------------------------
                        max_scf:                                             300
                        max_scf_history:                                       0
                        max_diis:                                              4
                        --------------------------------------------------------
                        eps_scf:                                        1.00E-09
                        eps_scf_history:                                0.00E+00
                        eps_diis:                                       1.00E-01
                        eps_eigval:                                     1.00E-05
                        --------------------------------------------------------
                        level_shift [a.u.]:                             0.000000
                        added MOs                                        21    0
                        --------------------------------------------------------
                        Mixing method:                           DIRECT_P_MIXING
                        --------------------------------------------------------
                        Smear method:                                FERMI_DIRAC
                        Electronic temperature [K]:                        300.0
                        Electronic temperature [a.u.]:                  9.50E-04
                        Accuracy threshold:                             1.00E-06
                        --------------------------------------------------------
                        No outer SCF

 BFGS| Use rational function optimization for step estimation:                NO
 BFGS| Use model Hessian for initial guess:                                  YES
 BFGS| Restart Hessian:                                                       NO
 BFGS| Trust radius:                                                       0.472

 *******************************************************************************
 ***                     STARTING GEOMETRY OPTIMIZATION                      ***
 ***                                   BFGS                                  ***
 *******************************************************************************

 Extrapolation method: initial_guess

 Number of electrons:                                                         42
 Number of occupied orbitals:                                                 21
 Number of molecular orbitals:                                                42

 Number of orbital functions:                                                 42
 Number of independent orbital functions:                                     42


 SCF WAVEFUNCTION OPTIMIZATION

  Step     Update method      Time    Convergence         Total energy    Change
  ------------------------------------------------------------------------------
     1 TBLite/Diag 0.40E+00    0.0     1.60379260       -25.0638824428 -2.51E+01
     2 TBLite/Diag 0.40E+00    0.0     0.34976348       -25.4465521883 -3.83E-01
     3 TBLite/Diag 0.40E+00    0.0     0.06582846       -25.4521797879 -5.63E-03
     4 TBLite/Diag 0.40E+00    0.0     0.02980060       -25.4527615596 -5.82E-04
     5 TBLite/Diag 0.40E+00    0.0     0.01417055       -25.4530824807 -3.21E-04
     6 TBLite/Diag 0.40E+00    0.0     0.00529074       -25.4531322575 -4.98E-05
     7 TBLite/Diag 0.40E+00    0.0     0.00170259       -25.4531413267 -9.07E-06
     8 TBLite/Diag 0.40E+00    0.0     0.00031728       -25.4531414374 -1.11E-07
     9 TBLite/Diag 0.40E+00    0.0     0.00013966       -25.4531414556 -1.82E-08
    10 TBLite/Diag 0.40E+00    0.0     0.00004894       -25.4531414569 -1.25E-09
    11 TBLite/Diag 0.40E+00    0.0     0.00001397       -25.4531414570 -1.54E-10
    12 TBLite/Diag 0.40E+00    0.0     0.00000104       -25.4531414570 -3.13E-12
    13 TBLite/Diag 0.40E+00    0.0     0.00000096       -25.4531414570 -9.13E-13
    14 TBLite/Diag 0.40E+00    0.0     0.00000021       -25.4531414570  6.75E-14
    15 TBLite/Diag 0.40E+00    0.0     0.00000025       -25.4531414570 -6.75E-14
    16 TBLite/Diag 0.40E+00    0.0     0.00000001       -25.4531414570  1.07E-14
    17 TBLite/Diag 0.40E+00    0.0     3.6796E-09       -25.4531414570  0.00E+00
    18 TBLite/Diag 0.40E+00    0.0     2.2611E-11       -25.4531414570  7.11E-15

  *** SCF run converged in    18 steps ***


  Core Hamiltonian energy:                                    -25.84388548519665
  Repulsive potential energy:                                   0.28800410512363
  Electrostatic energy:                                         0.10818903480336
  Self-consistent dispersion energy:                            0.00000000000000
  Non-self consistent dispersion energy:                       -0.00544911178014
  Correction for halogen bonding:                               0.00000000000000
  Electronic entropic energy:                                  -0.00000000000000
  Fermi energy:                                                -0.32468979600144

  Total energy:                                               -25.45314145704980
  Total energy (extrapolated to T->0):                        -25.45314145704980

 ENERGY| Total FORCE_EVAL ( QS ) energy [hartree]            -25.453141457049796

 OPT| **************************************************************************
 OPT| Step number                                                              0
 OPT| Optimization method                                                   BFGS
 OPT| Total energy [hartree]                                      -25.4531414570
 OPT| Used time [s]                                                        0.020
 OPT| **************************************************************************
 OPT| Estimated peak process memory [MiB]                                    166

 --------------------------
 OPTIMIZATION STEP:      1
 --------------------------

 Extrapolation method: ASPC

 Number of electrons:                                                         42
 Number of occupied orbitals:                                                 21
 Number of molecular orbitals:                                                42

 Number of orbital functions:                                                 42
 Number of independent orbital functions:                                     42


 SCF WAVEFUNCTION OPTIMIZATION

  Step     Update method      Time    Convergence         Total energy    Change
  ------------------------------------------------------------------------------
     1 TBLite/Diag 0.40E+00    0.0     0.01789914       -25.4541606402 -2.55E+01
     2 TBLite/Diag 0.40E+00    0.0     0.00498546       -25.4541948442 -3.42E-05
     3 TBLite/Diag 0.40E+00    0.0     0.00142349       -25.4541972214 -2.38E-06
     4 TBLite/Diag 0.40E+00    0.0     0.00046670       -25.4541973729 -1.52E-07
     5 TBLite/Diag 0.40E+00    0.0     0.00021411       -25.4541974666 -9.37E-08
     6 TBLite/Diag 0.40E+00    0.0     0.00003499       -25.4541974690 -2.33E-09
     7 TBLite/Diag 0.40E+00    0.0     0.00001115       -25.4541974692 -1.98E-10
     8 TBLite/Diag 0.40E+00    0.0     0.00000116       -25.4541974692 -2.99E-12
     9 TBLite/Diag 0.40E+00    0.0     0.00000052       -25.4541974692 -2.95E-13
    10 TBLite/Diag 0.40E+00    0.0     0.00000010       -25.4541974692 -3.91E-14
    11 TBLite/Diag 0.40E+00    0.0     0.00000001       -25.4541974692  7.11E-15
    12 TBLite/Diag 0.40E+00    0.0     3.1572E-09       -25.4541974692 -3.55E-15
    13 TBLite/Diag 0.40E+00    0.0     6.4522E-10       -25.4541974692  0.00E+00

  *** SCF run converged in    13 steps ***


  Core Hamiltonian energy:                                    -25.85742785662010
  Repulsive potential energy:                                   0.30097023866844
  Electrostatic energy:                                         0.10772091814165
  Self-consistent dispersion energy:                            0.00000000000000
  Non-self consistent dispersion energy:                       -0.00546076934516
  Correction for halogen bonding:                               0.00000000000000
  Electronic entropic energy:                                  -0.00000000000000
  Fermi energy:                                                -0.32242816081947

  Total energy:                                               -25.45419746915516
  Total energy (extrapolated to T->0):                        -25.45419746915516

 ENERGY| Total FORCE_EVAL ( QS ) energy [hartree]            -25.454197469155162

 OPT| **************************************************************************
 OPT| Step number                                                              1
 OPT| Optimization method                                                   BFGS
 OPT| Total energy [hartree]                                      -25.4541974692
 OPT| Effective energy change [hartree]                            -0.0010560121
 OPT| Predicted energy change [hartree]                            -0.0008769810
 OPT| Scaling factor                                                0.0000000000
 OPT| Step size                                                     0.0428511729
 OPT| Trust radius                                                  0.4724315332
 OPT| Decrease in energy                                                     YES
 OPT| Used time [s]                                                        0.015
 OPT|
 OPT| Maximum step size                                             0.0428511729
 OPT| Convergence limit for maximum step size                       0.0030000000
 OPT| Maximum step size is converged                                          NO
 OPT|
 OPT| RMS step size                                                 0.0130450710
 OPT| Convergence limit for RMS step size                           0.0015000000
 OPT| RMS step size is converged                                              NO
 OPT|
 OPT| Maximum gradient                                              0.0049357077
 OPT| Convergence limit for maximum gradient                        0.0004500000
 OPT| Maximum gradient is converged                                           NO
 OPT|
 OPT| RMS gradient                                                  0.0015404904
 OPT| Convergence limit for RMS gradient                            0.0003000000
 OPT| RMS gradient is converged                                               NO
 OPT| **************************************************************************
 OPT| Estimated peak process memory after this step [MiB]                    166

 --------------------------
 OPTIMIZATION STEP:      2
 --------------------------

 Extrapolation method: ASPC

 Number of electrons:                                                         42
 Number of occupied orbitals:                                                 21
 Number of molecular orbitals:                                                42

 Number of orbital functions:                                                 42
 Number of independent orbital functions:                                     42


 SCF WAVEFUNCTION OPTIMIZATION

  Step     Update method      Time    Convergence         Total energy    Change
  ------------------------------------------------------------------------------
     1 TBLite/Diag 0.40E+00    0.0     0.00831373       -25.4543106870 -2.55E+01
     2 TBLite/Diag 0.40E+00    0.0     0.00204540       -25.4543155146 -4.83E-06
     3 TBLite/Diag 0.40E+00    0.0     0.00052064       -25.4543157950 -2.80E-07
     4 TBLite/Diag 0.40E+00    0.0     0.00017216       -25.4543158147 -1.97E-08
     5 TBLite/Diag 0.40E+00    0.0     0.00008562       -25.4543158306 -1.59E-08
     6 TBLite/Diag 0.40E+00    0.0     0.00001269       -25.4543158309 -2.57E-10
     7 TBLite/Diag 0.40E+00    0.0     0.00000333       -25.4543158309 -1.85E-11
     8 TBLite/Diag 0.40E+00    0.0     0.00000064       -25.4543158309 -4.80E-13
     9 TBLite/Diag 0.40E+00    0.0     0.00000019       -25.4543158309 -4.62E-14
    10 TBLite/Diag 0.40E+00    0.0     0.00000004       -25.4543158309  1.78E-14
    11 TBLite/Diag 0.40E+00    0.0     6.5091E-09       -25.4543158309 -2.13E-14
    12 TBLite/Diag 0.40E+00    0.0     2.1138E-09       -25.4543158309  1.07E-14
    13 TBLite/Diag 0.40E+00    0.0     6.5930E-11       -25.4543158309  3.55E-15

  *** SCF run converged in    13 steps ***


  Core Hamiltonian energy:                                    -25.86270320159872
  Repulsive potential energy:                                   0.30634292740455
  Electrostatic energy:                                         0.10751062948003
  Self-consistent dispersion energy:                            0.00000000000000
  Non-self consistent dispersion energy:                       -0.00546618616842
  Correction for halogen bonding:                               0.00000000000000
  Electronic entropic energy:                                  -0.00000000000000
  Fermi energy:                                                -0.32140398850375

  Total energy:                                               -25.45431583088256
  Total energy (extrapolated to T->0):                        -25.45431583088256

 ENERGY| Total FORCE_EVAL ( QS ) energy [hartree]            -25.454315830882557

 OPT| **************************************************************************
 OPT| Step number                                                              2
 OPT| Optimization method                                                   BFGS
 OPT| Total energy [hartree]                                      -25.4543158309
 OPT| Effective energy change [hartree]                            -0.0001183617
 OPT| Predicted energy change [hartree]                            -0.0001302346
 OPT| Scaling factor                                                0.0000000000
 OPT| Step size                                                     0.0198784967
 OPT| Trust radius                                                  0.4724315332
 OPT| Decrease in energy                                                     YES
 OPT| Used time [s]                                                        0.016
 OPT|
 OPT| Maximum step size                                             0.0198784967
 OPT| Convergence limit for maximum step size                       0.0030000000
 OPT| Maximum step size is converged                                          NO
 OPT|
 OPT| RMS step size                                                 0.0069682316
 OPT| Convergence limit for RMS step size                           0.0015000000
 OPT| RMS step size is converged                                              NO
 OPT|
 OPT| Maximum gradient                                              0.0022047259
 OPT| Convergence limit for maximum gradient                        0.0004500000
 OPT| Maximum gradient is converged                                           NO
 OPT|
 OPT| RMS gradient                                                  0.0006344396
 OPT| Convergence limit for RMS gradient                            0.0003000000
 OPT| RMS gradient is converged                                               NO
 OPT| **************************************************************************
 OPT| Estimated peak process memory after this step [MiB]                    167

 --------------------------
 OPTIMIZATION STEP:      3
 --------------------------

 Extrapolation method: ASPC

 Number of electrons:                                                         42
 Number of occupied orbitals:                                                 21
 Number of molecular orbitals:                                                42

 Number of orbital functions:                                                 42
 Number of independent orbital functions:                                     42


 SCF WAVEFUNCTION OPTIMIZATION

  Step     Update method      Time    Convergence         Total energy    Change
  ------------------------------------------------------------------------------
     1 TBLite/Diag 0.40E+00    0.0     0.01294117       -25.4543400969 -2.55E+01
     2 TBLite/Diag 0.40E+00    0.0     0.00056723       -25.4543403334 -2.37E-07
     3 TBLite/Diag 0.40E+00    0.0     0.00018437       -25.4543403624 -2.89E-08
     4 TBLite/Diag 0.40E+00    0.0     0.00003145       -25.4543403634 -1.03E-09
     5 TBLite/Diag 0.40E+00    0.0     0.00001554       -25.4543403637 -2.41E-10
     6 TBLite/Diag 0.40E+00    0.0     0.00000251       -25.4543403637 -1.17E-11
     7 TBLite/Diag 0.40E+00    0.0     0.00000062       -25.4543403637 -4.26E-13
     8 TBLite/Diag 0.40E+00    0.0     0.00000015       -25.4543403637 -2.84E-14
     9 TBLite/Diag 0.40E+00    0.0     0.00000002       -25.4543403637  1.78E-14
    10 TBLite/Diag 0.40E+00    0.0     6.5744E-09       -25.4543403637 -2.13E-14
    11 TBLite/Diag 0.40E+00    0.0     8.1853E-10       -25.4543403637 -3.55E-15

  *** SCF run converged in    11 steps ***


  Core Hamiltonian energy:                                    -25.86271693540267
  Repulsive potential energy:                                   0.30633775882304
  Electrostatic energy:                                         0.10750597886075
  Self-consistent dispersion energy:                            0.00000000000000
  Non-self consistent dispersion energy:                       -0.00546716594333
  Correction for halogen bonding:                               0.00000000000000
  Electronic entropic energy:                                  -0.00000000000000
  Fermi energy:                                                -0.32148022406036

  Total energy:                                               -25.45434036366221
  Total energy (extrapolated to T->0):                        -25.45434036366221

 ENERGY| Total FORCE_EVAL ( QS ) energy [hartree]            -25.454340363662208

 OPT| **************************************************************************
 OPT| Step number                                                              3
 OPT| Optimization method                                                   BFGS
 OPT| Total energy [hartree]                                      -25.4543403637
 OPT| Effective energy change [hartree]                            -0.0000245328
 OPT| Predicted energy change [hartree]                            -0.0000242449
 OPT| Scaling factor                                                0.0000000000
 OPT| Step size                                                     0.0079581524
 OPT| Trust radius                                                  0.4724315332
 OPT| Decrease in energy                                                     YES
 OPT| Used time [s]                                                        0.014
 OPT|
 OPT| Maximum step size                                             0.0079581524
 OPT| Convergence limit for maximum step size                       0.0030000000
 OPT| Maximum step size is converged                                          NO
 OPT|
 OPT| RMS step size                                                 0.0033623913
 OPT| Convergence limit for RMS step size                           0.0015000000
 OPT| RMS step size is converged                                              NO
 OPT|
 OPT| Maximum gradient                                              0.0013519375
 OPT| Convergence limit for maximum gradient                        0.0004500000
 OPT| Maximum gradient is converged                                           NO
 OPT|
 OPT| RMS gradient                                                  0.0004648600
 OPT| Convergence limit for RMS gradient                            0.0003000000
 OPT| RMS gradient is converged                                               NO
 OPT| **************************************************************************
 OPT| Estimated peak process memory after this step [MiB]                    167

 --------------------------
 OPTIMIZATION STEP:      4
 --------------------------

 Extrapolation method: ASPC

 Number of electrons:                                                         42
 Number of occupied orbitals:                                                 21
 Number of molecular orbitals:                                                42

 Number of orbital functions:                                                 42
 Number of independent orbital functions:                                     42


 SCF WAVEFUNCTION OPTIMIZATION

  Step     Update method      Time    Convergence         Total energy    Change
  ------------------------------------------------------------------------------
     1 TBLite/Diag 0.40E+00    0.0     0.01395747       -25.4543570556 -2.55E+01
     2 TBLite/Diag 0.40E+00    0.0     0.00037346       -25.4543573312 -2.76E-07
     3 TBLite/Diag 0.40E+00    0.0     0.00012395       -25.4543573461 -1.48E-08
     4 TBLite/Diag 0.40E+00    0.0     0.00005190       -25.4543573468 -7.36E-10
     5 TBLite/Diag 0.40E+00    0.0     0.00002357       -25.4543573476 -7.60E-10
     6 TBLite/Diag 0.40E+00    0.0     0.00000245       -25.4543573476 -1.42E-11
     7 TBLite/Diag 0.40E+00    0.0     0.00000104       -25.4543573476 -1.74E-12
     8 TBLite/Diag 0.40E+00    0.0     0.00000013       -25.4543573476 -4.62E-14
     9 TBLite/Diag 0.40E+00    0.0     0.00000007       -25.4543573476 -7.11E-15
    10 TBLite/Diag 0.40E+00    0.0     4.4347E-09       -25.4543573476 -1.07E-14
    11 TBLite/Diag 0.40E+00    0.0     1.1626E-09       -25.4543573476  0.00E+00
    12 TBLite/Diag 0.40E+00    0.0     2.6477E-10       -25.4543573476  3.55E-15

  *** SCF run converged in    12 steps ***


  Core Hamiltonian energy:                                    -25.86196660207297
  Repulsive potential energy:                                   0.30554585440562
  Electrostatic energy:                                         0.10753105391303
  Self-consistent dispersion energy:                            0.00000000000000
  Non-self consistent dispersion energy:                       -0.00546765381229
  Correction for halogen bonding:                               0.00000000000000
  Electronic entropic energy:                                  -0.00000000000000
  Fermi energy:                                                -0.32177550325660

  Total energy:                                               -25.45435734756661
  Total energy (extrapolated to T->0):                        -25.45435734756661

 ENERGY| Total FORCE_EVAL ( QS ) energy [hartree]            -25.454357347566610

 OPT| **************************************************************************
 OPT| Step number                                                              4
 OPT| Optimization method                                                   BFGS
 OPT| Total energy [hartree]                                      -25.4543573476
 OPT| Effective energy change [hartree]                            -0.0000169839
 OPT| Predicted energy change [hartree]                            -0.0000147698
 OPT| Scaling factor                                                0.0000000000
 OPT| Step size                                                     0.0102579296
 OPT| Trust radius                                                  0.4724315332
 OPT| Decrease in energy                                                     YES
 OPT| Used time [s]                                                        0.015
 OPT|
 OPT| Maximum step size                                             0.0102579296
 OPT| Convergence limit for maximum step size                       0.0030000000
 OPT| Maximum step size is converged                                          NO
 OPT|
 OPT| RMS step size                                                 0.0031826666
 OPT| Convergence limit for RMS step size                           0.0015000000
 OPT| RMS step size is converged                                              NO
 OPT|
 OPT| Maximum gradient                                              0.0009402038
 OPT| Convergence limit for maximum gradient                        0.0004500000
 OPT| Maximum gradient is converged                                           NO
 OPT|
 OPT| RMS gradient                                                  0.0002773160
 OPT| Convergence limit for RMS gradient                            0.0003000000
 OPT| RMS gradient is converged                                              YES
 OPT| **************************************************************************
 OPT| Estimated peak process memory after this step [MiB]                    167

 --------------------------
 OPTIMIZATION STEP:      5
 --------------------------

 Extrapolation method: ASPC

 Number of electrons:                                                         42
 Number of occupied orbitals:                                                 21
 Number of molecular orbitals:                                                42

 Number of orbital functions:                                                 42
 Number of independent orbital functions:                                     42


 SCF WAVEFUNCTION OPTIMIZATION

  Step     Update method      Time    Convergence         Total energy    Change
  ------------------------------------------------------------------------------
     1 TBLite/Diag 0.40E+00    0.0     0.01816784       -25.4543708390 -2.55E+01
     2 TBLite/Diag 0.40E+00    0.0     0.00077703       -25.4543711642 -3.25E-07
     3 TBLite/Diag 0.40E+00    0.0     0.00014177       -25.4543711805 -1.64E-08
     4 TBLite/Diag 0.40E+00    0.0     0.00005268       -25.4543711814 -8.21E-10
     5 TBLite/Diag 0.40E+00    0.0     0.00002437       -25.4543711824 -1.04E-09
     6 TBLite/Diag 0.40E+00    0.0     0.00000396       -25.4543711824 -3.04E-11
     7 TBLite/Diag 0.40E+00    0.0     0.00000125       -25.4543711824 -4.05E-12
     8 TBLite/Diag 0.40E+00    0.0     0.00000027       -25.4543711824 -1.10E-13
     9 TBLite/Diag 0.40E+00    0.0     0.00000006       -25.4543711824 -2.84E-14
    10 TBLite/Diag 0.40E+00    0.0     0.00000002       -25.4543711824  7.11E-15
    11 TBLite/Diag 0.40E+00    0.0     3.1023E-09       -25.4543711824 -1.07E-14
    12 TBLite/Diag 0.40E+00    0.0     9.9414E-10       -25.4543711824  3.55E-15

  *** SCF run converged in    12 steps ***


  Core Hamiltonian energy:                                    -25.86142328827419
  Repulsive potential energy:                                   0.30499042387479
  Electrostatic energy:                                         0.10752986794542
  Self-consistent dispersion energy:                            0.00000000000000
  Non-self consistent dispersion energy:                       -0.00546818598098
  Correction for halogen bonding:                               0.00000000000000
  Electronic entropic energy:                                  -0.00000000000000
  Fermi energy:                                                -0.32209712154977

  Total energy:                                               -25.45437118243496
  Total energy (extrapolated to T->0):                        -25.45437118243496

 ENERGY| Total FORCE_EVAL ( QS ) energy [hartree]            -25.454371182434961

 OPT| **************************************************************************
 OPT| Step number                                                              5
 OPT| Optimization method                                                   BFGS
 OPT| Total energy [hartree]                                      -25.4543711824
 OPT| Effective energy change [hartree]                            -0.0000138349
 OPT| Predicted energy change [hartree]                            -0.0000099701
 OPT| Scaling factor                                                0.0000000000
 OPT| Step size                                                     0.0136964650
 OPT| Trust radius                                                  0.4724315332
 OPT| Decrease in energy                                                     YES
 OPT| Used time [s]                                                        0.016
 OPT|
 OPT| Maximum step size                                             0.0136964650
 OPT| Convergence limit for maximum step size                       0.0030000000
 OPT| Maximum step size is converged                                          NO
 OPT|
 OPT| RMS step size                                                 0.0035351608
 OPT| Convergence limit for RMS step size                           0.0015000000
 OPT| RMS step size is converged                                              NO
 OPT|
 OPT| Maximum gradient                                              0.0009988260
 OPT| Convergence limit for maximum gradient                        0.0004500000
 OPT| Maximum gradient is converged                                           NO
 OPT|
 OPT| RMS gradient                                                  0.0002922821
 OPT| Convergence limit for RMS gradient                            0.0003000000
 OPT| RMS gradient is converged                                              YES
 OPT| **************************************************************************
 OPT| Estimated peak process memory after this step [MiB]                    167

 --------------------------
 OPTIMIZATION STEP:      6
 --------------------------

 Extrapolation method: ASPC

 Number of electrons:                                                         42
 Number of occupied orbitals:                                                 21
 Number of molecular orbitals:                                                42

 Number of orbital functions:                                                 42
 Number of independent orbital functions:                                     42


 SCF WAVEFUNCTION OPTIMIZATION

  Step     Update method      Time    Convergence         Total energy    Change
  ------------------------------------------------------------------------------
     1 TBLite/Diag 0.40E+00    0.0     0.03408106       -25.4543851963 -2.55E+01
     2 TBLite/Diag 0.40E+00    0.0     0.00100894       -25.4543859532 -7.57E-07
     3 TBLite/Diag 0.40E+00    0.0     0.00022163       -25.4543860192 -6.60E-08
     4 TBLite/Diag 0.40E+00    0.0     0.00007462       -25.4543860216 -2.35E-09
     5 TBLite/Diag 0.40E+00    0.0     0.00003643       -25.4543860245 -2.92E-09
     6 TBLite/Diag 0.40E+00    0.0     0.00001002       -25.4543860246 -1.30E-10
     7 TBLite/Diag 0.40E+00    0.0     0.00000315       -25.4543860246 -1.92E-11
     8 TBLite/Diag 0.40E+00    0.0     0.00000043       -25.4543860246 -2.84E-13
     9 TBLite/Diag 0.40E+00    0.0     0.00000007       -25.4543860246  7.11E-15
    10 TBLite/Diag 0.40E+00    0.0     0.00000002       -25.4543860246 -3.55E-15
    11 TBLite/Diag 0.40E+00    0.0     4.3494E-09       -25.4543860246 -3.55E-15
    12 TBLite/Diag 0.40E+00    0.0     5.1692E-10       -25.4543860246  7.11E-15

  *** SCF run converged in    12 steps ***


  Core Hamiltonian energy:                                    -25.86103173762274
  Repulsive potential energy:                                   0.30464095442538
  Electrostatic energy:                                         0.10747363362138
  Self-consistent dispersion energy:                            0.00000000000000
  Non-self consistent dispersion energy:                       -0.00546887504494
  Correction for halogen bonding:                               0.00000000000000
  Electronic entropic energy:                                  -0.00000000000000
  Fermi energy:                                                -0.32252445873587

  Total energy:                                               -25.45438602462092
  Total energy (extrapolated to T->0):                        -25.45438602462092

 ENERGY| Total FORCE_EVAL ( QS ) energy [hartree]            -25.454386024620920

 OPT| **************************************************************************
 OPT| Step number                                                              6
 OPT| Optimization method                                                   BFGS
 OPT| Total energy [hartree]                                      -25.4543860246
 OPT| Effective energy change [hartree]                            -0.0000148422
 OPT| Predicted energy change [hartree]                            -0.0000111061
 OPT| Scaling factor                                                0.0000000000
 OPT| Step size                                                     0.0242985519
 OPT| Trust radius                                                  0.4724315332
 OPT| Decrease in energy                                                     YES
 OPT| Used time [s]                                                        0.016
 OPT|
 OPT| Maximum step size                                             0.0242985519
 OPT| Convergence limit for maximum step size                       0.0030000000
 OPT| Maximum step size is converged                                          NO
 OPT|
 OPT| RMS step size                                                 0.0056032413
 OPT| Convergence limit for RMS step size                           0.0015000000
 OPT| RMS step size is converged                                              NO
 OPT|
 OPT| Maximum gradient                                              0.0010284933
 OPT| Convergence limit for maximum gradient                        0.0004500000
 OPT| Maximum gradient is converged                                           NO
 OPT|
 OPT| RMS gradient                                                  0.0003974970
 OPT| Convergence limit for RMS gradient                            0.0003000000
 OPT| RMS gradient is converged                                               NO
 OPT| **************************************************************************
 OPT| Estimated peak process memory after this step [MiB]                    167

 --------------------------
 OPTIMIZATION STEP:      7
 --------------------------

 Extrapolation method: ASPC

 Number of electrons:                                                         42
 Number of occupied orbitals:                                                 21
 Number of molecular orbitals:                                                42

 Number of orbital functions:                                                 42
 Number of independent orbital functions:                                     42


 SCF WAVEFUNCTION OPTIMIZATION

  Step     Update method      Time    Convergence         Total energy    Change
  ------------------------------------------------------------------------------
     1 TBLite/Diag 0.40E+00    0.0     0.02923323       -25.4543962834 -2.55E+01
     2 TBLite/Diag 0.40E+00    0.0     0.00115828       -25.4543974155 -1.13E-06
     3 TBLite/Diag 0.40E+00    0.0     0.00019653       -25.4543975183 -1.03E-07
     4 TBLite/Diag 0.40E+00    0.0     0.00006240       -25.4543975203 -2.04E-09
     5 TBLite/Diag 0.40E+00    0.0     0.00003957       -25.4543975238 -3.42E-09
     6 TBLite/Diag 0.40E+00    0.0     0.00000882       -25.4543975239 -1.09E-10
     7 TBLite/Diag 0.40E+00    0.0     0.00000386       -25.4543975239 -1.83E-11
     8 TBLite/Diag 0.40E+00    0.0     0.00000044       -25.4543975239 -3.34E-13
     9 TBLite/Diag 0.40E+00    0.0     0.00000012       -25.4543975239 -2.84E-14
    10 TBLite/Diag 0.40E+00    0.0     0.00000002       -25.4543975239  0.00E+00
    11 TBLite/Diag 0.40E+00    0.0     4.6923E-09       -25.4543975239 -1.42E-14
    12 TBLite/Diag 0.40E+00    0.0     2.1819E-09       -25.4543975239  3.55E-15
    13 TBLite/Diag 0.40E+00    0.0     4.6796E-11       -25.4543975239  1.42E-14

  *** SCF run converged in    13 steps ***


  Core Hamiltonian energy:                                    -25.86089691491684
  Repulsive potential energy:                                   0.30458426314973
  Electrostatic energy:                                         0.10738428044548
  Self-consistent dispersion energy:                            0.00000000000000
  Non-self consistent dispersion energy:                       -0.00546915257121
  Correction for halogen bonding:                               0.00000000000000
  Electronic entropic energy:                                  -0.00000000000000
  Fermi energy:                                                -0.32284521238569

  Total energy:                                               -25.45439752389284
  Total energy (extrapolated to T->0):                        -25.45439752389284

 ENERGY| Total FORCE_EVAL ( QS ) energy [hartree]            -25.454397523892837

 OPT| **************************************************************************
 OPT| Step number                                                              7
 OPT| Optimization method                                                   BFGS
 OPT| Total energy [hartree]                                      -25.4543975239
 OPT| Effective energy change [hartree]                            -0.0000114993
 OPT| Predicted energy change [hartree]                            -0.0000090477
 OPT| Scaling factor                                                0.0000000000
 OPT| Step size                                                     0.0208653521
 OPT| Trust radius                                                  0.4724315332
 OPT| Decrease in energy                                                     YES
 OPT| Used time [s]                                                        0.016
 OPT|
 OPT| Maximum step size                                             0.0208653521
 OPT| Convergence limit for maximum step size                       0.0030000000
 OPT| Maximum step size is converged                                          NO
 OPT|
 OPT| RMS step size                                                 0.0052098048
 OPT| Convergence limit for RMS step size                           0.0015000000
 OPT| RMS step size is converged                                              NO
 OPT|
 OPT| Maximum gradient                                              0.0011229170
 OPT| Convergence limit for maximum gradient                        0.0004500000
 OPT| Maximum gradient is converged                                           NO
 OPT|
 OPT| RMS gradient                                                  0.0003894496
 OPT| Convergence limit for RMS gradient                            0.0003000000
 OPT| RMS gradient is converged                                               NO
 OPT| **************************************************************************
 OPT| Estimated peak process memory after this step [MiB]                    167

 --------------------------
 OPTIMIZATION STEP:      8
 --------------------------

 Extrapolation method: ASPC

 Number of electrons:                                                         42
 Number of occupied orbitals:                                                 21
 Number of molecular orbitals:                                                42

 Number of orbital functions:                                                 42
 Number of independent orbital functions:                                     42


 SCF WAVEFUNCTION OPTIMIZATION

  Step     Update method      Time    Convergence         Total energy    Change
  ------------------------------------------------------------------------------
     1 TBLite/Diag 0.40E+00    0.0     0.01094008       -25.4544051457 -2.55E+01
     2 TBLite/Diag 0.40E+00    0.0     0.00082369       -25.4544057837 -6.38E-07
     3 TBLite/Diag 0.40E+00    0.0     0.00013935       -25.4544058312 -4.74E-08
     4 TBLite/Diag 0.40E+00    0.0     0.00002346       -25.4544058308  3.55E-10
     5 TBLite/Diag 0.40E+00    0.0     0.00002765       -25.4544058324 -1.57E-09
     6 TBLite/Diag 0.40E+00    0.0     0.00000519       -25.4544058324 -2.02E-11
     7 TBLite/Diag 0.40E+00    0.0     0.00000182       -25.4544058324 -3.73E-12
     8 TBLite/Diag 0.40E+00    0.0     0.00000050       -25.4544058324 -3.27E-13
     9 TBLite/Diag 0.40E+00    0.0     0.00000007       -25.4544058324 -1.42E-14
    10 TBLite/Diag 0.40E+00    0.0     0.00000002       -25.4544058324  7.11E-15
    11 TBLite/Diag 0.40E+00    0.0     2.3271E-09       -25.4544058324 -1.42E-14
    12 TBLite/Diag 0.40E+00    0.0     1.4682E-09       -25.4544058324  2.49E-14
    13 TBLite/Diag 0.40E+00    0.0     4.4467E-11       -25.4544058324 -7.11E-15

  *** SCF run converged in    13 steps ***


  Core Hamiltonian energy:                                    -25.86107958704921
  Repulsive potential energy:                                   0.30482783224296
  Electrostatic energy:                                         0.10731491619748
  Self-consistent dispersion energy:                            0.00000000000000
  Non-self consistent dispersion energy:                       -0.00546899380678
  Correction for halogen bonding:                               0.00000000000000
  Electronic entropic energy:                                  -0.00000000000000
  Fermi energy:                                                -0.32290667151390

  Total energy:                                               -25.45440583241555
  Total energy (extrapolated to T->0):                        -25.45440583241555

 ENERGY| Total FORCE_EVAL ( QS ) energy [hartree]            -25.454405832415553

 OPT| **************************************************************************
 OPT| Step number                                                              8
 OPT| Optimization method                                                   BFGS
 OPT| Total energy [hartree]                                      -25.4544058324
 OPT| Effective energy change [hartree]                            -0.0000083085
 OPT| Predicted energy change [hartree]                            -0.0000060714
 OPT| Scaling factor                                                0.0000000000
 OPT| Step size                                                     0.0098176757
 OPT| Trust radius                                                  0.4724315332
 OPT| Decrease in energy                                                     YES
 OPT| Used time [s]                                                        0.016
 OPT|
 OPT| Maximum step size                                             0.0098176757
 OPT| Convergence limit for maximum step size                       0.0030000000
 OPT| Maximum step size is converged                                          NO
 OPT|
 OPT| RMS step size                                                 0.0027524161
 OPT| Convergence limit for RMS step size                           0.0015000000
 OPT| RMS step size is converged                                              NO
 OPT|
 OPT| Maximum gradient                                              0.0007224305
 OPT| Convergence limit for maximum gradient                        0.0004500000
 OPT| Maximum gradient is converged                                           NO
 OPT|
 OPT| RMS gradient                                                  0.0002426917
 OPT| Convergence limit for RMS gradient                            0.0003000000
 OPT| RMS gradient is converged                                              YES
 OPT| **************************************************************************
 OPT| Estimated peak process memory after this step [MiB]                    167

 --------------------------
 OPTIMIZATION STEP:      9
 --------------------------

 Extrapolation method: ASPC

 Number of electrons:                                                         42
 Number of occupied orbitals:                                                 21
 Number of molecular orbitals:                                                42

 Number of orbital functions:                                                 42
 Number of independent orbital functions:                                     42


 SCF WAVEFUNCTION OPTIMIZATION

  Step     Update method      Time    Convergence         Total energy    Change
  ------------------------------------------------------------------------------
     1 TBLite/Diag 0.40E+00    0.0     0.00723092       -25.4544103539 -2.55E+01
     2 TBLite/Diag 0.40E+00    0.0     0.00057824       -25.4544106768 -3.23E-07
     3 TBLite/Diag 0.40E+00    0.0     0.00012512       -25.4544107012 -2.44E-08
     4 TBLite/Diag 0.40E+00    0.0     0.00002258       -25.4544107012  1.76E-11
     5 TBLite/Diag 0.40E+00    0.0     0.00001533       -25.4544107016 -4.38E-10
     6 TBLite/Diag 0.40E+00    0.0     0.00000186       -25.4544107016 -3.18E-12
     7 TBLite/Diag 0.40E+00    0.0     0.00000070       -25.4544107016 -8.38E-13
     8 TBLite/Diag 0.40E+00    0.0     0.00000025       -25.4544107016 -1.21E-13
     9 TBLite/Diag 0.40E+00    0.0     0.00000003       -25.4544107016  1.07E-14
    10 TBLite/Diag 0.40E+00    0.0     6.5149E-09       -25.4544107016  0.00E+00
    11 TBLite/Diag 0.40E+00    0.0     1.0207E-09       -25.4544107016 -7.11E-15
    12 TBLite/Diag 0.40E+00    0.0     4.2530E-10       -25.4544107016  3.55E-15

  *** SCF run converged in    12 steps ***


  Core Hamiltonian energy:                                    -25.86112852262128
  Repulsive potential energy:                                   0.30491020751634
  Electrostatic energy:                                         0.10727651708794
  Self-consistent dispersion energy:                            0.00000000000000
  Non-self consistent dispersion energy:                       -0.00546890361397
  Correction for halogen bonding:                               0.00000000000000
  Electronic entropic energy:                                  -0.00000000000000
  Fermi energy:                                                -0.32290066627611

  Total energy:                                               -25.45441070163097
  Total energy (extrapolated to T->0):                        -25.45441070163097

 ENERGY| Total FORCE_EVAL ( QS ) energy [hartree]            -25.454410701630973

 OPT| **************************************************************************
 OPT| Step number                                                              9
 OPT| Optimization method                                                   BFGS
 OPT| Total energy [hartree]                                      -25.4544107016
 OPT| Effective energy change [hartree]                            -0.0000048692
 OPT| Predicted energy change [hartree]                            -0.0000035456
 OPT| Scaling factor                                                0.0000000000
 OPT| Step size                                                     0.0088654229
 OPT| Trust radius                                                  0.4724315332
 OPT| Decrease in energy                                                     YES
 OPT| Used time [s]                                                        0.016
 OPT|
 OPT| Maximum step size                                             0.0088654229
 OPT| Convergence limit for maximum step size                       0.0030000000
 OPT| Maximum step size is converged                                          NO
 OPT|
 OPT| RMS step size                                                 0.0022423207
 OPT| Convergence limit for RMS step size                           0.0015000000
 OPT| RMS step size is converged                                              NO
 OPT|
 OPT| Maximum gradient                                              0.0003865589
 OPT| Convergence limit for maximum gradient                        0.0004500000
 OPT| Maximum gradient is converged                                          YES
 OPT|
 OPT| RMS gradient                                                  0.0001449196
 OPT| Convergence limit for RMS gradient                            0.0003000000
 OPT| RMS gradient is converged                                              YES
 OPT| **************************************************************************
 OPT| Estimated peak process memory after this step [MiB]                    167

 --------------------------
 OPTIMIZATION STEP:     10
 --------------------------

 Extrapolation method: ASPC

 Number of electrons:                                                         42
 Number of occupied orbitals:                                                 21
 Number of molecular orbitals:                                                42

 Number of orbital functions:                                                 42
 Number of independent orbital functions:                                     42


 SCF WAVEFUNCTION OPTIMIZATION

  Step     Update method      Time    Convergence         Total energy    Change
  ------------------------------------------------------------------------------
     1 TBLite/Diag 0.40E+00    0.0     0.00842455       -25.4544138517 -2.55E+01
     2 TBLite/Diag 0.40E+00    0.0     0.00047658       -25.4544140513 -2.00E-07
     3 TBLite/Diag 0.40E+00    0.0     0.00009884       -25.4544140667 -1.54E-08
     4 TBLite/Diag 0.40E+00    0.0     0.00002350       -25.4544140668 -8.79E-11
     5 TBLite/Diag 0.40E+00    0.0     0.00001469       -25.4544140672 -3.48E-10
     6 TBLite/Diag 0.40E+00    0.0     0.00000350       -25.4544140672 -2.02E-11
     7 TBLite/Diag 0.40E+00    0.0     0.00000074       -25.4544140672 -1.14E-12
     8 TBLite/Diag 0.40E+00    0.0     0.00000020       -25.4544140672 -8.88E-14
     9 TBLite/Diag 0.40E+00    0.0     0.00000001       -25.4544140672  0.00E+00
    10 TBLite/Diag 0.40E+00    0.0     5.8225E-09       -25.4544140672  1.07E-14
    11 TBLite/Diag 0.40E+00    0.0     1.0770E-09       -25.4544140672 -1.07E-14
    12 TBLite/Diag 0.40E+00    0.0     7.6197E-11       -25.4544140672  3.55E-15

  *** SCF run converged in    12 steps ***


  Core Hamiltonian energy:                                    -25.86100509322409
  Repulsive potential energy:                                   0.30480041621533
  Electrostatic energy:                                         0.10725963427942
  Self-consistent dispersion energy:                            0.00000000000000
  Non-self consistent dispersion energy:                       -0.00546902444645
  Correction for halogen bonding:                               0.00000000000000
  Electronic entropic energy:                                  -0.00000000000000
  Fermi energy:                                                -0.32293922655199

  Total energy:                                               -25.45441406717578
  Total energy (extrapolated to T->0):                        -25.45441406717578

 ENERGY| Total FORCE_EVAL ( QS ) energy [hartree]            -25.454414067175779

 OPT| **************************************************************************
 OPT| Step number                                                             10
 OPT| Optimization method                                                   BFGS
 OPT| Total energy [hartree]                                      -25.4544140672
 OPT| Effective energy change [hartree]                            -0.0000033655
 OPT| Predicted energy change [hartree]                            -0.0000023610
 OPT| Scaling factor                                                0.0000000000
 OPT| Step size                                                     0.0104137634
 OPT| Trust radius                                                  0.4724315332
 OPT| Decrease in energy                                                     YES
 OPT| Used time [s]                                                        0.016
 OPT|
 OPT| Maximum step size                                             0.0104137634
 OPT| Convergence limit for maximum step size                       0.0030000000
 OPT| Maximum step size is converged                                          NO
 OPT|
 OPT| RMS step size                                                 0.0024569708
 OPT| Convergence limit for RMS step size                           0.0015000000
 OPT| RMS step size is converged                                              NO
 OPT|
 OPT| Maximum gradient                                              0.0004390649
 OPT| Convergence limit for maximum gradient                        0.0004500000
 OPT| Maximum gradient is converged                                          YES
 OPT|
 OPT| RMS gradient                                                  0.0001433935
 OPT| Convergence limit for RMS gradient                            0.0003000000
 OPT| RMS gradient is converged                                              YES
 OPT| **************************************************************************
 OPT| Estimated peak process memory after this step [MiB]                    167

 --------------------------
 OPTIMIZATION STEP:     11
 --------------------------

 Extrapolation method: ASPC

 Number of electrons:                                                         42
 Number of occupied orbitals:                                                 21
 Number of molecular orbitals:                                                42

 Number of orbital functions:                                                 42
 Number of independent orbital functions:                                     42


 SCF WAVEFUNCTION OPTIMIZATION

  Step     Update method      Time    Convergence         Total energy    Change
  ------------------------------------------------------------------------------
     1 TBLite/Diag 0.40E+00    0.0     0.00694248       -25.4544168320 -2.55E+01
     2 TBLite/Diag 0.40E+00    0.0     0.00017240       -25.4544168673 -3.53E-08
     3 TBLite/Diag 0.40E+00    0.0     0.00003117       -25.4544168683 -9.69E-10
     4 TBLite/Diag 0.40E+00    0.0     0.00001174       -25.4544168683 -4.00E-11
     5 TBLite/Diag 0.40E+00    0.0     0.00000654       -25.4544168684 -5.62E-11
     6 TBLite/Diag 0.40E+00    0.0     0.00000148       -25.4544168684 -4.46E-12
     7 TBLite/Diag 0.40E+00    0.0     0.00000032       -25.4544168684 -1.85E-13
     8 TBLite/Diag 0.40E+00    0.0     0.00000009       -25.4544168684 -3.55E-15
     9 TBLite/Diag 0.40E+00    0.0     0.00000001       -25.4544168684 -2.49E-14
    10 TBLite/Diag 0.40E+00    0.0     2.5947E-09       -25.4544168684  2.84E-14
    11 TBLite/Diag 0.40E+00    0.0     8.7858E-10       -25.4544168684 -7.11E-15

  *** SCF run converged in    11 steps ***


  Core Hamiltonian energy:                                    -25.86092823129751
  Repulsive potential energy:                                   0.30471423467510
  Electrostatic energy:                                         0.10726634497959
  Self-consistent dispersion energy:                            0.00000000000000
  Non-self consistent dispersion energy:                       -0.00546921672977
  Correction for halogen bonding:                               0.00000000000000
  Electronic entropic energy:                                  -0.00000000000000
  Fermi energy:                                                -0.32295677143463

  Total energy:                                               -25.45441686837260
  Total energy (extrapolated to T->0):                        -25.45441686837260

 ENERGY| Total FORCE_EVAL ( QS ) energy [hartree]            -25.454416868372597

 OPT| **************************************************************************
 OPT| Step number                                                             11
 OPT| Optimization method                                                   BFGS
 OPT| Total energy [hartree]                                      -25.4544168684
 OPT| Effective energy change [hartree]                            -0.0000028012
 OPT| Predicted energy change [hartree]                            -0.0000021024
 OPT| Scaling factor                                                0.0000000000
 OPT| Step size                                                     0.0107487181
 OPT| Trust radius                                                  0.4724315332
 OPT| Decrease in energy                                                     YES
 OPT| Used time [s]                                                        0.015
 OPT|
 OPT| Maximum step size                                             0.0107487181
 OPT| Convergence limit for maximum step size                       0.0030000000
 OPT| Maximum step size is converged                                          NO
 OPT|
 OPT| RMS step size                                                 0.0025849303
 OPT| Convergence limit for RMS step size                           0.0015000000
 OPT| RMS step size is converged                                              NO
 OPT|
 OPT| Maximum gradient                                              0.0005875116
 OPT| Convergence limit for maximum gradient                        0.0004500000
 OPT| Maximum gradient is converged                                           NO
 OPT|
 OPT| RMS gradient                                                  0.0001731409
 OPT| Convergence limit for RMS gradient                            0.0003000000
 OPT| RMS gradient is converged                                              YES
 OPT| **************************************************************************
 OPT| Estimated peak process memory after this step [MiB]                    167

 --------------------------
 OPTIMIZATION STEP:     12
 --------------------------

 Extrapolation method: ASPC

 Number of electrons:                                                         42
 Number of occupied orbitals:                                                 21
 Number of molecular orbitals:                                                42

 Number of orbital functions:                                                 42
 Number of independent orbital functions:                                     42


 SCF WAVEFUNCTION OPTIMIZATION

  Step     Update method      Time    Convergence         Total energy    Change
  ------------------------------------------------------------------------------
     1 TBLite/Diag 0.40E+00    0.0     0.00580154       -25.4544184678 -2.55E+01
     2 TBLite/Diag 0.40E+00    0.0     0.00013206       -25.4544184894 -2.16E-08
     3 TBLite/Diag 0.40E+00    0.0     0.00002186       -25.4544184898 -3.83E-10
     4 TBLite/Diag 0.40E+00    0.0     0.00001190       -25.4544184898 -4.69E-11
     5 TBLite/Diag 0.40E+00    0.0     0.00000567       -25.4544184899 -4.14E-11
     6 TBLite/Diag 0.40E+00    0.0     0.00000097       -25.4544184899 -1.48E-12
     7 TBLite/Diag 0.40E+00    0.0     0.00000034       -25.4544184899 -1.49E-13
     8 TBLite/Diag 0.40E+00    0.0     0.00000005       -25.4544184899  3.55E-15
     9 TBLite/Diag 0.40E+00    0.0     0.00000002       -25.4544184899 -7.11E-15
    10 TBLite/Diag 0.40E+00    0.0     2.5251E-09       -25.4544184899 -1.07E-14
    11 TBLite/Diag 0.40E+00    0.0     4.5641E-10       -25.4544184899  1.07E-14

  *** SCF run converged in    11 steps ***


  Core Hamiltonian energy:                                    -25.86085340081014
  Repulsive potential energy:                                   0.30462636067269
  Electrostatic energy:                                         0.10727803187037
  Self-consistent dispersion energy:                            0.00000000000000
  Non-self consistent dispersion energy:                       -0.00546948159538
  Correction for halogen bonding:                               0.00000000000000
  Electronic entropic energy:                                  -0.00000000000000
  Fermi energy:                                                -0.32301629153492

  Total energy:                                               -25.45441848986247
  Total energy (extrapolated to T->0):                        -25.45441848986247

 ENERGY| Total FORCE_EVAL ( QS ) energy [hartree]            -25.454418489862466

 OPT| **************************************************************************
 OPT| Step number                                                             12
 OPT| Optimization method                                                   BFGS
 OPT| Total energy [hartree]                                      -25.4544184899
 OPT| Effective energy change [hartree]                            -0.0000016215
 OPT| Predicted energy change [hartree]                            -0.0000012421
 OPT| Scaling factor                                                0.0000000000
 OPT| Step size                                                     0.0083831726
 OPT| Trust radius                                                  0.4724315332
 OPT| Decrease in energy                                                     YES
 OPT| Used time [s]                                                        0.015
 OPT|
 OPT| Maximum step size                                             0.0083831726
 OPT| Convergence limit for maximum step size                       0.0030000000
 OPT| Maximum step size is converged                                          NO
 OPT|
 OPT| RMS step size                                                 0.0019823023
 OPT| Convergence limit for RMS step size                           0.0015000000
 OPT| RMS step size is converged                                              NO
 OPT|
 OPT| Maximum gradient                                              0.0004115633
 OPT| Convergence limit for maximum gradient                        0.0004500000
 OPT| Maximum gradient is converged                                          YES
 OPT|
 OPT| RMS gradient                                                  0.0001288062
 OPT| Convergence limit for RMS gradient                            0.0003000000
 OPT| RMS gradient is converged                                              YES
 OPT| **************************************************************************
 OPT| Estimated peak process memory after this step [MiB]                    167

 --------------------------
 OPTIMIZATION STEP:     13
 --------------------------

 Extrapolation method: ASPC

 Number of electrons:                                                         42
 Number of occupied orbitals:                                                 21
 Number of molecular orbitals:                                                42

 Number of orbital functions:                                                 42
 Number of independent orbital functions:                                     42


 SCF WAVEFUNCTION OPTIMIZATION

  Step     Update method      Time    Convergence         Total energy    Change
  ------------------------------------------------------------------------------
     1 TBLite/Diag 0.40E+00    0.0     0.00215736       -25.4544193797 -2.55E+01
     2 TBLite/Diag 0.40E+00    0.0     0.00018971       -25.4544194124 -3.27E-08
     3 TBLite/Diag 0.40E+00    0.0     0.00004675       -25.4544194152 -2.88E-09
     4 TBLite/Diag 0.40E+00    0.0     0.00000660       -25.4544194153 -2.53E-11
     5 TBLite/Diag 0.40E+00    0.0     0.00000384       -25.4544194153 -2.01E-11
     6 TBLite/Diag 0.40E+00    0.0     0.00000066       -25.4544194153 -7.28E-13
     7 TBLite/Diag 0.40E+00    0.0     0.00000022       -25.4544194153 -5.68E-14
     8 TBLite/Diag 0.40E+00    0.0     0.00000007       -25.4544194153 -7.11E-15
     9 TBLite/Diag 0.40E+00    0.0     0.00000001       -25.4544194153 -1.07E-14
    10 TBLite/Diag 0.40E+00    0.0     4.1322E-09       -25.4544194153 -3.55E-15
    11 TBLite/Diag 0.40E+00    0.0     5.0572E-10       -25.4544194153 -3.55E-15

  *** SCF run converged in    11 steps ***


  Core Hamiltonian energy:                                    -25.86087611606315
  Repulsive potential energy:                                   0.30463845024606
  Electrostatic energy:                                         0.10728783558502
  Self-consistent dispersion energy:                            0.00000000000000
  Non-self consistent dispersion energy:                       -0.00546958506028
  Correction for halogen bonding:                               0.00000000000000
  Electronic entropic energy:                                  -0.00000000000000
  Fermi energy:                                                -0.32304052438869

  Total energy:                                               -25.45441941529235
  Total energy (extrapolated to T->0):                        -25.45441941529235

 ENERGY| Total FORCE_EVAL ( QS ) energy [hartree]            -25.454419415292346

 OPT| **************************************************************************
 OPT| Step number                                                             13
 OPT| Optimization method                                                   BFGS
 OPT| Total energy [hartree]                                      -25.4544194153
 OPT| Effective energy change [hartree]                            -0.0000009254
 OPT| Predicted energy change [hartree]                            -0.0000006938
 OPT| Scaling factor                                                0.0000000000
 OPT| Step size                                                     0.0041338704
 OPT| Trust radius                                                  0.4724315332
 OPT| Decrease in energy                                                     YES
 OPT| Used time [s]                                                        0.015
 OPT|
 OPT| Maximum step size                                             0.0041338704
 OPT| Convergence limit for maximum step size                       0.0030000000
 OPT| Maximum step size is converged                                          NO
 OPT|
 OPT| RMS step size                                                 0.0011390965
 OPT| Convergence limit for RMS step size                           0.0015000000
 OPT| RMS step size is converged                                             YES
 OPT|
 OPT| Maximum gradient                                              0.0002705854
 OPT| Convergence limit for maximum gradient                        0.0004500000
 OPT| Maximum gradient is converged                                          YES
 OPT|
 OPT| RMS gradient                                                  0.0000729192
 OPT| Convergence limit for RMS gradient                            0.0003000000
 OPT| RMS gradient is converged                                              YES
 OPT| **************************************************************************
 OPT| Estimated peak process memory after this step [MiB]                    167

 --------------------------
 OPTIMIZATION STEP:     14
 --------------------------

 Extrapolation method: ASPC

 Number of electrons:                                                         42
 Number of occupied orbitals:                                                 21
 Number of molecular orbitals:                                                42

 Number of orbital functions:                                                 42
 Number of independent orbital functions:                                     42


 SCF WAVEFUNCTION OPTIMIZATION

  Step     Update method      Time    Convergence         Total energy    Change
  ------------------------------------------------------------------------------
     1 TBLite/Diag 0.40E+00    0.0     0.00160127       -25.4544200352 -2.55E+01
     2 TBLite/Diag 0.40E+00    0.0     0.00011336       -25.4544200438 -8.66E-09
     3 TBLite/Diag 0.40E+00    0.0     0.00002296       -25.4544200442 -3.62E-10
     4 TBLite/Diag 0.40E+00    0.0     0.00000629       -25.4544200442 -1.96E-11
     5 TBLite/Diag 0.40E+00    0.0     0.00000285       -25.4544200442 -1.24E-11
     6 TBLite/Diag 0.40E+00    0.0     0.00000043       -25.4544200442 -4.33E-13
     7 TBLite/Diag 0.40E+00    0.0     0.00000005       -25.4544200442  7.11E-15
     8 TBLite/Diag 0.40E+00    0.0     0.00000002       -25.4544200442 -1.42E-14
     9 TBLite/Diag 0.40E+00    0.0     4.1039E-09       -25.4544200442  0.00E+00
    10 TBLite/Diag 0.40E+00    0.0     8.2039E-10       -25.4544200442  1.07E-14

  *** SCF run converged in    10 steps ***


  Core Hamiltonian energy:                                    -25.86090167378028
  Repulsive potential energy:                                   0.30466591616491
  Electrostatic energy:                                         0.10728533625635
  Self-consistent dispersion energy:                            0.00000000000000
  Non-self consistent dispersion energy:                       -0.00546962285156
  Correction for halogen bonding:                               0.00000000000000
  Electronic entropic energy:                                  -0.00000000000000
  Fermi energy:                                                -0.32306294983038

  Total energy:                                               -25.45442004421058
  Total energy (extrapolated to T->0):                        -25.45442004421058

 ENERGY| Total FORCE_EVAL ( QS ) energy [hartree]            -25.454420044210575

 OPT| **************************************************************************
 OPT| Step number                                                             14
 OPT| Optimization method                                                   BFGS
 OPT| Total energy [hartree]                                      -25.4544200442
 OPT| Effective energy change [hartree]                            -0.0000006289
 OPT| Predicted energy change [hartree]                            -0.0000004360
 OPT| Scaling factor                                                0.0000000000
 OPT| Step size                                                     0.0029314894
 OPT| Trust radius                                                  0.4724315332
 OPT| Decrease in energy                                                     YES
 OPT| Used time [s]                                                        0.014
 OPT|
 OPT| Maximum step size                                             0.0029314894
 OPT| Convergence limit for maximum step size                       0.0030000000
 OPT| Maximum step size is converged                                         YES
 OPT|
 OPT| RMS step size                                                 0.0008672056
 OPT| Convergence limit for RMS step size                           0.0015000000
 OPT| RMS step size is converged                                             YES
 OPT|
 OPT| Maximum gradient                                              0.0001704827
 OPT| Convergence limit for maximum gradient                        0.0004500000
 OPT| Maximum gradient is converged                                          YES
 OPT|
 OPT| RMS gradient                                                  0.0000649714
 OPT| Convergence limit for RMS gradient                            0.0003000000
 OPT| RMS gradient is converged                                              YES
 OPT| **************************************************************************
 OPT| Estimated peak process memory after this step [MiB]                    167

 *******************************************************************************
 ***                    GEOMETRY OPTIMIZATION COMPLETED                      ***
 *******************************************************************************

 write_final_structure: Optimization converged, writing XYZ file gladly:
  cytosine_GFN1_mol_geoopt-FINAL-1_14.xyz

 write_final_structure: Optimization converged, writing CIF file gladly:
  cytosine_GFN1_mol_geoopt-FINAL-1_14.cif

 write_final_structure: Done!

                    Reevaluating energy at the minimum

 Extrapolation method: ASPC

 Number of electrons:                                                         42
 Number of occupied orbitals:                                                 21
 Number of molecular orbitals:                                                42

 Number of orbital functions:                                                 42
 Number of independent orbital functions:                                     42


 SCF WAVEFUNCTION OPTIMIZATION

  Step     Update method      Time    Convergence         Total energy    Change
  ------------------------------------------------------------------------------
     1 TBLite/Diag 0.40E+00    0.0     1.3460E-10       -25.4544200442 -2.55E+01

  *** SCF run converged in     1 steps ***


  Core Hamiltonian energy:                                    -25.86090167376514
  Repulsive potential energy:                                   0.30466591616491
  Electrostatic energy:                                         0.10728533624119
  Self-consistent dispersion energy:                            0.00000000000000
  Non-self consistent dispersion energy:                       -0.00546962285156
  Correction for halogen bonding:                               0.00000000000000
  Electronic entropic energy:                                  -0.00000000000000
  Fermi energy:                                                -0.32306294985802

  Total energy:                                               -25.45442004421060
  Total energy (extrapolated to T->0):                        -25.45442004421060

 ENERGY| Total FORCE_EVAL ( QS ) energy [hartree]            -25.454420044210597

 -------------------------------------------------------------------------------
 -                                                                             -
 -                                DBCSR STATISTICS                             -
 -                                                                             -
 -------------------------------------------------------------------------------
 COUNTER                                    TOTAL       BLAS       SMM       ACC
 flops     2 x    10 x     2               130000       0.0%    100.0%      0.0%     
 flops     2 x    32 x     2               416000       0.0%    100.0%      0.0%     
 flops     2 x    10 x     4               416000       0.0%    100.0%      0.0%     
 flops     4 x    10 x     2               416000       0.0%    100.0%      0.0%     
 flops     2 x     2 x    42              1083600       0.0%    100.0%      0.0%     
 flops     2 x    32 x     4              1331200       0.0%    100.0%      0.0%     
 flops     4 x    32 x     2              1331200       0.0%    100.0%      0.0%     
 flops     4 x    10 x     4              1331200       0.0%    100.0%      0.0%     
 flops     2 x     4 x    42              2889600       0.0%    100.0%      0.0%     
 flops     4 x     2 x    42              2889600       0.0%    100.0%      0.0%     
 flops     4 x    32 x     4              4259840       0.0%    100.0%      0.0%     
 flops     4 x     4 x    42             10402560       0.0%    100.0%      0.0%     
 flops inhomo. stacks                           0       0.0%      0.0%      0.0%
 flops total                        26.896800E+06       0.0%    100.0%      0.0%
 flops max/rank                     26.896800E+06       0.0%    100.0%      0.0%
 matmuls inhomo. stacks                         0       0.0%      0.0%      0.0%
 matmuls total                              41535       0.0%    100.0%      0.0%
 number of processed stacks                  1380       0.0%    100.0%      0.0%
 average stack size                                     0.0      30.1       0.0
 marketing flops                    25.560360E+06
 -------------------------------------------------------------------------------
 # multiplications                            280
 max memory usage/rank              13.672215E+09
 # max total images/rank                        1
 # max 3D layers                                1
 # MPI messages exchanged                       0
 -------------------------------------------------------------------------------
 -                                                                             -
 -                      DBCSR MESSAGE PASSING PERFORMANCE                      -
 -                                                                             -
 -------------------------------------------------------------------------------
 ROUTINE             CALLS      AVE VOLUME [Bytes]
 MP_Bcast               13                     12.
 MP_Allreduce         1313                      9.
 MP_Alltoall          9245                   9527.
 MP_ISend             1120                    852.
 MP_IRecv             1120                    852.
 -------------------------------------------------------------------------------

 -------------------------------------------------------------------------------
 -                                                                             -
 -                          OFFLOAD MEMPOOL STATISTICS                         -
 -                                                                             -
 -------------------------------------------------------------------------------
 Memory consumption                Number of allocations  Used [MiB]  Size [MiB]
 Device                                                1           0           0
 Host                                                  1           0           0
 -------------------------------------------------------------------------------

 MEMORY| Estimated peak process memory [MiB]                                 167

 -------------------------------------------------------------------------------
 -                                                                             -
 -                         MESSAGE PASSING PERFORMANCE                         -
 -                                                                             -
 -------------------------------------------------------------------------------

 ROUTINE             CALLS      AVE VOLUME [Bytes]
 MP_Group                1
 MP_Bcast              414                    176.
 MP_Allreduce         3339                     88.
 MP_Sync               216
 MP_comm_split         215
 -------------------------------------------------------------------------------


 -------------------------------------------------------------------------------
 -                                                                             -
 -                           R E F E R E N C E S                               -
 -                                                                             -
 -------------------------------------------------------------------------------
 
 CP2K version 2026.1 (Development Version), the CP2K developers group (2026).
 CP2K is freely available from https://www.cp2k.org/ .
 
 M. Iannuzzi, J. Wilhelm, F. Stein, A. Bussy, H. Elgabarty, D. Golze, A. Hehn, 
 M. Graml, S. Marek, B. Sertcan Gökmen, C. Schran, H. Forbert, R. Z. 
 Khaliullin, A. Kozhevnikov, M. Taillefumier, R. Meli, V. V. Rybkin, M. Brehm, 
 R. Schade, O. Schütt, J. V. Pototschnig, H. Mirhosseini, A. Knüpfer, D. Marx, 
 M. Krack, J. Hutter, T. D. Kühne.
 J. Phys. Chem. B 130, 1237-1310 (2026).
 The CP2K Program Package Made Simple.
 https://doi.org/10.1021/acs.jpcb.5c05851

 A. Katbashev, M. Stahn, T. Rose, V. Alizadeh, M. Friede, C. Plett, P. 
 Steinbach, S. Ehlert.
 J. Phys. Chem. A 129, 2667-2682 (2025).
 Overview on Building Blocks and Applications of Efficient and Robust Extended 
 Tight Binding.
 https://doi.org/10.1021/acs.jpca.4c08263

 T. D. Kühne, M. Iannuzzi, M. Del Ben, V. V. Rybkin, P. Seewald, F. Stein, T. 
 Laino, R. Z. Khaliullin, O. Schütt, F. Schiffmann, D. Golze, J. Wilhelm, S. 
 Chulkov, M. H. Bani-Hashemian, V. Weber, U. Borstnik, M. Taillefumier, A. S. 
 Jakobovits, A. Lazzaro, H. Pabst, T. Müller, R. Schade, M. Guidon, S. 
 Andermatt, N. Holmberg, G. K. Schenter, A. Hehn, A. Bussy, F. Belleflamme, G. 
 Tabacchi, A. Glöß, M. Lass, I. Bethune, C. J. Mundy, C. Plessl, M. Watkins, 
 J. VandeVondele, M. Krack, J. Hutter.
 J. Chem. Phys. 152, 194103 (2020).
 CP2K: An electronic structure and molecular dynamics software package - 
 Quickstep: Efficient and accurate electronic structure calculations.
 https://doi.org/10.1063/5.0007045

 P. Pracht, E. Caldeweyher, S. Ehlert, S. Grimme.
 ChemRxiv, (2019).
 A Robust Non-Self-Consistent Tight-Binding Quantum Chemistry Method for large 
 Molecules.
 https://doi.org/10.26434/chemrxiv.8326202.v1

 S. Grimme, C. Bannwarth, P. Shushkov.
 J. Chem. Theory Comput. 13, 1989 (2017).
 A Robust and Accurate Tight-Binding Quantum Chemical Method for Structures, 
 Vibrational Frequencies, and Noncovalent Interactions of Large Molecular 
 Systems Parametrized for All spd-Block Elements (Z = 1-86).
 https://doi.org/10.1021/acs.jctc.7b00118

 O. Schuett, P. Messmer, J. Hutter, J. VandeVondele.
 Electronic Structure Calculations on Graphics Processing Units, 173-190 (2016).
 GPU-Accelerated Sparse Matrix-Matrix Multiplication for Linear Scaling Density 
 Functional Theory.
 https://doi.org/10.1002/9781118670712.ch8

 A. Heinecke, G. Henry, M. Hutchinson, H. Pabst.
 Proceedings of Intl. Supercomputing Conference, 981-991 (2016).
 LIBXSMM: Accelerating Small Matrix Multiplications by Runtime Code Generation.
 https://doi.org/10.1109/SC.2016.83

 U. Borstnik, J. VandeVondele, V. Weber, J. Hutter.
 Parallel Comput. 40, 47-58 (2014).
 Sparse matrix multiplication: The distributed block-compressed sparse row 
 library.
 https://doi.org/10.1016/j.parco.2014.03.012

 T. D. Kühne, M. Krack, F. R. Mohamed, M. Parrinello.
 Phys. Rev. Lett. 98, 066401 (2007).
 Efficient and accurate Car-Parrinello-like approach to Born-Oppenheimer 
 molecular dynamics.
 https://doi.org/10.1103/PhysRevLett.98.066401

 M. Frigo, S. G. Johnson.
 Proc. IEEE 93, 216-231 (2005).
 The design and implementation of FFTW3.
 https://doi.org/10.1109/JPROC.2004.840301

 J. Kolafa.
 J. Comput. Chem. 25, 335-342 (2004).
 Time-reversible always stable predictor-corrector method for molecular dynamics 
 of polarizable molecules.
 https://doi.org/10.1002/jcc.10385

 N. D. Mermin.
 Phys. Rev. 137, A1441-A1443 (1965).
 Thermal Properties of the Inhomogeneous Electron Gas.
 https://doi.org/10.1103/PhysRev.137.A1441


 -------------------------------------------------------------------------------
 -                                                                             -
 -                                T I M I N G                                  -
 -                                                                             -
 -------------------------------------------------------------------------------
 SUBROUTINE                       CALLS  ASD         SELF TIME        TOTAL TIME
                                MAXIMUM       AVERAGE  MAXIMUM  AVERAGE  MAXIMUM
 CP2K                                 1  1.0    0.002    0.002    0.244    0.244
 cp_geo_opt                           1  2.0    0.000    0.000    0.238    0.238
 geoopt_bfgs                          1  3.0    0.001    0.001    0.238    0.238
 cp_eval_at                          16  4.0    0.001    0.001    0.228    0.228
 qs_forces                           15  5.0    0.001    0.001    0.223    0.223
 qs_energies                         16  5.9    0.000    0.000    0.191    0.191
 scf_env_do_scf                      16  6.9    0.000    0.000    0.145    0.145
 scf_env_do_scf_inner_loop          185  8.0    0.004    0.004    0.144    0.144
 qs_scf_new_mos                     185  9.0    0.000    0.000    0.124    0.124
 cp_dbcsr_plus_fm_fm_t              215 10.9    0.001    0.001    0.060    0.060
 calculate_dm_sparse                200 10.0    0.000    0.000    0.056    0.056
 dbcsr_multiply_generic             280 12.0    0.003    0.003    0.051    0.051
 copy_dbcsr_to_fm                   435 10.5    0.001    0.001    0.034    0.034
 dbcsr_complete_redistribute        930 12.2    0.019    0.019    0.033    0.033
 eigensolver                        185 10.0    0.002    0.002    0.033    0.033
 cp_fm_syevd                        215 10.6    0.000    0.000    0.032    0.032
 rebuild_ks_matrix                  200  9.8    0.000    0.000    0.029    0.029
 build_tblite_ks_matrix             200 10.8    0.029    0.029    0.029    0.029
 make_m2s                           560 13.0    0.002    0.002    0.029    0.029
 init_scf_run                        16  6.9    0.000    0.000    0.027    0.027
 scf_env_initial_rho_setup           16  7.9    0.000    0.000    0.025    0.025
 wfi_extrapolate                     16  8.9    0.000    0.000    0.025    0.025
 cp_fm_syevd_base                   215 11.6    0.025    0.025    0.025    0.025
 build_tblite_matrices               31  7.0    0.022    0.022    0.023    0.023
 qs_ks_update_qs_env_forces          15  6.0    0.000    0.000    0.023    0.023
 qs_diis_b_step                     169 10.0    0.001    0.001    0.020    0.020
 copy_fm_to_dbcsr                   495 11.8    0.000    0.000    0.018    0.018
 cp_dbcsr_sm_fm_multiply             65 10.4    0.000    0.000    0.015    0.015
 make_images                        560 14.0    0.003    0.003    0.013    0.013
 qs_energies_init_hamiltonians       16  6.9    0.000    0.000    0.012    0.012
 multiply_cannon                    280 13.0    0.004    0.004    0.011    0.011
 dbcsr_finalize                    3352 13.4    0.003    0.003    0.010    0.010
 dbcsr_desymmetrize_deep            435 11.5    0.004    0.004    0.009    0.009
 qs_ks_update_qs_env                185  9.0    0.000    0.000    0.009    0.009
 cp_dbcsr_sm_fm_multiply_core        65 11.4    0.000    0.000    0.008    0.008
 dbcsr_crop_matrix                  430 13.9    0.001    0.001    0.007    0.007
 dbcsr_create_new                  6547 13.4    0.006    0.006    0.007    0.007
 reorthogonalize_vectors             15  9.9    0.000    0.000    0.007    0.007
 make_basis_lowdin                   15 10.9    0.000    0.000    0.007    0.007
 parallel_gemm_fm_gemm              483 10.6    0.000    0.000    0.006    0.006
 cp_fm_gemm                         483 11.6    0.006    0.006    0.006    0.006
 dbcsr_copy_submatrix               430 14.9    0.002    0.002    0.006    0.006
 dbcsr_merge_all                   1575 14.9    0.003    0.003    0.005    0.005
 -------------------------------------------------------------------------------

 The number of warnings for this run is : 0
 
 -------------------------------------------------------------------------------
  **** **** ******  **  PROGRAM ENDED AT                 2026-05-23 22:46:19.867
 ***** ** ***  *** **   PROGRAM RAN ON                                spark-c86c
 **    ****   ******    PROGRAM RAN BY                                  kuehne88
 ***** **    ** ** **   PROGRAM PROCESS ID                               2222444
  **** **  *******  **  PROGRAM STOPPED IN /home/kuehne88/periodic-gfn2-benchmar
                                           ks/X23b/runs/molecule_geoopt/GFN1/cyt
                                           osine_GFN1_mol_geoopt
