 DBCSR| CPU Multiplication driver                                           XSMM (U)
 DBCSR| Multrec recursion limit                                              512 (U)
 DBCSR| Multiplication stack size                                           1000 (D)
 DBCSR| Maximum elements for images                                    UNLIMITED (U)
 DBCSR| Multiplicative factor virtual images                                   1 (U)
 DBCSR| Use multiplication densification                                       T (D)
 DBCSR| Multiplication size stacks                                             3 (U)
 DBCSR| Use memory pool for CPU allocation                                     F (U)
 DBCSR| Number of 3D layers                                               SINGLE (U)
 DBCSR| Use MPI memory allocation                                              F (U)
 DBCSR| Use RMA algorithm                                                      F (U)
 DBCSR| Use Communication thread                                               T (U)
 DBCSR| Communication thread load                                             87 (D)
 DBCSR| MPI: My process id                                                     0
 DBCSR| MPI: Number of processes                                               1
 DBCSR| OMP: Current number of threads                                         1
 DBCSR| OMP: Max number of threads                                             1
 DBCSR| Split modifier for TAS multiplication algorithm                  1.0E+00 (U)


  **** **** ******  **  PROGRAM STARTED AT               2026-05-23 22:46:51.519
 ***** ** ***  *** **   PROGRAM STARTED ON                            spark-c86c
 **    ****   ******    PROGRAM STARTED BY                              kuehne88
 ***** **    ** ** **   PROGRAM PROCESS ID                               2265058
  **** **  *******  **  PROGRAM STARTED IN /home/kuehne88/periodic-gfn2-benchmar
                                           ks/X23b/runs/cellopt_gamma/GFN1/ethyl
                                           carbamate_GFN1_gamma_cellopt

 CP2K| version string:                 CP2K version 2026.1 (Development Version)
 CP2K| source code revision number:                                   0622d442e4
 CP2K| cp2kflags: omp fftw3 libxc parallel scalapack mpi_f08 xsmm spglib libdftd
 CP2K|            4 dftd4_v3 mctc-lib tblite
 CP2K| is freely available from                            https://www.cp2k.org/
 CP2K| Program compiled at                                   2026-05-23 22:05:08
 CP2K| Program compiled on                                            spark-c86c
 CP2K| Program compiled for                                              aarch64
 CP2K| Data directory path    /home/kuehne88/cp2k-master-tblite-20260523/install
 CP2K| Input file name                     ethylcarbamate_GFN1_gamma_cellopt.inp

 GLOBAL| Force Environment number                                              1
 GLOBAL| Basis set file name                                           BASIS_SET
 GLOBAL| Potential file name                                           POTENTIAL
 GLOBAL| MM Potential file name                                     MM_POTENTIAL
 GLOBAL| Coordinate file name                                      __STD_INPUT__
 GLOBAL| Method name                                                        CP2K
 GLOBAL| Project name                         ethylcarbamate_GFN1_gamma_cell_opt
 GLOBAL| Run type                                                       CELL_OPT
 GLOBAL| FFT library                                                       FFTW3
 GLOBAL| Diagonalization library                                       ScaLAPACK
 GLOBAL| Cholesky decomposition library                                ScaLAPACK
 GLOBAL| DGEMM library                                                      BLAS
 GLOBAL| Direct generalized diagonalization requested                          F
 GLOBAL| Orthonormality check for eigenvectors                          DISABLED
 GLOBAL| Matrix multiplication library                                 ScaLAPACK
 GLOBAL| All-to-all communication in single precision                          F
 GLOBAL| FFTs using library dependent lengths                                  F
 GLOBAL| Grid backend                                                       AUTO
 GLOBAL| Global print level                                                  LOW
 GLOBAL| MPI I/O enabled                                                       T
 GLOBAL| Total number of message passing processes                             1
 GLOBAL| Number of distributed systems (nodes)                                 1
 GLOBAL| Number of threads for this process                                    1
 GLOBAL| This output is from process                                           0
 GLOBAL| OpenMP stack size per thread (OMP_STACKSIZE)                    default
 GLOBAL| CPU model name                                                  UNKNOWN
 GLOBAL| CPUID                                                              2200
 GLOBAL| Compiled for CPUID                                                 2000

 *** HINT in environment.F:970 :: The compiler target flags (arm_arch64)   ***
 *** used to build this binary cannot exploit all extensions of this CPU   ***
 *** model (arm_sve256). Consider compiler target flags as part of FCFLAGS ***
 *** and CFLAGS (ARCH file).                                               ***


 MEMORY| system memory details [Kb]
 MEMORY|                        rank 0           min           max       average
 MEMORY| MemTotal            125508532     125508532     125508532     125508532
 MEMORY| MemFree             101787188     101787188     101787188     101787188
 MEMORY| Buffers                867432        867432        867432        867432
 MEMORY| Cached               13938572      13938572      13938572      13938572
 MEMORY| Slab                  1589516       1589516       1589516       1589516
 MEMORY| SReclaimable           911152        911152        911152        911152
 MEMORY| MemLikelyFree       117504344     117504344     117504344     117504344


 GENERATE|  Preliminary Number of Bonds generated:                             0
 GENERATE|  Achieved consistency in connectivity generation.


                  #####   #####        #     #   #     #       #          
                 #     # #     #      #    ##### #     #   # #####  ####  
                 #     # #           #       #   ###   #       #   #    # 
                 #     #  #####     #        #   #  #  #   #   #   ###### 
                 #   # #       #   #         #   #   # #   #   #   #      
                 #    #  #     #  #          #   #  #  # # #   #    #   # 
                  #### #  #####  #           #   ###   ##  #   #     ###  

                                   GFN1-xTB  
                                 Version 0.0                       
                            Johann V. Pototschnig                  



 TOTAL NUMBERS AND MAXIMUM NUMBERS

  Total number of            - Atomic kinds:                                   4
                             - Atoms:                                         26
                             - Shell sets:                                    52
                             - Shells:                                        52
                             - Primitive Cartesian functions:                298
                             - Cartesian basis functions:                     76
                             - Spherical basis functions:                     76

  Maximum angular momentum of the orbital basis functions:                     1


 SCF PARAMETERS         Density guess:                                     MOPAC
                        --------------------------------------------------------
                        max_scf:                                             300
                        max_scf_history:                                       0
                        max_diis:                                              4
                        --------------------------------------------------------
                        eps_scf:                                        1.00E-09
                        eps_scf_history:                                0.00E+00
                        eps_diis:                                       1.00E-01
                        eps_eigval:                                     1.00E-05
                        --------------------------------------------------------
                        level_shift [a.u.]:                             0.000000
                        added MOs                                        40    0
                        --------------------------------------------------------
                        Mixing method:                           DIRECT_P_MIXING
                        --------------------------------------------------------
                        Smear method:                                FERMI_DIRAC
                        Electronic temperature [K]:                        300.0
                        Electronic temperature [a.u.]:                  9.50E-04
                        Accuracy threshold:                             1.00E-06
                        --------------------------------------------------------
                        No outer SCF

 CELL_OPT| Pressure tolerance [bar]:                                       100.0
 CELL_OPT| Keep volume of cell:                                               NO
 CELL_OPT| Keep angles between the cell vectors:                              NO
 CELL_OPT| Keep cell symmetry:                                                NO
 CELL_OPT| Constraint:                                                      NONE

 BFGS| Use rational function optimization for step estimation:                NO
 BFGS| Use model Hessian for initial guess:                                   NO
 BFGS| Restart Hessian:                                                       NO
 BFGS| Trust radius:                                                       0.472

 *******************************************************************************
 ***                     STARTING   CELL   OPTIMIZATION                      ***
 ***                                   BFGS                                  ***
 *******************************************************************************

 CELL| Volume [angstrom^3]:                                           248.773079
 CELL| Vector a [angstrom]:       5.051     0.000     0.000   |a| =     5.051000
 CELL| Vector b [angstrom]:       1.619     6.822     0.000   |b| =     7.011000
 CELL| Vector c [angstrom]:      -1.899    -1.078     7.220   |c| =     7.543000
 CELL| Angle (b,c), alpha [degree]:                                   101.370000
 CELL| Angle (a,c), beta  [degree]:                                   104.580000
 CELL| Angle (a,b), gamma [degree]:                                    76.650000
 CELL| Numerically orthorhombic:                                              NO
 CELL| Periodicity                                                           XYZ

 Extrapolation method: initial_guess

 Number of electrons:                                                         72
 Number of occupied orbitals:                                                 36
 Number of molecular orbitals:                                                76

 Number of orbital functions:                                                 76
 Number of independent orbital functions:                                     76


 SCF WAVEFUNCTION OPTIMIZATION

  Step     Update method      Time    Convergence         Total energy    Change
  ------------------------------------------------------------------------------
     1 TBLite/Diag 0.40E+00    0.0     1.69273550       -44.6590011466 -4.47E+01
     2 TBLite/Diag 0.40E+00    0.0     0.31852840       -45.4023466026 -7.43E-01
     3 TBLite/Diag 0.40E+00    0.0     0.07079896       -45.4158033565 -1.35E-02
     4 TBLite/Diag 0.40E+00    0.0     0.03276384       -45.4171933173 -1.39E-03
     5 TBLite/Diag 0.40E+00    0.0     0.01840309       -45.4182710181 -1.08E-03
     6 TBLite/Diag 0.40E+00    0.0     0.00787640       -45.4182865524 -1.55E-05
     7 TBLite/Diag 0.40E+00    0.0     0.00417647       -45.4183721097 -8.56E-05
     8 TBLite/Diag 0.40E+00    0.0     0.00010953       -45.4183721300 -2.04E-08
     9 TBLite/Diag 0.40E+00    0.0     0.00006128       -45.4183721433 -1.33E-08
    10 TBLite/Diag 0.40E+00    0.0     0.00000872       -45.4183721438 -4.99E-10
    11 TBLite/Diag 0.40E+00    0.0     0.00000207       -45.4183721438 -2.12E-12
    12 TBLite/Diag 0.40E+00    0.0     0.00000109       -45.4183721438 -4.61E-12
    13 TBLite/Diag 0.40E+00    0.0     0.00000014       -45.4183721439 -4.26E-14
    14 TBLite/Diag 0.40E+00    0.0     0.00000005       -45.4183721439  1.42E-14
    15 TBLite/Diag 0.40E+00    0.0     6.5220E-09       -45.4183721439  1.42E-14
    16 TBLite/Diag 0.40E+00    0.0     4.6124E-10       -45.4183721439 -7.11E-15

  *** SCF run converged in    16 steps ***


  Core Hamiltonian energy:                                    -46.23861618127022
  Repulsive potential energy:                                   0.64328662892032
  Electrostatic energy:                                         0.21157803687445
  Self-consistent dispersion energy:                            0.00000000000000
  Non-self consistent dispersion energy:                       -0.03462062837456
  Correction for halogen bonding:                               0.00000000000000
  Electronic entropic energy:                                  -0.00000000000000
  Fermi energy:                                                -0.25306167040316

  Total energy:                                               -45.41837214385001
  Total energy (extrapolated to T->0):                        -45.41837214385001

 ENERGY| Total FORCE_EVAL ( QS ) energy [hartree]            -45.418372143850014

 OPT| **************************************************************************
 OPT| Step number                                                              0
 OPT| Optimization method                                                   BFGS
 OPT| Total energy [hartree]                                      -45.4183721439
 OPT| Internal pressure [bar]                                  104921.8140817508
 OPT| Used time [s]                                                        0.306
 OPT| **************************************************************************
 OPT| Estimated peak process memory [MiB]                                    167

 --------------------------
 OPTIMIZATION STEP:      1
 --------------------------

 CELL| Volume [angstrom^3]:                                           252.494117
 CELL| Vector a [angstrom]:       5.102     0.000     0.000   |a| =     5.101784
 CELL| Vector b [angstrom]:       1.613     6.847     0.000   |b| =     7.034206
 CELL| Vector c [angstrom]:      -1.913    -1.074     7.228   |c| =     7.554121
 CELL| Angle (b,c), alpha [degree]:                                   101.332308
 CELL| Angle (a,c), beta  [degree]:                                   104.669483
 CELL| Angle (a,b), gamma [degree]:                                    76.741324
 CELL| Numerically orthorhombic:                                              NO
 CELL| Periodicity                                                           XYZ

 Extrapolation method: ASPC

 Number of electrons:                                                         72
 Number of occupied orbitals:                                                 36
 Number of molecular orbitals:                                                76

 Number of orbital functions:                                                 76
 Number of independent orbital functions:                                     76


 SCF WAVEFUNCTION OPTIMIZATION

  Step     Update method      Time    Convergence         Total energy    Change
  ------------------------------------------------------------------------------
     1 TBLite/Diag 0.40E+00    0.0     0.19321629       -45.5176542526 -4.55E+01
     2 TBLite/Diag 0.40E+00    0.0     0.01667227       -45.5187897955 -1.14E-03
     3 TBLite/Diag 0.40E+00    0.0     0.00509359       -45.5188252241 -3.54E-05
     4 TBLite/Diag 0.40E+00    0.0     0.00124589       -45.5188265100 -1.29E-06
     5 TBLite/Diag 0.40E+00    0.0     0.00047991       -45.5188270028 -4.93E-07
     6 TBLite/Diag 0.40E+00    0.0     0.00018670       -45.5188271785 -1.76E-07
     7 TBLite/Diag 0.40E+00    0.0     0.00004076       -45.5188271835 -4.97E-09
     8 TBLite/Diag 0.40E+00    0.0     0.00000855       -45.5188271836 -1.37E-10
     9 TBLite/Diag 0.40E+00    0.0     0.00000151       -45.5188271836 -6.30E-12
    10 TBLite/Diag 0.40E+00    0.0     0.00000009       -45.5188271836  0.00E+00
    11 TBLite/Diag 0.40E+00    0.0     0.00000002       -45.5188271836 -2.13E-14
    12 TBLite/Diag 0.40E+00    0.0     5.0536E-09       -45.5188271836 -7.11E-15
    13 TBLite/Diag 0.40E+00    0.0     2.6431E-10       -45.5188271836 -2.13E-14

  *** SCF run converged in    13 steps ***


  Core Hamiltonian energy:                                    -46.13675415283663
  Repulsive potential energy:                                   0.43629744198251
  Electrostatic energy:                                         0.21572411233434
  Self-consistent dispersion energy:                            0.00000000000000
  Non-self consistent dispersion energy:                       -0.03409458508899
  Correction for halogen bonding:                               0.00000000000000
  Electronic entropic energy:                                  -0.00000000000000
  Fermi energy:                                                -0.25391639127416

  Total energy:                                               -45.51882718360878
  Total energy (extrapolated to T->0):                        -45.51882718360878

 ENERGY| Total FORCE_EVAL ( QS ) energy [hartree]            -45.518827183608778

 OPT| **************************************************************************
 OPT| Step number                                                              1
 OPT| Optimization method                                                   BFGS
 OPT| Total energy [hartree]                                      -45.5188271836
 OPT| Internal pressure [bar]                                   13429.6936222738
 OPT| Effective energy change [hartree]                            -0.1004550398
 OPT| Predicted energy change [hartree]                            -0.1413615441
 OPT| Scaling factor                                                0.0000000000
 OPT| Step size                                                     0.1885192087
 OPT| Trust radius                                                  0.4724315332
 OPT| Decrease in energy                                                     YES
 OPT| Used time [s]                                                        0.227
 OPT|
 OPT| Maximum step size                                             0.1885192087
 OPT| Convergence limit for maximum step size                       0.0030000000
 OPT| Maximum step size is converged                                          NO
 OPT|
 OPT| RMS step size                                                 0.0580150933
 OPT| Convergence limit for RMS step size                           0.0015000000
 OPT| RMS step size is converged                                              NO
 OPT|
 OPT| Maximum gradient                                              0.0606821896
 OPT| Convergence limit for maximum gradient                        0.0004500000
 OPT| Maximum gradient is converged                                           NO
 OPT|
 OPT| RMS gradient                                                  0.0178320867
 OPT| Convergence limit for RMS gradient                            0.0003000000
 OPT| RMS gradient is converged                                               NO
 OPT|
 OPT| Pressure deviation [bar]                                  13429.6936222738
 OPT| Pressure tolerance [bar]                                    100.0000000000
 OPT| Pressure is converged                                                   NO
 OPT| **************************************************************************
 OPT| Estimated peak process memory after this step [MiB]                    167

 --------------------------
 OPTIMIZATION STEP:      2
 --------------------------

 CELL| Volume [angstrom^3]:                                           252.943259
 CELL| Vector a [angstrom]:       5.100     0.000     0.000   |a| =     5.100374
 CELL| Vector b [angstrom]:       1.610     6.859     0.000   |b| =     7.045483
 CELL| Vector c [angstrom]:      -1.920    -1.069     7.230   |c| =     7.556939
 CELL| Angle (b,c), alpha [degree]:                                   101.292487
 CELL| Angle (a,c), beta  [degree]:                                   104.719653
 CELL| Angle (a,b), gamma [degree]:                                    76.791008
 CELL| Numerically orthorhombic:                                              NO
 CELL| Periodicity                                                           XYZ

 Extrapolation method: ASPC

 Number of electrons:                                                         72
 Number of occupied orbitals:                                                 36
 Number of molecular orbitals:                                                76

 Number of orbital functions:                                                 76
 Number of independent orbital functions:                                     76


 SCF WAVEFUNCTION OPTIMIZATION

  Step     Update method      Time    Convergence         Total energy    Change
  ------------------------------------------------------------------------------
     1 TBLite/Diag 0.40E+00    0.0     0.05619226       -45.5355285946 -4.55E+01
     2 TBLite/Diag 0.40E+00    0.0     0.01139857       -45.5359547095 -4.26E-04
     3 TBLite/Diag 0.40E+00    0.0     0.00047134       -45.5359576362 -2.93E-06
     4 TBLite/Diag 0.40E+00    0.0     0.00024074       -45.5359580444 -4.08E-07
     5 TBLite/Diag 0.40E+00    0.0     0.00011327       -45.5359580725 -2.81E-08
     6 TBLite/Diag 0.40E+00    0.0     0.00003622       -45.5359580774 -4.94E-09
     7 TBLite/Diag 0.40E+00    0.0     0.00000476       -45.5359580776 -1.87E-10
     8 TBLite/Diag 0.40E+00    0.0     0.00000094       -45.5359580776 -2.54E-12
     9 TBLite/Diag 0.40E+00    0.0     0.00000006       -45.5359580776 -6.39E-14
    10 TBLite/Diag 0.40E+00    0.0     0.00000002       -45.5359580776  3.55E-14
    11 TBLite/Diag 0.40E+00    0.0     5.4338E-09       -45.5359580776 -4.26E-14
    12 TBLite/Diag 0.40E+00    0.0     6.0938E-10       -45.5359580776 -2.13E-14

  *** SCF run converged in    12 steps ***


  Core Hamiltonian energy:                                    -46.14573119233650
  Repulsive potential energy:                                   0.43445037297499
  Electrostatic energy:                                         0.20935154641676
  Self-consistent dispersion energy:                            0.00000000000000
  Non-self consistent dispersion energy:                       -0.03402880464381
  Correction for halogen bonding:                               0.00000000000000
  Electronic entropic energy:                                  -0.00000000000000
  Fermi energy:                                                -0.25453715757214

  Total energy:                                               -45.53595807758856
  Total energy (extrapolated to T->0):                        -45.53595807758856

 ENERGY| Total FORCE_EVAL ( QS ) energy [hartree]            -45.535958077588560

 OPT| **************************************************************************
 OPT| Step number                                                              2
 OPT| Optimization method                                                   BFGS
 OPT| Total energy [hartree]                                      -45.5359580776
 OPT| Internal pressure [bar]                                   11118.1819208019
 OPT| Effective energy change [hartree]                            -0.0171308940
 OPT| Predicted energy change [hartree]                            -0.0110409914
 OPT| Scaling factor                                                0.0000000000
 OPT| Step size                                                     0.0459431046
 OPT| Trust radius                                                  0.4724315332
 OPT| Decrease in energy                                                     YES
 OPT| Used time [s]                                                        0.148
 OPT|
 OPT| Maximum step size                                             0.0459431046
 OPT| Convergence limit for maximum step size                       0.0030000000
 OPT| Maximum step size is converged                                          NO
 OPT|
 OPT| RMS step size                                                 0.0151959847
 OPT| Convergence limit for RMS step size                           0.0015000000
 OPT| RMS step size is converged                                              NO
 OPT|
 OPT| Maximum gradient                                              0.0413897468
 OPT| Convergence limit for maximum gradient                        0.0004500000
 OPT| Maximum gradient is converged                                           NO
 OPT|
 OPT| RMS gradient                                                  0.0112302738
 OPT| Convergence limit for RMS gradient                            0.0003000000
 OPT| RMS gradient is converged                                               NO
 OPT|
 OPT| Pressure deviation [bar]                                  11118.1819208019
 OPT| Pressure tolerance [bar]                                    100.0000000000
 OPT| Pressure is converged                                                   NO
 OPT| **************************************************************************
 OPT| Estimated peak process memory after this step [MiB]                    168

 --------------------------
 OPTIMIZATION STEP:      3
 --------------------------

 CELL| Volume [angstrom^3]:                                           254.143802
 CELL| Vector a [angstrom]:       5.104     0.000     0.000   |a| =     5.104152
 CELL| Vector b [angstrom]:       1.604     6.885     0.000   |b| =     7.069569
 CELL| Vector c [angstrom]:      -1.936    -1.057     7.232   |c| =     7.560553
 CELL| Angle (b,c), alpha [degree]:                                   101.199528
 CELL| Angle (a,c), beta  [degree]:                                   104.838815
 CELL| Angle (a,b), gamma [degree]:                                    76.888817
 CELL| Numerically orthorhombic:                                              NO
 CELL| Periodicity                                                           XYZ

 Extrapolation method: ASPC

 Number of electrons:                                                         72
 Number of occupied orbitals:                                                 36
 Number of molecular orbitals:                                                76

 Number of orbital functions:                                                 76
 Number of independent orbital functions:                                     76


 SCF WAVEFUNCTION OPTIMIZATION

  Step     Update method      Time    Convergence         Total energy    Change
  ------------------------------------------------------------------------------
     1 TBLite/Diag 0.40E+00    0.0     0.11310531       -45.5527861014 -4.56E+01
     2 TBLite/Diag 0.40E+00    0.0     0.00396730       -45.5528664973 -8.04E-05
     3 TBLite/Diag 0.40E+00    0.0     0.00068624       -45.5528694012 -2.90E-06
     4 TBLite/Diag 0.40E+00    0.0     0.00042436       -45.5528698337 -4.32E-07
     5 TBLite/Diag 0.40E+00    0.0     0.00017726       -45.5528699537 -1.20E-07
     6 TBLite/Diag 0.40E+00    0.0     0.00004500       -45.5528699578 -4.12E-09
     7 TBLite/Diag 0.40E+00    0.0     0.00000281       -45.5528699579 -6.55E-11
     8 TBLite/Diag 0.40E+00    0.0     0.00000199       -45.5528699579 -9.56E-12
     9 TBLite/Diag 0.40E+00    0.0     0.00000021       -45.5528699579 -1.21E-13
    10 TBLite/Diag 0.40E+00    0.0     0.00000007       -45.5528699579 -4.26E-14
    11 TBLite/Diag 0.40E+00    0.0     5.6692E-09       -45.5528699579  1.42E-14
    12 TBLite/Diag 0.40E+00    0.0     7.1783E-10       -45.5528699579 -4.26E-14

  *** SCF run converged in    12 steps ***


  Core Hamiltonian energy:                                    -46.15053689268552
  Repulsive potential energy:                                   0.42472037340369
  Electrostatic energy:                                         0.20680988390734
  Self-consistent dispersion energy:                            0.00000000000000
  Non-self consistent dispersion energy:                       -0.03386332254907
  Correction for halogen bonding:                               0.00000000000000
  Electronic entropic energy:                                  -0.00000000000000
  Fermi energy:                                                -0.25803217825418

  Total energy:                                               -45.55286995792357
  Total energy (extrapolated to T->0):                        -45.55286995792357

 ENERGY| Total FORCE_EVAL ( QS ) energy [hartree]            -45.552869957923569

 OPT| **************************************************************************
 OPT| Step number                                                              3
 OPT| Optimization method                                                   BFGS
 OPT| Total energy [hartree]                                      -45.5528699579
 OPT| Internal pressure [bar]                                    -975.4456929851
 OPT| Effective energy change [hartree]                            -0.0169118803
 OPT| Predicted energy change [hartree]                            -0.0143514679
 OPT| Scaling factor                                                0.0000000000
 OPT| Step size                                                     0.1053129852
 OPT| Trust radius                                                  0.4724315332
 OPT| Decrease in energy                                                     YES
 OPT| Used time [s]                                                        0.148
 OPT|
 OPT| Maximum step size                                             0.1053129852
 OPT| Convergence limit for maximum step size                       0.0030000000
 OPT| Maximum step size is converged                                          NO
 OPT|
 OPT| RMS step size                                                 0.0314033874
 OPT| Convergence limit for RMS step size                           0.0015000000
 OPT| RMS step size is converged                                              NO
 OPT|
 OPT| Maximum gradient                                              0.0197830580
 OPT| Convergence limit for maximum gradient                        0.0004500000
 OPT| Maximum gradient is converged                                           NO
 OPT|
 OPT| RMS gradient                                                  0.0088289186
 OPT| Convergence limit for RMS gradient                            0.0003000000
 OPT| RMS gradient is converged                                               NO
 OPT|
 OPT| Pressure deviation [bar]                                   -975.4456929851
 OPT| Pressure tolerance [bar]                                    100.0000000000
 OPT| Pressure is converged                                                   NO
 OPT| **************************************************************************
 OPT| Estimated peak process memory after this step [MiB]                    168

 --------------------------
 OPTIMIZATION STEP:      4
 --------------------------

 CELL| Volume [angstrom^3]:                                           254.603367
 CELL| Vector a [angstrom]:       5.107     0.000     0.000   |a| =     5.106999
 CELL| Vector b [angstrom]:       1.597     6.897     0.000   |b| =     7.079221
 CELL| Vector c [angstrom]:      -1.948    -1.049     7.229   |c| =     7.559523
 CELL| Angle (b,c), alpha [degree]:                                   101.147483
 CELL| Angle (a,c), beta  [degree]:                                   104.929148
 CELL| Angle (a,b), gamma [degree]:                                    76.962750
 CELL| Numerically orthorhombic:                                              NO
 CELL| Periodicity                                                           XYZ

 Extrapolation method: ASPC

 Number of electrons:                                                         72
 Number of occupied orbitals:                                                 36
 Number of molecular orbitals:                                                76

 Number of orbital functions:                                                 76
 Number of independent orbital functions:                                     76


 SCF WAVEFUNCTION OPTIMIZATION

  Step     Update method      Time    Convergence         Total energy    Change
  ------------------------------------------------------------------------------
     1 TBLite/Diag 0.40E+00    0.0     0.02092236       -45.5594736985 -4.56E+01
     2 TBLite/Diag 0.40E+00    0.0     0.00365746       -45.5595236313 -4.99E-05
     3 TBLite/Diag 0.40E+00    0.0     0.00051267       -45.5595245091 -8.78E-07
     4 TBLite/Diag 0.40E+00    0.0     0.00022442       -45.5595245370 -2.79E-08
     5 TBLite/Diag 0.40E+00    0.0     0.00011345       -45.5595245952 -5.82E-08
     6 TBLite/Diag 0.40E+00    0.0     0.00001336       -45.5595245958 -6.60E-10
     7 TBLite/Diag 0.40E+00    0.0     0.00000184       -45.5595245959 -3.22E-11
     8 TBLite/Diag 0.40E+00    0.0     0.00000063       -45.5595245959 -2.50E-12
     9 TBLite/Diag 0.40E+00    0.0     0.00000015       -45.5595245959 -1.35E-13
    10 TBLite/Diag 0.40E+00    0.0     0.00000002       -45.5595245959  6.39E-14
    11 TBLite/Diag 0.40E+00    0.0     4.6418E-09       -45.5595245959 -7.11E-15
    12 TBLite/Diag 0.40E+00    0.0     4.1576E-10       -45.5595245959 -7.11E-15

  *** SCF run converged in    12 steps ***


  Core Hamiltonian energy:                                    -46.15387225079902
  Repulsive potential energy:                                   0.42167595773080
  Electrostatic energy:                                         0.20647797850193
  Self-consistent dispersion energy:                            0.00000000000000
  Non-self consistent dispersion energy:                       -0.03380628130900
  Correction for halogen bonding:                               0.00000000000000
  Electronic entropic energy:                                  -0.00000000000000
  Fermi energy:                                                -0.25777373484349

  Total energy:                                               -45.55952459587528
  Total energy (extrapolated to T->0):                        -45.55952459587528

 ENERGY| Total FORCE_EVAL ( QS ) energy [hartree]            -45.559524595875281

 OPT| **************************************************************************
 OPT| Step number                                                              4
 OPT| Optimization method                                                   BFGS
 OPT| Total energy [hartree]                                      -45.5595245959
 OPT| Internal pressure [bar]                                   -5853.4982502968
 OPT| Effective energy change [hartree]                            -0.0066546380
 OPT| Predicted energy change [hartree]                            -0.0040313729
 OPT| Scaling factor                                                0.0000000000
 OPT| Step size                                                     0.0464844382
 OPT| Trust radius                                                  0.4724315332
 OPT| Decrease in energy                                                     YES
 OPT| Used time [s]                                                        0.148
 OPT|
 OPT| Maximum step size                                             0.0464844382
 OPT| Convergence limit for maximum step size                       0.0030000000
 OPT| Maximum step size is converged                                          NO
 OPT|
 OPT| RMS step size                                                 0.0162517039
 OPT| Convergence limit for RMS step size                           0.0015000000
 OPT| RMS step size is converged                                              NO
 OPT|
 OPT| Maximum gradient                                              0.0144469740
 OPT| Convergence limit for maximum gradient                        0.0004500000
 OPT| Maximum gradient is converged                                           NO
 OPT|
 OPT| RMS gradient                                                  0.0074414585
 OPT| Convergence limit for RMS gradient                            0.0003000000
 OPT| RMS gradient is converged                                               NO
 OPT|
 OPT| Pressure deviation [bar]                                  -5853.4982502968
 OPT| Pressure tolerance [bar]                                    100.0000000000
 OPT| Pressure is converged                                                   NO
 OPT| **************************************************************************
 OPT| Estimated peak process memory after this step [MiB]                    168

 --------------------------
 OPTIMIZATION STEP:      5
 --------------------------

 CELL| Volume [angstrom^3]:                                           254.975180
 CELL| Vector a [angstrom]:       5.110     0.000     0.000   |a| =     5.110285
 CELL| Vector b [angstrom]:       1.584     6.911     0.000   |b| =     7.090135
 CELL| Vector c [angstrom]:      -1.969    -1.036     7.220   |c| =     7.554775
 CELL| Angle (b,c), alpha [degree]:                                   101.062485
 CELL| Angle (a,c), beta  [degree]:                                   105.108238
 CELL| Angle (a,b), gamma [degree]:                                    77.088266
 CELL| Numerically orthorhombic:                                              NO
 CELL| Periodicity                                                           XYZ

 Extrapolation method: ASPC

 Number of electrons:                                                         72
 Number of occupied orbitals:                                                 36
 Number of molecular orbitals:                                                76

 Number of orbital functions:                                                 76
 Number of independent orbital functions:                                     76


 SCF WAVEFUNCTION OPTIMIZATION

  Step     Update method      Time    Convergence         Total energy    Change
  ------------------------------------------------------------------------------
     1 TBLite/Diag 0.40E+00    0.0     0.03581372       -45.5667091901 -4.56E+01
     2 TBLite/Diag 0.40E+00    0.0     0.00681596       -45.5668886713 -1.79E-04
     3 TBLite/Diag 0.40E+00    0.0     0.00141042       -45.5668949318 -6.26E-06
     4 TBLite/Diag 0.40E+00    0.0     0.00041050       -45.5668953752 -4.43E-07
     5 TBLite/Diag 0.40E+00    0.0     0.00015390       -45.5668954692 -9.40E-08
     6 TBLite/Diag 0.40E+00    0.0     0.00003325       -45.5668954737 -4.49E-09
     7 TBLite/Diag 0.40E+00    0.0     0.00000296       -45.5668954738 -5.16E-11
     8 TBLite/Diag 0.40E+00    0.0     0.00000087       -45.5668954738 -4.01E-12
     9 TBLite/Diag 0.40E+00    0.0     0.00000014       -45.5668954738 -1.63E-13
    10 TBLite/Diag 0.40E+00    0.0     0.00000002       -45.5668954738 -7.11E-15
    11 TBLite/Diag 0.40E+00    0.0     5.5594E-09       -45.5668954738 -1.42E-14
    12 TBLite/Diag 0.40E+00    0.0     1.1279E-09       -45.5668954738  2.13E-14
    13 TBLite/Diag 0.40E+00    0.0     3.2649E-11       -45.5668954738  7.11E-15

  *** SCF run converged in    13 steps ***


  Core Hamiltonian energy:                                    -46.15847616728271
  Repulsive potential energy:                                   0.41587009390825
  Electrostatic energy:                                         0.20947897592808
  Self-consistent dispersion energy:                            0.00000000000000
  Non-self consistent dispersion energy:                       -0.03376837632758
  Correction for halogen bonding:                               0.00000000000000
  Electronic entropic energy:                                  -0.00000000000000
  Fermi energy:                                                -0.25862579236389

  Total energy:                                               -45.56689547377398
  Total energy (extrapolated to T->0):                        -45.56689547377398

 ENERGY| Total FORCE_EVAL ( QS ) energy [hartree]            -45.566895473773975

 OPT| **************************************************************************
 OPT| Step number                                                              5
 OPT| Optimization method                                                   BFGS
 OPT| Total energy [hartree]                                      -45.5668954738
 OPT| Internal pressure [bar]                                  -14523.5835179057
 OPT| Effective energy change [hartree]                            -0.0073708779
 OPT| Predicted energy change [hartree]                            -0.0065022278
 OPT| Scaling factor                                                0.0000000000
 OPT| Step size                                                     0.0920226687
 OPT| Trust radius                                                  0.4724315332
 OPT| Decrease in energy                                                     YES
 OPT| Used time [s]                                                        0.150
 OPT|
 OPT| Maximum step size                                             0.0920226687
 OPT| Convergence limit for maximum step size                       0.0030000000
 OPT| Maximum step size is converged                                          NO
 OPT|
 OPT| RMS step size                                                 0.0311969777
 OPT| Convergence limit for RMS step size                           0.0015000000
 OPT| RMS step size is converged                                              NO
 OPT|
 OPT| Maximum gradient                                              0.0111676161
 OPT| Convergence limit for maximum gradient                        0.0004500000
 OPT| Maximum gradient is converged                                           NO
 OPT|
 OPT| RMS gradient                                                  0.0035670812
 OPT| Convergence limit for RMS gradient                            0.0003000000
 OPT| RMS gradient is converged                                               NO
 OPT|
 OPT| Pressure deviation [bar]                                 -14523.5835179057
 OPT| Pressure tolerance [bar]                                    100.0000000000
 OPT| Pressure is converged                                                   NO
 OPT| **************************************************************************
 OPT| Estimated peak process memory after this step [MiB]                    168

 --------------------------
 OPTIMIZATION STEP:      6
 --------------------------

 CELL| Volume [angstrom^3]:                                           254.477436
 CELL| Vector a [angstrom]:       5.106     0.000     0.000   |a| =     5.106259
 CELL| Vector b [angstrom]:       1.583     6.906     0.000   |b| =     7.085135
 CELL| Vector c [angstrom]:      -1.972    -1.035     7.216   |c| =     7.552278
 CELL| Angle (b,c), alpha [degree]:                                   101.067047
 CELL| Angle (a,c), beta  [degree]:                                   105.136769
 CELL| Angle (a,b), gamma [degree]:                                    77.089093
 CELL| Numerically orthorhombic:                                              NO
 CELL| Periodicity                                                           XYZ

 Extrapolation method: ASPC

 Number of electrons:                                                         72
 Number of occupied orbitals:                                                 36
 Number of molecular orbitals:                                                76

 Number of orbital functions:                                                 76
 Number of independent orbital functions:                                     76


 SCF WAVEFUNCTION OPTIMIZATION

  Step     Update method      Time    Convergence         Total energy    Change
  ------------------------------------------------------------------------------
     1 TBLite/Diag 0.40E+00    0.0     0.01213380       -45.5680129122 -4.56E+01
     2 TBLite/Diag 0.40E+00    0.0     0.00140259       -45.5680216328 -8.72E-06
     3 TBLite/Diag 0.40E+00    0.0     0.00006882       -45.5680216638 -3.10E-08
     4 TBLite/Diag 0.40E+00    0.0     0.00005324       -45.5680216683 -4.54E-09
     5 TBLite/Diag 0.40E+00    0.0     0.00000979       -45.5680216687 -3.49E-10
     6 TBLite/Diag 0.40E+00    0.0     0.00000572       -45.5680216688 -7.25E-11
     7 TBLite/Diag 0.40E+00    0.0     0.00000040       -45.5680216688 -7.25E-13
     8 TBLite/Diag 0.40E+00    0.0     0.00000007       -45.5680216688 -2.84E-14
     9 TBLite/Diag 0.40E+00    0.0     0.00000002       -45.5680216688 -7.11E-15
    10 TBLite/Diag 0.40E+00    0.0     6.5803E-09       -45.5680216688  7.11E-15
    11 TBLite/Diag 0.40E+00    0.0     1.6334E-09       -45.5680216688 -2.13E-14
    12 TBLite/Diag 0.40E+00    0.0     5.3158E-11       -45.5680216688 -1.42E-14

  *** SCF run converged in    12 steps ***


  Core Hamiltonian energy:                                    -46.16610204515003
  Repulsive potential energy:                                   0.42208158001236
  Electrostatic energy:                                         0.20983538007752
  Self-consistent dispersion energy:                            0.00000000000000
  Non-self consistent dispersion energy:                       -0.03383658370664
  Correction for halogen bonding:                               0.00000000000000
  Electronic entropic energy:                                  -0.00000000000000
  Fermi energy:                                                -0.25741731351251

  Total energy:                                               -45.56802166876679
  Total energy (extrapolated to T->0):                        -45.56802166876679

 ENERGY| Total FORCE_EVAL ( QS ) energy [hartree]            -45.568021668766789

 OPT| **************************************************************************
 OPT| Step number                                                              6
 OPT| Optimization method                                                   BFGS
 OPT| Total energy [hartree]                                      -45.5680216688
 OPT| Internal pressure [bar]                                  -10009.8181714057
 OPT| Effective energy change [hartree]                            -0.0011261950
 OPT| Predicted energy change [hartree]                            -0.0007060891
 OPT| Scaling factor                                                0.0000000000
 OPT| Step size                                                     0.0167276588
 OPT| Trust radius                                                  0.4724315332
 OPT| Decrease in energy                                                     YES
 OPT| Used time [s]                                                        0.148
 OPT|
 OPT| Maximum step size                                             0.0167276588
 OPT| Convergence limit for maximum step size                       0.0030000000
 OPT| Maximum step size is converged                                          NO
 OPT|
 OPT| RMS step size                                                 0.0061973596
 OPT| Convergence limit for RMS step size                           0.0015000000
 OPT| RMS step size is converged                                              NO
 OPT|
 OPT| Maximum gradient                                              0.0094085993
 OPT| Convergence limit for maximum gradient                        0.0004500000
 OPT| Maximum gradient is converged                                           NO
 OPT|
 OPT| RMS gradient                                                  0.0029392733
 OPT| Convergence limit for RMS gradient                            0.0003000000
 OPT| RMS gradient is converged                                               NO
 OPT|
 OPT| Pressure deviation [bar]                                 -10009.8181714057
 OPT| Pressure tolerance [bar]                                    100.0000000000
 OPT| Pressure is converged                                                   NO
 OPT| **************************************************************************
 OPT| Estimated peak process memory after this step [MiB]                    168

 --------------------------
 OPTIMIZATION STEP:      7
 --------------------------

 CELL| Volume [angstrom^3]:                                           253.320991
 CELL| Vector a [angstrom]:       5.099     0.000     0.000   |a| =     5.098558
 CELL| Vector b [angstrom]:       1.583     6.891     0.000   |b| =     7.070356
 CELL| Vector c [angstrom]:      -1.975    -1.036     7.210   |c| =     7.547349
 CELL| Angle (b,c), alpha [degree]:                                   101.093318
 CELL| Angle (a,c), beta  [degree]:                                   105.172429
 CELL| Angle (a,b), gamma [degree]:                                    77.064445
 CELL| Numerically orthorhombic:                                              NO
 CELL| Periodicity                                                           XYZ

 Extrapolation method: ASPC

 Number of electrons:                                                         72
 Number of occupied orbitals:                                                 36
 Number of molecular orbitals:                                                76

 Number of orbital functions:                                                 76
 Number of independent orbital functions:                                     76


 SCF WAVEFUNCTION OPTIMIZATION

  Step     Update method      Time    Convergence         Total energy    Change
  ------------------------------------------------------------------------------
     1 TBLite/Diag 0.40E+00    0.0     0.03063098       -45.5696903810 -4.56E+01
     2 TBLite/Diag 0.40E+00    0.0     0.00103502       -45.5696950252 -4.64E-06
     3 TBLite/Diag 0.40E+00    0.0     0.00018107       -45.5696951626 -1.37E-07
     4 TBLite/Diag 0.40E+00    0.0     0.00011279       -45.5696951807 -1.81E-08
     5 TBLite/Diag 0.40E+00    0.0     0.00005573       -45.5696951905 -9.74E-09
     6 TBLite/Diag 0.40E+00    0.0     0.00001495       -45.5696951916 -1.17E-09
     7 TBLite/Diag 0.40E+00    0.0     0.00000140       -45.5696951916 -5.63E-12
     8 TBLite/Diag 0.40E+00    0.0     0.00000020       -45.5696951916 -1.78E-13
     9 TBLite/Diag 0.40E+00    0.0     0.00000007       -45.5696951916 -5.68E-14
    10 TBLite/Diag 0.40E+00    0.0     7.2545E-09       -45.5696951916  0.00E+00
    11 TBLite/Diag 0.40E+00    0.0     5.0617E-10       -45.5696951916  3.55E-14

  *** SCF run converged in    11 steps ***


  Core Hamiltonian energy:                                    -46.17835170477588
  Repulsive potential energy:                                   0.43219310315168
  Electrostatic energy:                                         0.21045709887426
  Self-consistent dispersion energy:                            0.00000000000000
  Non-self consistent dispersion energy:                       -0.03399368889046
  Correction for halogen bonding:                               0.00000000000000
  Electronic entropic energy:                                  -0.00000000000000
  Fermi energy:                                                -0.25679553815171

  Total energy:                                               -45.56969519164040
  Total energy (extrapolated to T->0):                        -45.56969519164040

 ENERGY| Total FORCE_EVAL ( QS ) energy [hartree]            -45.569695191640399

 OPT| **************************************************************************
 OPT| Step number                                                              7
 OPT| Optimization method                                                   BFGS
 OPT| Total energy [hartree]                                      -45.5696951916
 OPT| Internal pressure [bar]                                   -2133.7983146428
 OPT| Effective energy change [hartree]                            -0.0016735229
 OPT| Predicted energy change [hartree]                            -0.0011978283
 OPT| Scaling factor                                                0.0000000000
 OPT| Step size                                                     0.0338355660
 OPT| Trust radius                                                  0.4724315332
 OPT| Decrease in energy                                                     YES
 OPT| Used time [s]                                                        0.148
 OPT|
 OPT| Maximum step size                                             0.0338355660
 OPT| Convergence limit for maximum step size                       0.0030000000
 OPT| Maximum step size is converged                                          NO
 OPT|
 OPT| RMS step size                                                 0.0123445127
 OPT| Convergence limit for RMS step size                           0.0015000000
 OPT| RMS step size is converged                                              NO
 OPT|
 OPT| Maximum gradient                                              0.0088629840
 OPT| Convergence limit for maximum gradient                        0.0004500000
 OPT| Maximum gradient is converged                                           NO
 OPT|
 OPT| RMS gradient                                                  0.0032190908
 OPT| Convergence limit for RMS gradient                            0.0003000000
 OPT| RMS gradient is converged                                               NO
 OPT|
 OPT| Pressure deviation [bar]                                  -2133.7983146428
 OPT| Pressure tolerance [bar]                                    100.0000000000
 OPT| Pressure is converged                                                   NO
 OPT| **************************************************************************
 OPT| Estimated peak process memory after this step [MiB]                    168

 --------------------------
 OPTIMIZATION STEP:      8
 --------------------------

 CELL| Volume [angstrom^3]:                                           252.208581
 CELL| Vector a [angstrom]:       5.093     0.000     0.000   |a| =     5.092697
 CELL| Vector b [angstrom]:       1.584     6.873     0.000   |b| =     7.053476
 CELL| Vector c [angstrom]:      -1.977    -1.039     7.205   |c| =     7.543215
 CELL| Angle (b,c), alpha [degree]:                                   101.129456
 CELL| Angle (a,c), beta  [degree]:                                   105.192061
 CELL| Angle (a,b), gamma [degree]:                                    77.025351
 CELL| Numerically orthorhombic:                                              NO
 CELL| Periodicity                                                           XYZ

 Extrapolation method: ASPC

 Number of electrons:                                                         72
 Number of occupied orbitals:                                                 36
 Number of molecular orbitals:                                                76

 Number of orbital functions:                                                 76
 Number of independent orbital functions:                                     76


 SCF WAVEFUNCTION OPTIMIZATION

  Step     Update method      Time    Convergence         Total energy    Change
  ------------------------------------------------------------------------------
     1 TBLite/Diag 0.40E+00    0.0     0.03797763       -45.5711389800 -4.56E+01
     2 TBLite/Diag 0.40E+00    0.0     0.00053211       -45.5711406032 -1.62E-06
     3 TBLite/Diag 0.40E+00    0.0     0.00013993       -45.5711406513 -4.80E-08
     4 TBLite/Diag 0.40E+00    0.0     0.00011131       -45.5711406702 -1.90E-08
     5 TBLite/Diag 0.40E+00    0.0     0.00004056       -45.5711406772 -6.97E-09
     6 TBLite/Diag 0.40E+00    0.0     0.00000957       -45.5711406775 -2.94E-10
     7 TBLite/Diag 0.40E+00    0.0     0.00000088       -45.5711406775 -2.64E-12
     8 TBLite/Diag 0.40E+00    0.0     0.00000015       -45.5711406775 -1.78E-13
     9 TBLite/Diag 0.40E+00    0.0     0.00000003       -45.5711406775  2.84E-14
    10 TBLite/Diag 0.40E+00    0.0     4.6101E-09       -45.5711406775  1.42E-14
    11 TBLite/Diag 0.40E+00    0.0     5.9781E-10       -45.5711406775  1.42E-14

  *** SCF run converged in    11 steps ***


  Core Hamiltonian energy:                                    -46.18559137905660
  Repulsive potential energy:                                   0.43855411049053
  Electrostatic energy:                                         0.21004114531390
  Self-consistent dispersion energy:                            0.00000000000000
  Non-self consistent dispersion energy:                       -0.03414455422643
  Correction for halogen bonding:                               0.00000000000000
  Electronic entropic energy:                                  -0.00000000000000
  Fermi energy:                                                -0.25702877074860

  Total energy:                                               -45.57114067747861
  Total energy (extrapolated to T->0):                        -45.57114067747861

 ENERGY| Total FORCE_EVAL ( QS ) energy [hartree]            -45.571140677478610

 OPT| **************************************************************************
 OPT| Step number                                                              8
 OPT| Optimization method                                                   BFGS
 OPT| Total energy [hartree]                                      -45.5711406775
 OPT| Internal pressure [bar]                                    3486.8169079552
 OPT| Effective energy change [hartree]                            -0.0014454858
 OPT| Predicted energy change [hartree]                            -0.0009283859
 OPT| Scaling factor                                                0.0000000000
 OPT| Step size                                                     0.0361312429
 OPT| Trust radius                                                  0.4724315332
 OPT| Decrease in energy                                                     YES
 OPT| Used time [s]                                                        0.148
 OPT|
 OPT| Maximum step size                                             0.0361312429
 OPT| Convergence limit for maximum step size                       0.0030000000
 OPT| Maximum step size is converged                                          NO
 OPT|
 OPT| RMS step size                                                 0.0127323197
 OPT| Convergence limit for RMS step size                           0.0015000000
 OPT| RMS step size is converged                                              NO
 OPT|
 OPT| Maximum gradient                                              0.0106339456
 OPT| Convergence limit for maximum gradient                        0.0004500000
 OPT| Maximum gradient is converged                                           NO
 OPT|
 OPT| RMS gradient                                                  0.0036300222
 OPT| Convergence limit for RMS gradient                            0.0003000000
 OPT| RMS gradient is converged                                               NO
 OPT|
 OPT| Pressure deviation [bar]                                   3486.8169079552
 OPT| Pressure tolerance [bar]                                    100.0000000000
 OPT| Pressure is converged                                                   NO
 OPT| **************************************************************************
 OPT| Estimated peak process memory after this step [MiB]                    168

 --------------------------
 OPTIMIZATION STEP:      9
 --------------------------

 CELL| Volume [angstrom^3]:                                           250.567201
 CELL| Vector a [angstrom]:       5.087     0.000     0.000   |a| =     5.086944
 CELL| Vector b [angstrom]:       1.585     6.843     0.000   |b| =     7.024451
 CELL| Vector c [angstrom]:      -1.978    -1.044     7.198   |c| =     7.537438
 CELL| Angle (b,c), alpha [degree]:                                   101.195692
 CELL| Angle (a,c), beta  [degree]:                                   105.216029
 CELL| Angle (a,b), gamma [degree]:                                    76.957790
 CELL| Numerically orthorhombic:                                              NO
 CELL| Periodicity                                                           XYZ

 Extrapolation method: ASPC

 Number of electrons:                                                         72
 Number of occupied orbitals:                                                 36
 Number of molecular orbitals:                                                76

 Number of orbital functions:                                                 76
 Number of independent orbital functions:                                     76


 SCF WAVEFUNCTION OPTIMIZATION

  Step     Update method      Time    Convergence         Total energy    Change
  ------------------------------------------------------------------------------
     1 TBLite/Diag 0.40E+00    0.0     0.07306688       -45.5732352710 -4.56E+01
     2 TBLite/Diag 0.40E+00    0.0     0.00175363       -45.5732555852 -2.03E-05
     3 TBLite/Diag 0.40E+00    0.0     0.00029534       -45.5732558752 -2.90E-07
     4 TBLite/Diag 0.40E+00    0.0     0.00022343       -45.5732558817 -6.56E-09
     5 TBLite/Diag 0.40E+00    0.0     0.00011936       -45.5732559476 -6.59E-08
     6 TBLite/Diag 0.40E+00    0.0     0.00002163       -45.5732559486 -1.02E-09
     7 TBLite/Diag 0.40E+00    0.0     0.00000069       -45.5732559486 -7.04E-12
     8 TBLite/Diag 0.40E+00    0.0     0.00000058       -45.5732559486 -1.56E-12
     9 TBLite/Diag 0.40E+00    0.0     0.00000007       -45.5732559486  0.00E+00
    10 TBLite/Diag 0.40E+00    0.0     0.00000003       -45.5732559486  2.13E-14
    11 TBLite/Diag 0.40E+00    0.0     1.9619E-09       -45.5732559486 -3.55E-14
    12 TBLite/Diag 0.40E+00    0.0     1.8928E-10       -45.5732559486 -1.42E-14

  *** SCF run converged in    12 steps ***


  Core Hamiltonian energy:                                    -46.18839878584549
  Repulsive potential energy:                                   0.44084408091042
  Electrostatic energy:                                         0.20866812451949
  Self-consistent dispersion energy:                            0.00000000000000
  Non-self consistent dispersion energy:                       -0.03436936820290
  Correction for halogen bonding:                               0.00000000000000
  Electronic entropic energy:                                  -0.00000000000000
  Fermi energy:                                                -0.25915680599338

  Total energy:                                               -45.57325594861847
  Total energy (extrapolated to T->0):                        -45.57325594861847

 ENERGY| Total FORCE_EVAL ( QS ) energy [hartree]            -45.573255948618474

 OPT| **************************************************************************
 OPT| Step number                                                              9
 OPT| Optimization method                                                   BFGS
 OPT| Total energy [hartree]                                      -45.5732559486
 OPT| Internal pressure [bar]                                    6890.8492303847
 OPT| Effective energy change [hartree]                            -0.0021152711
 OPT| Predicted energy change [hartree]                            -0.0015223477
 OPT| Scaling factor                                                0.0000000000
 OPT| Step size                                                     0.0714987850
 OPT| Trust radius                                                  0.4724315332
 OPT| Decrease in energy                                                     YES
 OPT| Used time [s]                                                        0.150
 OPT|
 OPT| Maximum step size                                             0.0714987850
 OPT| Convergence limit for maximum step size                       0.0030000000
 OPT| Maximum step size is converged                                          NO
 OPT|
 OPT| RMS step size                                                 0.0226936188
 OPT| Convergence limit for RMS step size                           0.0015000000
 OPT| RMS step size is converged                                              NO
 OPT|
 OPT| Maximum gradient                                              0.0101470078
 OPT| Convergence limit for maximum gradient                        0.0004500000
 OPT| Maximum gradient is converged                                           NO
 OPT|
 OPT| RMS gradient                                                  0.0038205755
 OPT| Convergence limit for RMS gradient                            0.0003000000
 OPT| RMS gradient is converged                                               NO
 OPT|
 OPT| Pressure deviation [bar]                                   6890.8492303847
 OPT| Pressure tolerance [bar]                                    100.0000000000
 OPT| Pressure is converged                                                   NO
 OPT| **************************************************************************
 OPT| Estimated peak process memory after this step [MiB]                    168

 --------------------------
 OPTIMIZATION STEP:     10
 --------------------------

 CELL| Volume [angstrom^3]:                                           249.417809
 CELL| Vector a [angstrom]:       5.085     0.000     0.000   |a| =     5.085423
 CELL| Vector b [angstrom]:       1.585     6.819     0.000   |b| =     7.000711
 CELL| Vector c [angstrom]:      -1.980    -1.049     7.193   |c| =     7.533505
 CELL| Angle (b,c), alpha [degree]:                                   101.255267
 CELL| Angle (a,c), beta  [degree]:                                   105.234266
 CELL| Angle (a,b), gamma [degree]:                                    76.912949
 CELL| Numerically orthorhombic:                                              NO
 CELL| Periodicity                                                           XYZ

 Extrapolation method: ASPC

 Number of electrons:                                                         72
 Number of occupied orbitals:                                                 36
 Number of molecular orbitals:                                                76

 Number of orbital functions:                                                 76
 Number of independent orbital functions:                                     76


 SCF WAVEFUNCTION OPTIMIZATION

  Step     Update method      Time    Convergence         Total energy    Change
  ------------------------------------------------------------------------------
     1 TBLite/Diag 0.40E+00    0.0     0.06710849       -45.5748995952 -4.56E+01
     2 TBLite/Diag 0.40E+00    0.0     0.00261556       -45.5749320654 -3.25E-05
     3 TBLite/Diag 0.40E+00    0.0     0.00017656       -45.5749323750 -3.10E-07
     4 TBLite/Diag 0.40E+00    0.0     0.00016874       -45.5749323747  2.49E-10
     5 TBLite/Diag 0.40E+00    0.0     0.00010343       -45.5749324261 -5.14E-08
     6 TBLite/Diag 0.40E+00    0.0     0.00002159       -45.5749324276 -1.44E-09
     7 TBLite/Diag 0.40E+00    0.0     0.00000125       -45.5749324276 -5.53E-12
     8 TBLite/Diag 0.40E+00    0.0     0.00000044       -45.5749324276 -1.11E-12
     9 TBLite/Diag 0.40E+00    0.0     0.00000003       -45.5749324276 -2.13E-14
    10 TBLite/Diag 0.40E+00    0.0     0.00000002       -45.5749324276  5.68E-14
    11 TBLite/Diag 0.40E+00    0.0     1.0573E-09       -45.5749324276  2.13E-14
    12 TBLite/Diag 0.40E+00    0.0     1.2249E-10       -45.5749324276 -5.68E-14

  *** SCF run converged in    12 steps ***


  Core Hamiltonian energy:                                    -46.18348457343087
  Repulsive potential energy:                                   0.43609068095622
  Electrostatic energy:                                         0.20699143287753
  Self-consistent dispersion energy:                            0.00000000000000
  Non-self consistent dispersion energy:                       -0.03452996799198
  Correction for halogen bonding:                               0.00000000000000
  Electronic entropic energy:                                  -0.00000000000000
  Fermi energy:                                                -0.26177565598494

  Total energy:                                               -45.57493242758910
  Total energy (extrapolated to T->0):                        -45.57493242758910

 ENERGY| Total FORCE_EVAL ( QS ) energy [hartree]            -45.574932427589104

 OPT| **************************************************************************
 OPT| Step number                                                             10
 OPT| Optimization method                                                   BFGS
 OPT| Total energy [hartree]                                      -45.5749324276
 OPT| Internal pressure [bar]                                    4720.1698573467
 OPT| Effective energy change [hartree]                            -0.0016764790
 OPT| Predicted energy change [hartree]                            -0.0011805356
 OPT| Scaling factor                                                0.0000000000
 OPT| Step size                                                     0.0669446216
 OPT| Trust radius                                                  0.4724315332
 OPT| Decrease in energy                                                     YES
 OPT| Used time [s]                                                        0.150
 OPT|
 OPT| Maximum step size                                             0.0669446216
 OPT| Convergence limit for maximum step size                       0.0030000000
 OPT| Maximum step size is converged                                          NO
 OPT|
 OPT| RMS step size                                                 0.0198550817
 OPT| Convergence limit for RMS step size                           0.0015000000
 OPT| RMS step size is converged                                              NO
 OPT|
 OPT| Maximum gradient                                              0.0081766832
 OPT| Convergence limit for maximum gradient                        0.0004500000
 OPT| Maximum gradient is converged                                           NO
 OPT|
 OPT| RMS gradient                                                  0.0036841527
 OPT| Convergence limit for RMS gradient                            0.0003000000
 OPT| RMS gradient is converged                                               NO
 OPT|
 OPT| Pressure deviation [bar]                                   4720.1698573467
 OPT| Pressure tolerance [bar]                                    100.0000000000
 OPT| Pressure is converged                                                   NO
 OPT| **************************************************************************
 OPT| Estimated peak process memory after this step [MiB]                    168

 --------------------------
 OPTIMIZATION STEP:     11
 --------------------------

 CELL| Volume [angstrom^3]:                                           248.642201
 CELL| Vector a [angstrom]:       5.086     0.000     0.000   |a| =     5.086037
 CELL| Vector b [angstrom]:       1.582     6.801     0.000   |b| =     6.982913
 CELL| Vector c [angstrom]:      -1.982    -1.055     7.188   |c| =     7.530345
 CELL| Angle (b,c), alpha [degree]:                                   101.306538
 CELL| Angle (a,c), beta  [degree]:                                   105.256271
 CELL| Angle (a,b), gamma [degree]:                                    76.901767
 CELL| Numerically orthorhombic:                                              NO
 CELL| Periodicity                                                           XYZ

 Extrapolation method: ASPC

 Number of electrons:                                                         72
 Number of occupied orbitals:                                                 36
 Number of molecular orbitals:                                                76

 Number of orbital functions:                                                 76
 Number of independent orbital functions:                                     76


 SCF WAVEFUNCTION OPTIMIZATION

  Step     Update method      Time    Convergence         Total energy    Change
  ------------------------------------------------------------------------------
     1 TBLite/Diag 0.40E+00    0.0     0.05963364       -45.5765439335 -4.56E+01
     2 TBLite/Diag 0.40E+00    0.0     0.00282850       -45.5765774918 -3.36E-05
     3 TBLite/Diag 0.40E+00    0.0     0.00019177       -45.5765778012 -3.09E-07
     4 TBLite/Diag 0.40E+00    0.0     0.00017660       -45.5765778408 -3.96E-08
     5 TBLite/Diag 0.40E+00    0.0     0.00002700       -45.5765778452 -4.38E-09
     6 TBLite/Diag 0.40E+00    0.0     0.00001235       -45.5765778456 -3.86E-10
     7 TBLite/Diag 0.40E+00    0.0     0.00000102       -45.5765778456 -3.31E-12
     8 TBLite/Diag 0.40E+00    0.0     0.00000041       -45.5765778456 -9.02E-13
     9 TBLite/Diag 0.40E+00    0.0     0.00000007       -45.5765778456 -3.55E-14
    10 TBLite/Diag 0.40E+00    0.0     0.00000001       -45.5765778456 -7.11E-15
    11 TBLite/Diag 0.40E+00    0.0     4.2559E-09       -45.5765778456  7.11E-15
    12 TBLite/Diag 0.40E+00    0.0     9.9198E-11       -45.5765778456  7.11E-15

  *** SCF run converged in    12 steps ***


  Core Hamiltonian energy:                                    -46.17492508868619
  Repulsive potential energy:                                   0.42751602698237
  Electrostatic energy:                                         0.20547456101060
  Self-consistent dispersion energy:                            0.00000000000000
  Non-self consistent dispersion energy:                       -0.03464334487972
  Correction for halogen bonding:                               0.00000000000000
  Electronic entropic energy:                                  -0.00000000000000
  Fermi energy:                                                -0.26398701488241

  Total energy:                                               -45.57657784557293
  Total energy (extrapolated to T->0):                        -45.57657784557293

 ENERGY| Total FORCE_EVAL ( QS ) energy [hartree]            -45.576577845572935

 OPT| **************************************************************************
 OPT| Step number                                                             11
 OPT| Optimization method                                                   BFGS
 OPT| Total energy [hartree]                                      -45.5765778456
 OPT| Internal pressure [bar]                                    -831.6008310950
 OPT| Effective energy change [hartree]                            -0.0016454180
 OPT| Predicted energy change [hartree]                            -0.0011783981
 OPT| Scaling factor                                                0.0000000000
 OPT| Step size                                                     0.0601400360
 OPT| Trust radius                                                  0.4724315332
 OPT| Decrease in energy                                                     YES
 OPT| Used time [s]                                                        0.150
 OPT|
 OPT| Maximum step size                                             0.0601400360
 OPT| Convergence limit for maximum step size                       0.0030000000
 OPT| Maximum step size is converged                                          NO
 OPT|
 OPT| RMS step size                                                 0.0176832916
 OPT| Convergence limit for RMS step size                           0.0015000000
 OPT| RMS step size is converged                                              NO
 OPT|
 OPT| Maximum gradient                                              0.0084461184
 OPT| Convergence limit for maximum gradient                        0.0004500000
 OPT| Maximum gradient is converged                                           NO
 OPT|
 OPT| RMS gradient                                                  0.0033342092
 OPT| Convergence limit for RMS gradient                            0.0003000000
 OPT| RMS gradient is converged                                               NO
 OPT|
 OPT| Pressure deviation [bar]                                   -831.6008310950
 OPT| Pressure tolerance [bar]                                    100.0000000000
 OPT| Pressure is converged                                                   NO
 OPT| **************************************************************************
 OPT| Estimated peak process memory after this step [MiB]                    168

 --------------------------
 OPTIMIZATION STEP:     12
 --------------------------

 CELL| Volume [angstrom^3]:                                           248.302295
 CELL| Vector a [angstrom]:       5.086     0.000     0.000   |a| =     5.085707
 CELL| Vector b [angstrom]:       1.577     6.797     0.000   |b| =     6.977078
 CELL| Vector c [angstrom]:      -1.985    -1.057     7.184   |c| =     7.527369
 CELL| Angle (b,c), alpha [degree]:                                   101.329002
 CELL| Angle (a,c), beta  [degree]:                                   105.287478
 CELL| Angle (a,b), gamma [degree]:                                    76.937320
 CELL| Numerically orthorhombic:                                              NO
 CELL| Periodicity                                                           XYZ

 Extrapolation method: ASPC

 Number of electrons:                                                         72
 Number of occupied orbitals:                                                 36
 Number of molecular orbitals:                                                76

 Number of orbital functions:                                                 76
 Number of independent orbital functions:                                     76


 SCF WAVEFUNCTION OPTIMIZATION

  Step     Update method      Time    Convergence         Total energy    Change
  ------------------------------------------------------------------------------
     1 TBLite/Diag 0.40E+00    0.0     0.03501624       -45.5778916984 -4.56E+01
     2 TBLite/Diag 0.40E+00    0.0     0.00164651       -45.5779028021 -1.11E-05
     3 TBLite/Diag 0.40E+00    0.0     0.00023213       -45.5779030040 -2.02E-07
     4 TBLite/Diag 0.40E+00    0.0     0.00014942       -45.5779030233 -1.93E-08
     5 TBLite/Diag 0.40E+00    0.0     0.00008328       -45.5779030482 -2.49E-08
     6 TBLite/Diag 0.40E+00    0.0     0.00001533       -45.5779030497 -1.49E-09
     7 TBLite/Diag 0.40E+00    0.0     0.00000283       -45.5779030497 -1.76E-11
     8 TBLite/Diag 0.40E+00    0.0     0.00000035       -45.5779030497 -4.26E-13
     9 TBLite/Diag 0.40E+00    0.0     0.00000004       -45.5779030497  2.13E-14
[...]
 CELL| Periodicity                                                           XYZ

 Extrapolation method: ASPC

 Number of electrons:                                                         72
 Number of occupied orbitals:                                                 36
 Number of molecular orbitals:                                                76

 Number of orbital functions:                                                 76
 Number of independent orbital functions:                                     76


 SCF WAVEFUNCTION OPTIMIZATION

  Step     Update method      Time    Convergence         Total energy    Change
  ------------------------------------------------------------------------------
     1 TBLite/Diag 0.40E+00    0.0     0.00027622       -45.6236363617 -4.56E+01
     2 TBLite/Diag 0.40E+00    0.0     0.00001542       -45.6236363630 -1.25E-09
     3 TBLite/Diag 0.40E+00    0.0     0.00000692       -45.6236363630 -8.59E-11
     4 TBLite/Diag 0.40E+00    0.0     0.00000315       -45.6236363631 -5.88E-11
     5 TBLite/Diag 0.40E+00    0.0     0.00000044       -45.6236363631 -8.03E-13
     6 TBLite/Diag 0.40E+00    0.0     0.00000017       -45.6236363631 -1.56E-13
     7 TBLite/Diag 0.40E+00    0.0     0.00000003       -45.6236363631  7.11E-15
     8 TBLite/Diag 0.40E+00    0.0     6.0920E-09       -45.6236363631 -1.42E-14
     9 TBLite/Diag 0.40E+00    0.0     1.5991E-09       -45.6236363631  2.13E-14
    10 TBLite/Diag 0.40E+00    0.0     1.2082E-10       -45.6236363631 -1.42E-14

  *** SCF run converged in    10 steps ***


  Core Hamiltonian energy:                                    -46.16618299676701
  Repulsive potential energy:                                   0.40196379427874
  Electrostatic energy:                                         0.18448168918692
  Self-consistent dispersion energy:                            0.00000000000000
  Non-self consistent dispersion energy:                       -0.04389884979567
  Correction for halogen bonding:                               0.00000000000000
  Electronic entropic energy:                                  -0.00000000000000
  Fermi energy:                                                -0.27140455554702

  Total energy:                                               -45.62363636309701
  Total energy (extrapolated to T->0):                        -45.62363636309701

 ENERGY| Total FORCE_EVAL ( QS ) energy [hartree]            -45.623636363097013

 OPT| **************************************************************************
 OPT| Step number                                                            138
 OPT| Optimization method                                                   BFGS
 OPT| Total energy [hartree]                                      -45.6236363631
 OPT| Internal pressure [bar]                                     -60.4133381657
 OPT| Effective energy change [hartree]                            -0.0000006468
 OPT| Predicted energy change [hartree]                            -0.0000004931
 OPT| Scaling factor                                                0.0000000000
 OPT| Step size                                                     0.0017283864
 OPT| Trust radius                                                  0.4724315332
 OPT| Decrease in energy                                                     YES
 OPT| Used time [s]                                                        0.342
 OPT|
 OPT| Maximum step size                                             0.0017283864
 OPT| Convergence limit for maximum step size                       0.0030000000
 OPT| Maximum step size is converged                                         YES
 OPT|
 OPT| RMS step size                                                 0.0004054474
 OPT| Convergence limit for RMS step size                           0.0015000000
 OPT| RMS step size is converged                                             YES
 OPT|
 OPT| Maximum gradient                                              0.0002365336
 OPT| Convergence limit for maximum gradient                        0.0004500000
 OPT| Maximum gradient is converged                                          YES
 OPT|
 OPT| RMS gradient                                                  0.0000751208
 OPT| Convergence limit for RMS gradient                            0.0003000000
 OPT| RMS gradient is converged                                              YES
 OPT|
 OPT| Pressure deviation [bar]                                    -60.4133381657
 OPT| Pressure tolerance [bar]                                    100.0000000000
 OPT| Pressure is converged                                                  YES
 OPT| **************************************************************************
 OPT| Estimated peak process memory after this step [MiB]                    169

 *******************************************************************************
 ***                    GEOMETRY OPTIMIZATION COMPLETED                      ***
 *******************************************************************************

 write_final_structure: Optimization converged, writing XYZ file gladly:
  ethylcarbamate_GFN1_gamma_cell_opt-FINAL-1_138.xyz

 write_final_structure: Optimization converged, writing CIF file gladly:
  ethylcarbamate_GFN1_gamma_cell_opt-FINAL-1_138.cif

 write_final_structure: Done!

                    Reevaluating energy at the minimum

 CELL| Volume [angstrom^3]:                                           198.797348
 CELL| Vector a [angstrom]:       3.950     0.000     0.000   |a| =     3.950396
 CELL| Vector b [angstrom]:       1.043     6.919     0.000   |b| =     6.997693
 CELL| Vector c [angstrom]:      -1.024    -1.302     7.273   |c| =     7.458853
 CELL| Angle (b,c), alpha [degree]:                                   101.128457
 CELL| Angle (a,c), beta  [degree]:                                    97.888428
 CELL| Angle (a,b), gamma [degree]:                                    81.424939
 CELL| Numerically orthorhombic:                                              NO
 CELL| Periodicity                                                           XYZ

 Extrapolation method: ASPC

 Number of electrons:                                                         72
 Number of occupied orbitals:                                                 36
 Number of molecular orbitals:                                                76

 Number of orbital functions:                                                 76
 Number of independent orbital functions:                                     76


 SCF WAVEFUNCTION OPTIMIZATION

  Step     Update method      Time    Convergence         Total energy    Change
  ------------------------------------------------------------------------------
     1 TBLite/Diag 0.40E+00    0.0     8.1094E-11       -45.6236363631 -4.56E+01

  *** SCF run converged in     1 steps ***


  Core Hamiltonian energy:                                    -46.16618299676199
  Repulsive potential energy:                                   0.40196379427874
  Electrostatic energy:                                         0.18448168918190
  Self-consistent dispersion energy:                            0.00000000000000
  Non-self consistent dispersion energy:                       -0.04389884979567
  Correction for halogen bonding:                               0.00000000000000
  Electronic entropic energy:                                  -0.00000000000000
  Fermi energy:                                                -0.27140455557068

  Total energy:                                               -45.62363636309701
  Total energy (extrapolated to T->0):                        -45.62363636309701

 ENERGY| Total FORCE_EVAL ( QS ) energy [hartree]            -45.623636363097013

 -------------------------------------------------------------------------------
 -                                                                             -
 -                                DBCSR STATISTICS                             -
 -                                                                             -
 -------------------------------------------------------------------------------
 COUNTER                                    TOTAL       BLAS       SMM       ACC
 flops     2 x    12 x     2             12888960       0.0%    100.0%      0.0%     
 flops     4 x    12 x     2             22095360       0.0%    100.0%      0.0%     
 flops     2 x    12 x     4             22095360       0.0%    100.0%      0.0%     
 flops     4 x    12 x     4             37877760       0.0%    100.0%      0.0%     
 flops     2 x    32 x     2             68741120       0.0%    100.0%      0.0%     
 flops     4 x    32 x     2            117841920       0.0%    100.0%      0.0%     
 flops     2 x    32 x     4            117841920       0.0%    100.0%      0.0%     
 flops     2 x     2 x    76            118742400       0.0%    100.0%      0.0%     
 flops     4 x     2 x    76            189987840       0.0%    100.0%      0.0%     
 flops     2 x     4 x    76            189987840       0.0%    100.0%      0.0%     
 flops     4 x    32 x     4            202014720       0.0%    100.0%      0.0%     
 flops     4 x     4 x    76            352834560       0.0%    100.0%      0.0%     
 flops inhomo. stacks                           0       0.0%      0.0%      0.0%
 flops total                         1.452950E+09       0.0%    100.0%      0.0%
 flops max/rank                      1.452950E+09       0.0%    100.0%      0.0%
 matmuls inhomo. stacks                         0       0.0%      0.0%      0.0%
 matmuls total                            2042040       0.0%    100.0%      0.0%
 number of processed stacks                 12920       0.0%    100.0%      0.0%
 average stack size                                     0.0     158.1       0.0
 marketing flops                     1.374919E+09
 -------------------------------------------------------------------------------
 # multiplications                           2545
 max memory usage/rank              13.672530E+09
 # max total images/rank                        1
 # max 3D layers                                1
 # MPI messages exchanged                       0
 -------------------------------------------------------------------------------
 -                                                                             -
 -                      DBCSR MESSAGE PASSING PERFORMANCE                      -
 -                                                                             -
 -------------------------------------------------------------------------------
 ROUTINE             CALLS      AVE VOLUME [Bytes]
 MP_Bcast               13                     12.
 MP_Allreduce        11398                      8.
 MP_Alltoall         82113                  31346.
 MP_ISend            10180                   3170.
 MP_IRecv            10180                   3170.
 -------------------------------------------------------------------------------

 -------------------------------------------------------------------------------
 -                                                                             -
 -                          OFFLOAD MEMPOOL STATISTICS                         -
 -                                                                             -
 -------------------------------------------------------------------------------
 Memory consumption                Number of allocations  Used [MiB]  Size [MiB]
 Device                                                2           0           0
 Host                                                  2           0           0
 -------------------------------------------------------------------------------

 MEMORY| Estimated peak process memory [MiB]                                 169

 -------------------------------------------------------------------------------
 -                                                                             -
 -                         MESSAGE PASSING PERFORMANCE                         -
 -                                                                             -
 -------------------------------------------------------------------------------

 ROUTINE             CALLS      AVE VOLUME [Bytes]
 MP_Group              139
 MP_Bcast             3718                    309.
 MP_Allreduce        31922                    166.
 MP_Sync              1998
 MP_comm_split        1859
 -------------------------------------------------------------------------------


 -------------------------------------------------------------------------------
 -                                                                             -
 -                           R E F E R E N C E S                               -
 -                                                                             -
 -------------------------------------------------------------------------------
 
 CP2K version 2026.1 (Development Version), the CP2K developers group (2026).
 CP2K is freely available from https://www.cp2k.org/ .
 
 M. Iannuzzi, J. Wilhelm, F. Stein, A. Bussy, H. Elgabarty, D. Golze, A. Hehn, 
 M. Graml, S. Marek, B. Sertcan Gökmen, C. Schran, H. Forbert, R. Z. 
 Khaliullin, A. Kozhevnikov, M. Taillefumier, R. Meli, V. V. Rybkin, M. Brehm, 
 R. Schade, O. Schütt, J. V. Pototschnig, H. Mirhosseini, A. Knüpfer, D. Marx, 
 M. Krack, J. Hutter, T. D. Kühne.
 J. Phys. Chem. B 130, 1237-1310 (2026).
 The CP2K Program Package Made Simple.
 https://doi.org/10.1021/acs.jpcb.5c05851

 A. Katbashev, M. Stahn, T. Rose, V. Alizadeh, M. Friede, C. Plett, P. 
 Steinbach, S. Ehlert.
 J. Phys. Chem. A 129, 2667-2682 (2025).
 Overview on Building Blocks and Applications of Efficient and Robust Extended 
 Tight Binding.
 https://doi.org/10.1021/acs.jpca.4c08263

 T. D. Kühne, M. Iannuzzi, M. Del Ben, V. V. Rybkin, P. Seewald, F. Stein, T. 
 Laino, R. Z. Khaliullin, O. Schütt, F. Schiffmann, D. Golze, J. Wilhelm, S. 
 Chulkov, M. H. Bani-Hashemian, V. Weber, U. Borstnik, M. Taillefumier, A. S. 
 Jakobovits, A. Lazzaro, H. Pabst, T. Müller, R. Schade, M. Guidon, S. 
 Andermatt, N. Holmberg, G. K. Schenter, A. Hehn, A. Bussy, F. Belleflamme, G. 
 Tabacchi, A. Glöß, M. Lass, I. Bethune, C. J. Mundy, C. Plessl, M. Watkins, 
 J. VandeVondele, M. Krack, J. Hutter.
 J. Chem. Phys. 152, 194103 (2020).
 CP2K: An electronic structure and molecular dynamics software package - 
 Quickstep: Efficient and accurate electronic structure calculations.
 https://doi.org/10.1063/5.0007045

 P. Pracht, E. Caldeweyher, S. Ehlert, S. Grimme.
 ChemRxiv, (2019).
 A Robust Non-Self-Consistent Tight-Binding Quantum Chemistry Method for large 
 Molecules.
 https://doi.org/10.26434/chemrxiv.8326202.v1

 S. Grimme, C. Bannwarth, P. Shushkov.
 J. Chem. Theory Comput. 13, 1989 (2017).
 A Robust and Accurate Tight-Binding Quantum Chemical Method for Structures, 
 Vibrational Frequencies, and Noncovalent Interactions of Large Molecular 
 Systems Parametrized for All spd-Block Elements (Z = 1-86).
 https://doi.org/10.1021/acs.jctc.7b00118

 O. Schuett, P. Messmer, J. Hutter, J. VandeVondele.
 Electronic Structure Calculations on Graphics Processing Units, 173-190 (2016).
 GPU-Accelerated Sparse Matrix-Matrix Multiplication for Linear Scaling Density 
 Functional Theory.
 https://doi.org/10.1002/9781118670712.ch8

 A. Heinecke, G. Henry, M. Hutchinson, H. Pabst.
 Proceedings of Intl. Supercomputing Conference, 981-991 (2016).
 LIBXSMM: Accelerating Small Matrix Multiplications by Runtime Code Generation.
 https://doi.org/10.1109/SC.2016.83

 U. Borstnik, J. VandeVondele, V. Weber, J. Hutter.
 Parallel Comput. 40, 47-58 (2014).
 Sparse matrix multiplication: The distributed block-compressed sparse row 
 library.
 https://doi.org/10.1016/j.parco.2014.03.012

 T. D. Kühne, M. Krack, F. R. Mohamed, M. Parrinello.
 Phys. Rev. Lett. 98, 066401 (2007).
 Efficient and accurate Car-Parrinello-like approach to Born-Oppenheimer 
 molecular dynamics.
 https://doi.org/10.1103/PhysRevLett.98.066401

 M. Frigo, S. G. Johnson.
 Proc. IEEE 93, 216-231 (2005).
 The design and implementation of FFTW3.
 https://doi.org/10.1109/JPROC.2004.840301

 J. Kolafa.
 J. Comput. Chem. 25, 335-342 (2004).
 Time-reversible always stable predictor-corrector method for molecular dynamics 
 of polarizable molecules.
 https://doi.org/10.1002/jcc.10385

 N. D. Mermin.
 Phys. Rev. 137, A1441-A1443 (1965).
 Thermal Properties of the Inhomogeneous Electron Gas.
 https://doi.org/10.1103/PhysRev.137.A1441


 -------------------------------------------------------------------------------
 -                                                                             -
 -                                T I M I N G                                  -
 -                                                                             -
 -------------------------------------------------------------------------------
 SUBROUTINE                       CALLS  ASD         SELF TIME        TOTAL TIME
                                MAXIMUM       AVERAGE  MAXIMUM  AVERAGE  MAXIMUM
 CP2K                                 1  1.0    0.003    0.003   34.539   34.539
 cp_cell_opt                          1  2.0    0.000    0.000   34.531   34.531
 geoopt_bfgs                          1  3.0    0.016    0.016   34.531   34.531
 cp_eval_at                         140  4.0    0.016    0.016   34.304   34.304
 qs_forces                          139  5.0    0.009    0.009   34.204   34.204
 build_tblite_matrices              279  7.0   15.789   15.789   15.973   15.973
 rebuild_ks_matrix                 1721  9.8    0.002    0.002   13.277   13.277
 build_tblite_ks_matrix            1721 10.8   13.260   13.260   13.275   13.275
 qs_ks_update_qs_env_forces         139  6.0    0.000    0.000   13.017   13.017
 qs_energies                        140  6.0    0.004    0.004   11.660   11.660
 qs_energies_init_hamiltonians      140  7.0    0.001    0.001    6.721    6.721
 scf_env_do_scf                     140  7.0    0.002    0.002    3.986    3.986
 scf_env_do_scf_inner_loop         1582  8.0    0.137    0.137    3.975    3.975
 qs_scf_new_mos                    1582  9.0    0.008    0.008    3.336    3.336
 cp_dbcsr_plus_fm_fm_t             1860 10.8    0.011    0.011    1.311    1.311
 calculate_dm_sparse               1721 10.0    0.007    0.007    1.228    1.228
 dbcsr_multiply_generic            2545 12.0    0.051    0.051    1.141    1.141
 eigensolver                       1582 10.0    0.026    0.026    1.084    1.084
 cp_fm_syevd                       1859 10.6    0.005    0.005    1.016    1.016
 dbcsr_complete_redistribute       8254 12.2    0.679    0.679    0.958    0.958
 copy_dbcsr_to_fm                  3849 10.6    0.022    0.022    0.943    0.943
 cp_fm_syevd_base                  1859 11.6    0.895    0.895    0.895    0.895
 init_scf_run                       140  7.0    0.001    0.001    0.785    0.785
 scf_env_initial_rho_setup          140  8.0    0.001    0.001    0.731    0.731
 wfi_extrapolate                    140  9.0    0.005    0.005    0.729    0.729
 -------------------------------------------------------------------------------

 The number of warnings for this run is : 0
 
 -------------------------------------------------------------------------------
  **** **** ******  **  PROGRAM ENDED AT                 2026-05-23 22:47:26.428
 ***** ** ***  *** **   PROGRAM RAN ON                                spark-c86c
 **    ****   ******    PROGRAM RAN BY                                  kuehne88
 ***** **    ** ** **   PROGRAM PROCESS ID                               2265058
  **** **  *******  **  PROGRAM STOPPED IN /home/kuehne88/periodic-gfn2-benchmar
                                           ks/X23b/runs/cellopt_gamma/GFN1/ethyl
                                           carbamate_GFN1_gamma_cellopt
