 DBCSR| CPU Multiplication driver                                           XSMM (U)
 DBCSR| Multrec recursion limit                                              512 (U)
 DBCSR| Multiplication stack size                                           1000 (D)
 DBCSR| Maximum elements for images                                    UNLIMITED (U)
 DBCSR| Multiplicative factor virtual images                                   1 (U)
 DBCSR| Use multiplication densification                                       T (D)
 DBCSR| Multiplication size stacks                                             3 (U)
 DBCSR| Use memory pool for CPU allocation                                     F (U)
 DBCSR| Number of 3D layers                                               SINGLE (U)
 DBCSR| Use MPI memory allocation                                              F (U)
 DBCSR| Use RMA algorithm                                                      F (U)
 DBCSR| Use Communication thread                                               T (U)
 DBCSR| Communication thread load                                             87 (D)
 DBCSR| MPI: My process id                                                     0
 DBCSR| MPI: Number of processes                                               1
 DBCSR| OMP: Current number of threads                                         1
 DBCSR| OMP: Max number of threads                                             1
 DBCSR| Split modifier for TAS multiplication algorithm                  1.0E+00 (U)


  **** **** ******  **  PROGRAM STARTED AT               2026-05-23 22:46:19.921
 ***** ** ***  *** **   PROGRAM STARTED ON                            spark-c86c
 **    ****   ******    PROGRAM STARTED BY                              kuehne88
 ***** **    ** ** **   PROGRAM PROCESS ID                               2226878
  **** **  *******  **  PROGRAM STARTED IN /home/kuehne88/periodic-gfn2-benchmar
                                           ks/X23b/runs/molecule_geoopt/GFN2/cya
                                           namide_GFN2_mol_geoopt

 CP2K| version string:                 CP2K version 2026.1 (Development Version)
 CP2K| source code revision number:                                   0622d442e4
 CP2K| cp2kflags: omp fftw3 libxc parallel scalapack mpi_f08 xsmm spglib libdftd
 CP2K|            4 dftd4_v3 mctc-lib tblite
 CP2K| is freely available from                            https://www.cp2k.org/
 CP2K| Program compiled at                                   2026-05-23 22:05:08
 CP2K| Program compiled on                                            spark-c86c
 CP2K| Program compiled for                                              aarch64
 CP2K| Data directory path    /home/kuehne88/cp2k-master-tblite-20260523/install
 CP2K| Input file name                             cyanamide_GFN2_mol_geoopt.inp

 GLOBAL| Force Environment number                                              1
 GLOBAL| Basis set file name                                           BASIS_SET
 GLOBAL| Potential file name                                           POTENTIAL
 GLOBAL| MM Potential file name                                     MM_POTENTIAL
 GLOBAL| Coordinate file name                                      __STD_INPUT__
 GLOBAL| Method name                                                        CP2K
 GLOBAL| Project name                                  cyanamide_GFN2_mol_geoopt
 GLOBAL| Run type                                                        GEO_OPT
 GLOBAL| FFT library                                                       FFTW3
 GLOBAL| Diagonalization library                                       ScaLAPACK
 GLOBAL| Cholesky decomposition library                                ScaLAPACK
 GLOBAL| DGEMM library                                                      BLAS
 GLOBAL| Direct generalized diagonalization requested                          F
 GLOBAL| Orthonormality check for eigenvectors                          DISABLED
 GLOBAL| Matrix multiplication library                                 ScaLAPACK
 GLOBAL| All-to-all communication in single precision                          F
 GLOBAL| FFTs using library dependent lengths                                  F
 GLOBAL| Grid backend                                                       AUTO
 GLOBAL| Global print level                                                  LOW
 GLOBAL| MPI I/O enabled                                                       T
 GLOBAL| Total number of message passing processes                             1
 GLOBAL| Number of distributed systems (nodes)                                 1
 GLOBAL| Number of threads for this process                                    1
 GLOBAL| This output is from process                                           0
 GLOBAL| OpenMP stack size per thread (OMP_STACKSIZE)                    default
 GLOBAL| CPU model name                                                  UNKNOWN
 GLOBAL| CPUID                                                              2200
 GLOBAL| Compiled for CPUID                                                 2000

 *** HINT in environment.F:970 :: The compiler target flags (arm_arch64)   ***
 *** used to build this binary cannot exploit all extensions of this CPU   ***
 *** model (arm_sve256). Consider compiler target flags as part of FCFLAGS ***
 *** and CFLAGS (ARCH file).                                               ***


 MEMORY| system memory details [Kb]
 MEMORY|                        rank 0           min           max       average
 MEMORY| MemTotal            125508532     125508532     125508532     125508532
 MEMORY| MemFree             106018660     106018660     106018660     106018660
 MEMORY| Buffers                866120        866120        866120        866120
 MEMORY| Cached               13217076      13217076      13217076      13217076
 MEMORY| Slab                  1564676       1564676       1564676       1564676
 MEMORY| SReclaimable           888664        888664        888664        888664
 MEMORY| MemLikelyFree       120990520     120990520     120990520     120990520


 GENERATE|  Preliminary Number of Bonds generated:                             0
 GENERATE|  Achieved consistency in connectivity generation.


                  #####   #####        #     #   #     #       #          
                 #     # #     #      #    ##### #     #   # #####  ####  
                 #     # #           #       #   ###   #       #   #    # 
                 #     #  #####     #        #   #  #  #   #   #   ###### 
                 #   # #       #   #         #   #   # #   #   #   #      
                 #    #  #     #  #          #   #  #  # # #   #    #   # 
                  #### #  #####  #           #   ###   ##  #   #     ###  

                                   GFN2-xTB  
                                 Version 0.0                       
                            Johann V. Pototschnig                  



 TOTAL NUMBERS AND MAXIMUM NUMBERS

  Total number of            - Atomic kinds:                                   3
                             - Atoms:                                          5
                             - Shell sets:                                     8
                             - Shells:                                         8
                             - Primitive Cartesian functions:                 30
                             - Cartesian basis functions:                     14
                             - Spherical basis functions:                     14

  Maximum angular momentum of the orbital basis functions:                     1


 SCF PARAMETERS         Density guess:                                     MOPAC
                        --------------------------------------------------------
                        max_scf:                                             300
                        max_scf_history:                                       0
                        max_diis:                                              4
                        --------------------------------------------------------
                        eps_scf:                                        1.00E-09
                        eps_scf_history:                                0.00E+00
                        eps_diis:                                       1.00E-01
                        eps_eigval:                                     1.00E-05
                        --------------------------------------------------------
                        level_shift [a.u.]:                             0.000000
                        added MOs                                         6    0
                        --------------------------------------------------------
                        Mixing method:                           DIRECT_P_MIXING
                        --------------------------------------------------------
                        Smear method:                                FERMI_DIRAC
                        Electronic temperature [K]:                        300.0
                        Electronic temperature [a.u.]:                  9.50E-04
                        Accuracy threshold:                             1.00E-06
                        --------------------------------------------------------
                        No outer SCF

 BFGS| Use rational function optimization for step estimation:                NO
 BFGS| Use model Hessian for initial guess:                                  YES
 BFGS| Restart Hessian:                                                       NO
 BFGS| Trust radius:                                                       0.472

 *******************************************************************************
 ***                     STARTING GEOMETRY OPTIMIZATION                      ***
 ***                                   BFGS                                  ***
 *******************************************************************************

 Extrapolation method: initial_guess

 Number of electrons:                                                         16
 Number of occupied orbitals:                                                  8
 Number of molecular orbitals:                                                14

 Number of orbital functions:                                                 14
 Number of independent orbital functions:                                     14


 SCF WAVEFUNCTION OPTIMIZATION

  Step     Update method      Time    Convergence         Total energy    Change
  ------------------------------------------------------------------------------
     1 TBLite/Diag 0.40E+00    0.0     1.02636394        -8.7995811181 -8.80E+00
     2 TBLite/Diag 0.40E+00    0.0     0.56658353        -8.8662789785 -6.67E-02
     3 TBLite/Diag 0.40E+00    0.0     0.42962881        -8.9077807340 -4.15E-02
     4 TBLite/Diag 0.40E+00    0.0     0.21340872        -8.9540170686 -4.62E-02
     5 TBLite/Diag 0.40E+00    0.0     0.07501761        -8.9519938117  2.02E-03
     6 TBLite/Diag 0.40E+00    0.0     0.05120768        -8.9552608118 -3.27E-03
     7 TBLite/Diag 0.40E+00    0.0     0.01225639        -8.9552822783 -2.15E-05
     8 TBLite/Diag 0.40E+00    0.0     0.00554934        -8.9553271459 -4.49E-05
     9 TBLite/Diag 0.40E+00    0.0     0.00015740        -8.9553271634 -1.75E-08
    10 TBLite/Diag 0.40E+00    0.0     0.00003767        -8.9553271662 -2.81E-09
    11 TBLite/Diag 0.40E+00    0.0     0.00001883        -8.9553271667 -4.26E-10
    12 TBLite/Diag 0.40E+00    0.0     0.00000169        -8.9553271667 -4.60E-13
    13 TBLite/Diag 0.40E+00    0.0     0.00000145        -8.9553271667 -2.24E-12
    14 TBLite/Diag 0.40E+00    0.0     0.00000012        -8.9553271667 -1.60E-14
    15 TBLite/Diag 0.40E+00    0.0     7.7730E-09        -8.9553271667 -1.78E-15
    16 TBLite/Diag 0.40E+00    0.0     4.5835E-09        -8.9553271667  8.88E-15
    17 TBLite/Diag 0.40E+00    0.0     4.5266E-10        -8.9553271667 -1.78E-14

  *** SCF run converged in    17 steps ***


  Core Hamiltonian energy:                                     -9.14299116118738
  Repulsive potential energy:                                   0.14955783032638
  Electrostatic energy:                                         0.03948760154220
  Self-consistent dispersion energy:                           -0.00138144808799
  Non-self consistent dispersion energy:                        0.00000001074267
  Correction for halogen bonding:                               0.00000000000000
  Electronic entropic energy:                                  -0.00000000000000
  Fermi energy:                                                -0.23917752885496

  Total energy:                                                -8.95532716666411
  Total energy (extrapolated to T->0):                         -8.95532716666411

 ENERGY| Total FORCE_EVAL ( QS ) energy [hartree]             -8.955327166664114

 OPT| **************************************************************************
 OPT| Step number                                                              0
 OPT| Optimization method                                                   BFGS
 OPT| Total energy [hartree]                                       -8.9553271667
 OPT| Used time [s]                                                        0.012
 OPT| **************************************************************************
 OPT| Estimated peak process memory [MiB]                                    162

 --------------------------
 OPTIMIZATION STEP:      1
 --------------------------

 Extrapolation method: ASPC

 Number of electrons:                                                         16
 Number of occupied orbitals:                                                  8
 Number of molecular orbitals:                                                14

 Number of orbital functions:                                                 14
 Number of independent orbital functions:                                     14


 SCF WAVEFUNCTION OPTIMIZATION

  Step     Update method      Time    Convergence         Total energy    Change
  ------------------------------------------------------------------------------
     1 TBLite/Diag 0.40E+00    0.0     0.04860007        -8.9567578805 -8.96E+00
     2 TBLite/Diag 0.40E+00    0.0     0.01546703        -8.9567670233 -9.14E-06
     3 TBLite/Diag 0.40E+00    0.0     0.01003340        -8.9568296576 -6.26E-05
     4 TBLite/Diag 0.40E+00    0.0     0.00332212        -8.9568402720 -1.06E-05
     5 TBLite/Diag 0.40E+00    0.0     0.00027361        -8.9568403559 -8.39E-08
     6 TBLite/Diag 0.40E+00    0.0     0.00002214        -8.9568403563 -3.69E-10
     7 TBLite/Diag 0.40E+00    0.0     0.00000456        -8.9568403563 -9.99E-12
     8 TBLite/Diag 0.40E+00    0.0     0.00000094        -8.9568403563 -1.14E-12
     9 TBLite/Diag 0.40E+00    0.0     0.00000041        -8.9568403563 -1.74E-13
    10 TBLite/Diag 0.40E+00    0.0     0.00000002        -8.9568403563  3.55E-15
    11 TBLite/Diag 0.40E+00    0.0     1.3335E-09        -8.9568403563  0.00E+00
    12 TBLite/Diag 0.40E+00    0.0     5.9663E-10        -8.9568403563 -1.78E-15

  *** SCF run converged in    12 steps ***


  Core Hamiltonian energy:                                     -9.16256165470248
  Repulsive potential energy:                                   0.16792957903825
  Electrostatic energy:                                         0.03917687593900
  Self-consistent dispersion energy:                           -0.00138516778300
  Non-self consistent dispersion energy:                        0.00000001120873
  Correction for halogen bonding:                               0.00000000000000
  Electronic entropic energy:                                  -0.00000000000000
  Fermi energy:                                                -0.22795623654651

  Total energy:                                                -8.95684035629951
  Total energy (extrapolated to T->0):                         -8.95684035629951

 ENERGY| Total FORCE_EVAL ( QS ) energy [hartree]             -8.956840356299509

 OPT| **************************************************************************
 OPT| Step number                                                              1
 OPT| Optimization method                                                   BFGS
 OPT| Total energy [hartree]                                       -8.9568403563
 OPT| Effective energy change [hartree]                            -0.0015131896
 OPT| Predicted energy change [hartree]                            -0.0014653134
 OPT| Scaling factor                                                0.0000000000
 OPT| Step size                                                     0.0558208822
 OPT| Trust radius                                                  0.4724315332
 OPT| Decrease in energy                                                     YES
 OPT| Used time [s]                                                        0.009
 OPT|
 OPT| Maximum step size                                             0.0558208822
 OPT| Convergence limit for maximum step size                       0.0030000000
 OPT| Maximum step size is converged                                          NO
 OPT|
 OPT| RMS step size                                                 0.0187232431
 OPT| Convergence limit for RMS step size                           0.0015000000
 OPT| RMS step size is converged                                              NO
 OPT|
 OPT| Maximum gradient                                              0.0106269210
 OPT| Convergence limit for maximum gradient                        0.0004500000
 OPT| Maximum gradient is converged                                           NO
 OPT|
 OPT| RMS gradient                                                  0.0033741575
 OPT| Convergence limit for RMS gradient                            0.0003000000
 OPT| RMS gradient is converged                                               NO
 OPT| **************************************************************************
 OPT| Estimated peak process memory after this step [MiB]                    162

 --------------------------
 OPTIMIZATION STEP:      2
 --------------------------

 Extrapolation method: ASPC

 Number of electrons:                                                         16
 Number of occupied orbitals:                                                  8
 Number of molecular orbitals:                                                14

 Number of orbital functions:                                                 14
 Number of independent orbital functions:                                     14


 SCF WAVEFUNCTION OPTIMIZATION

  Step     Update method      Time    Convergence         Total energy    Change
  ------------------------------------------------------------------------------
     1 TBLite/Diag 0.40E+00    0.0     0.01328456        -8.9568876804 -8.96E+00
     2 TBLite/Diag 0.40E+00    0.0     0.00581748        -8.9568923035 -4.62E-06
     3 TBLite/Diag 0.40E+00    0.0     0.00253829        -8.9569002355 -7.93E-06
     4 TBLite/Diag 0.40E+00    0.0     0.00050045        -8.9569001728  6.27E-08
     5 TBLite/Diag 0.40E+00    0.0     0.00028614        -8.9569002928 -1.20E-07
     6 TBLite/Diag 0.40E+00    0.0     0.00005831        -8.9569002958 -3.05E-09
     7 TBLite/Diag 0.40E+00    0.0     0.00000797        -8.9569002959 -4.71E-11
     8 TBLite/Diag 0.40E+00    0.0     0.00000022        -8.9569002959 -7.28E-14
     9 TBLite/Diag 0.40E+00    0.0     0.00000033        -8.9569002959 -1.26E-13
    10 TBLite/Diag 0.40E+00    0.0     0.00000002        -8.9569002959  0.00E+00
    11 TBLite/Diag 0.40E+00    0.0     4.3996E-10        -8.9569002959 -7.11E-15

  *** SCF run converged in    11 steps ***


  Core Hamiltonian energy:                                     -9.16328097943732
  Repulsive potential energy:                                   0.16851687404182
  Electrostatic energy:                                         0.03924900682671
  Self-consistent dispersion energy:                           -0.00138520836595
  Non-self consistent dispersion energy:                        0.00000001105373
  Correction for halogen bonding:                               0.00000000000000
  Electronic entropic energy:                                  -0.00000000000000
  Fermi energy:                                                -0.22774424840342

  Total energy:                                                -8.95690029588101
  Total energy (extrapolated to T->0):                         -8.95690029588101

 ENERGY| Total FORCE_EVAL ( QS ) energy [hartree]             -8.956900295881010

 OPT| **************************************************************************
 OPT| Step number                                                              2
 OPT| Optimization method                                                   BFGS
 OPT| Total energy [hartree]                                       -8.9569002959
 OPT| Effective energy change [hartree]                            -0.0000599396
 OPT| Predicted energy change [hartree]                            -0.0000441534
 OPT| Scaling factor                                                0.0000000000
 OPT| Step size                                                     0.0080147272
 OPT| Trust radius                                                  0.4724315332
 OPT| Decrease in energy                                                     YES
 OPT| Used time [s]                                                        0.009
 OPT|
 OPT| Maximum step size                                             0.0080147272
 OPT| Convergence limit for maximum step size                       0.0030000000
 OPT| Maximum step size is converged                                          NO
 OPT|
 OPT| RMS step size                                                 0.0031946994
 OPT| Convergence limit for RMS step size                           0.0015000000
 OPT| RMS step size is converged                                              NO
 OPT|
 OPT| Maximum gradient                                              0.0037451595
 OPT| Convergence limit for maximum gradient                        0.0004500000
 OPT| Maximum gradient is converged                                           NO
 OPT|
 OPT| RMS gradient                                                  0.0012200795
 OPT| Convergence limit for RMS gradient                            0.0003000000
 OPT| RMS gradient is converged                                               NO
 OPT| **************************************************************************
 OPT| Estimated peak process memory after this step [MiB]                    163

 --------------------------
 OPTIMIZATION STEP:      3
 --------------------------

 Extrapolation method: ASPC

 Number of electrons:                                                         16
 Number of occupied orbitals:                                                  8
 Number of molecular orbitals:                                                14

 Number of orbital functions:                                                 14
 Number of independent orbital functions:                                     14


 SCF WAVEFUNCTION OPTIMIZATION

  Step     Update method      Time    Convergence         Total energy    Change
  ------------------------------------------------------------------------------
     1 TBLite/Diag 0.40E+00    0.0     0.01178501        -8.9569090221 -8.96E+00
     2 TBLite/Diag 0.40E+00    0.0     0.00365576        -8.9569109195 -1.90E-06
     3 TBLite/Diag 0.40E+00    0.0     0.00179325        -8.9569138284 -2.91E-06
     4 TBLite/Diag 0.40E+00    0.0     0.00055448        -8.9569139152 -8.68E-08
     5 TBLite/Diag 0.40E+00    0.0     0.00017658        -8.9569139563 -4.10E-08
     6 TBLite/Diag 0.40E+00    0.0     0.00003331        -8.9569139571 -7.91E-10
     7 TBLite/Diag 0.40E+00    0.0     0.00000765        -8.9569139571 -4.40E-11
     8 TBLite/Diag 0.40E+00    0.0     0.00000023        -8.9569139571 -5.33E-14
     9 TBLite/Diag 0.40E+00    0.0     0.00000014        -8.9569139571 -1.42E-14
    10 TBLite/Diag 0.40E+00    0.0     0.00000001        -8.9569139571  0.00E+00
    11 TBLite/Diag 0.40E+00    0.0     4.0086E-10        -8.9569139571 -1.78E-15

  *** SCF run converged in    11 steps ***


  Core Hamiltonian energy:                                     -9.16349107660932
  Repulsive potential energy:                                   0.16867078730506
  Electrostatic energy:                                         0.03929145715841
  Self-consistent dispersion energy:                           -0.00138513592549
  Non-self consistent dispersion energy:                        0.00000001095477
  Correction for halogen bonding:                               0.00000000000000
  Electronic entropic energy:                                  -0.00000000000000
  Fermi energy:                                                -0.22769026448294

  Total energy:                                                -8.95691395711658
  Total energy (extrapolated to T->0):                         -8.95691395711658

 ENERGY| Total FORCE_EVAL ( QS ) energy [hartree]             -8.956913957116580

 OPT| **************************************************************************
 OPT| Step number                                                              3
 OPT| Optimization method                                                   BFGS
 OPT| Total energy [hartree]                                       -8.9569139571
 OPT| Effective energy change [hartree]                            -0.0000136612
 OPT| Predicted energy change [hartree]                            -0.0000117425
 OPT| Scaling factor                                                0.0000000000
 OPT| Step size                                                     0.0087305880
 OPT| Trust radius                                                  0.4724315332
 OPT| Decrease in energy                                                     YES
 OPT| Used time [s]                                                        0.009
 OPT|
 OPT| Maximum step size                                             0.0087305880
 OPT| Convergence limit for maximum step size                       0.0030000000
 OPT| Maximum step size is converged                                          NO
 OPT|
 OPT| RMS step size                                                 0.0030587117
 OPT| Convergence limit for RMS step size                           0.0015000000
 OPT| RMS step size is converged                                              NO
 OPT|
 OPT| Maximum gradient                                              0.0005573576
 OPT| Convergence limit for maximum gradient                        0.0004500000
 OPT| Maximum gradient is converged                                           NO
 OPT|
 OPT| RMS gradient                                                  0.0002069994
 OPT| Convergence limit for RMS gradient                            0.0003000000
 OPT| RMS gradient is converged                                              YES
 OPT| **************************************************************************
 OPT| Estimated peak process memory after this step [MiB]                    163

 --------------------------
 OPTIMIZATION STEP:      4
 --------------------------

 Extrapolation method: ASPC

 Number of electrons:                                                         16
 Number of occupied orbitals:                                                  8
 Number of molecular orbitals:                                                14

 Number of orbital functions:                                                 14
 Number of independent orbital functions:                                     14


 SCF WAVEFUNCTION OPTIMIZATION

  Step     Update method      Time    Convergence         Total energy    Change
  ------------------------------------------------------------------------------
     1 TBLite/Diag 0.40E+00    0.0     0.00658384        -8.9569167123 -8.96E+00
     2 TBLite/Diag 0.40E+00    0.0     0.00082594        -8.9569167968 -8.45E-08
     3 TBLite/Diag 0.40E+00    0.0     0.00078728        -8.9569167135  8.32E-08
     4 TBLite/Diag 0.40E+00    0.0     0.00047183        -8.9569169588 -2.45E-07
     5 TBLite/Diag 0.40E+00    0.0     0.00002589        -8.9569169596 -7.91E-10
     6 TBLite/Diag 0.40E+00    0.0     0.00000693        -8.9569169596 -4.38E-11
     7 TBLite/Diag 0.40E+00    0.0     0.00000393        -8.9569169597 -1.29E-11
     8 TBLite/Diag 0.40E+00    0.0     0.00000010        -8.9569169597 -1.42E-14
     9 TBLite/Diag 0.40E+00    0.0     7.8203E-09        -8.9569169597 -1.78E-15
    10 TBLite/Diag 0.40E+00    0.0     3.2807E-09        -8.9569169597  0.00E+00
    11 TBLite/Diag 0.40E+00    0.0     1.7948E-10        -8.9569169597  3.55E-15

  *** SCF run converged in    11 steps ***


  Core Hamiltonian energy:                                     -9.16356476455956
  Repulsive potential energy:                                   0.16874284182200
  Electrostatic energy:                                         0.03929001840833
  Self-consistent dispersion energy:                           -0.00138506624664
  Non-self consistent dispersion energy:                        0.00000001092035
  Correction for halogen bonding:                               0.00000000000000
  Electronic entropic energy:                                  -0.00000000000000
  Fermi energy:                                                -0.22764327114644

  Total energy:                                                -8.95691695965551
  Total energy (extrapolated to T->0):                         -8.95691695965551

 ENERGY| Total FORCE_EVAL ( QS ) energy [hartree]             -8.956916959655507

 OPT| **************************************************************************
 OPT| Step number                                                              4
 OPT| Optimization method                                                   BFGS
 OPT| Total energy [hartree]                                       -8.9569169597
 OPT| Effective energy change [hartree]                            -0.0000030025
 OPT| Predicted energy change [hartree]                            -0.0000019820
 OPT| Scaling factor                                                0.0000000000
 OPT| Step size                                                     0.0055574228
 OPT| Trust radius                                                  0.4724315332
 OPT| Decrease in energy                                                     YES
 OPT| Used time [s]                                                        0.009
 OPT|
 OPT| Maximum step size                                             0.0055574228
 OPT| Convergence limit for maximum step size                       0.0030000000
 OPT| Maximum step size is converged                                          NO
 OPT|
 OPT| RMS step size                                                 0.0020704517
 OPT| Convergence limit for RMS step size                           0.0015000000
 OPT| RMS step size is converged                                              NO
 OPT|
 OPT| Maximum gradient                                              0.0008386737
 OPT| Convergence limit for maximum gradient                        0.0004500000
 OPT| Maximum gradient is converged                                           NO
 OPT|
 OPT| RMS gradient                                                  0.0002747476
 OPT| Convergence limit for RMS gradient                            0.0003000000
 OPT| RMS gradient is converged                                              YES
 OPT| **************************************************************************
 OPT| Estimated peak process memory after this step [MiB]                    163

 --------------------------
 OPTIMIZATION STEP:      5
 --------------------------

 Extrapolation method: ASPC

 Number of electrons:                                                         16
 Number of occupied orbitals:                                                  8
 Number of molecular orbitals:                                                14

 Number of orbital functions:                                                 14
 Number of independent orbital functions:                                     14


 SCF WAVEFUNCTION OPTIMIZATION

  Step     Update method      Time    Convergence         Total energy    Change
  ------------------------------------------------------------------------------
     1 TBLite/Diag 0.40E+00    0.0     0.00715169        -8.9569186979 -8.96E+00
     2 TBLite/Diag 0.40E+00    0.0     0.00038910        -8.9569187534 -5.55E-08
     3 TBLite/Diag 0.40E+00    0.0     0.00061799        -8.9569185586  1.95E-07
     4 TBLite/Diag 0.40E+00    0.0     0.00042198        -8.9569188000 -2.41E-07
     5 TBLite/Diag 0.40E+00    0.0     0.00002131        -8.9569188002 -2.84E-10
     6 TBLite/Diag 0.40E+00    0.0     0.00000594        -8.9569188003 -4.62E-11
     7 TBLite/Diag 0.40E+00    0.0     0.00000171        -8.9569188003 -2.92E-12
     8 TBLite/Diag 0.40E+00    0.0     0.00000017        -8.9569188003 -5.33E-15
     9 TBLite/Diag 0.40E+00    0.0     6.0187E-09        -8.9569188003 -1.24E-14
    10 TBLite/Diag 0.40E+00    0.0     4.8899E-09        -8.9569188003  5.33E-15
    11 TBLite/Diag 0.40E+00    0.0     1.5209E-10        -8.9569188003  0.00E+00

  *** SCF run converged in    11 steps ***


  Core Hamiltonian energy:                                     -9.16362918629321
  Repulsive potential energy:                                   0.16881825022246
  Electrostatic energy:                                         0.03927709628048
  Self-consistent dispersion energy:                           -0.00138497139811
  Non-self consistent dispersion energy:                        0.00000001089122
  Correction for halogen bonding:                               0.00000000000000
  Electronic entropic energy:                                  -0.00000000000000
  Fermi energy:                                                -0.22758684139246

  Total energy:                                                -8.95691880029716
  Total energy (extrapolated to T->0):                         -8.95691880029716

 ENERGY| Total FORCE_EVAL ( QS ) energy [hartree]             -8.956918800297162

 OPT| **************************************************************************
 OPT| Step number                                                              5
 OPT| Optimization method                                                   BFGS
 OPT| Total energy [hartree]                                       -8.9569188003
 OPT| Effective energy change [hartree]                            -0.0000018406
 OPT| Predicted energy change [hartree]                            -0.0000016604
 OPT| Scaling factor                                                0.0000000000
 OPT| Step size                                                     0.0065368226
 OPT| Trust radius                                                  0.4724315332
 OPT| Decrease in energy                                                     YES
 OPT| Used time [s]                                                        0.009
 OPT|
 OPT| Maximum step size                                             0.0065368226
 OPT| Convergence limit for maximum step size                       0.0030000000
 OPT| Maximum step size is converged                                          NO
 OPT|
 OPT| RMS step size                                                 0.0026076966
 OPT| Convergence limit for RMS step size                           0.0015000000
 OPT| RMS step size is converged                                              NO
 OPT|
 OPT| Maximum gradient                                              0.0003494144
 OPT| Convergence limit for maximum gradient                        0.0004500000
 OPT| Maximum gradient is converged                                          YES
 OPT|
 OPT| RMS gradient                                                  0.0001224411
 OPT| Convergence limit for RMS gradient                            0.0003000000
 OPT| RMS gradient is converged                                              YES
 OPT| **************************************************************************
 OPT| Estimated peak process memory after this step [MiB]                    163

 --------------------------
 OPTIMIZATION STEP:      6
 --------------------------

 Extrapolation method: ASPC

 Number of electrons:                                                         16
 Number of occupied orbitals:                                                  8
 Number of molecular orbitals:                                                14

 Number of orbital functions:                                                 14
 Number of independent orbital functions:                                     14


 SCF WAVEFUNCTION OPTIMIZATION

  Step     Update method      Time    Convergence         Total energy    Change
  ------------------------------------------------------------------------------
     1 TBLite/Diag 0.40E+00    0.0     0.00077419        -8.9569188640 -8.96E+00
     2 TBLite/Diag 0.40E+00    0.0     0.00011317        -8.9569188686 -4.58E-09
     3 TBLite/Diag 0.40E+00    0.0     0.00009924        -8.9569188678  7.38E-10
     4 TBLite/Diag 0.40E+00    0.0     0.00006792        -8.9569188715 -3.67E-09
     5 TBLite/Diag 0.40E+00    0.0     0.00001141        -8.9569188717 -2.16E-10
     6 TBLite/Diag 0.40E+00    0.0     0.00000141        -8.9569188717 -2.10E-12
     7 TBLite/Diag 0.40E+00    0.0     0.00000009        -8.9569188717  5.33E-15
     8 TBLite/Diag 0.40E+00    0.0     0.00000002        -8.9569188717 -3.55E-15
     9 TBLite/Diag 0.40E+00    0.0     1.4690E-09        -8.9569188717  0.00E+00
    10 TBLite/Diag 0.40E+00    0.0     4.3944E-10        -8.9569188717  3.55E-15

  *** SCF run converged in    10 steps ***


  Core Hamiltonian energy:                                     -9.16366088848960
  Repulsive potential energy:                                   0.16885521363197
  Electrostatic energy:                                         0.03927175393336
  Self-consistent dispersion energy:                           -0.00138496170014
  Non-self consistent dispersion energy:                        0.00000001088961
  Correction for halogen bonding:                               0.00000000000000
  Electronic entropic energy:                                  -0.00000000000000
  Fermi energy:                                                -0.22757051396782

  Total energy:                                                -8.95691887173481
  Total energy (extrapolated to T->0):                         -8.95691887173481

 ENERGY| Total FORCE_EVAL ( QS ) energy [hartree]             -8.956918871734805

 OPT| **************************************************************************
 OPT| Step number                                                              6
 OPT| Optimization method                                                   BFGS
 OPT| Total energy [hartree]                                       -8.9569188717
 OPT| Effective energy change [hartree]                            -0.0000000714
 OPT| Predicted energy change [hartree]                            -0.0000000674
 OPT| Scaling factor                                                0.0000000000
 OPT| Step size                                                     0.0006533925
 OPT| Trust radius                                                  0.4724315332
 OPT| Decrease in energy                                                     YES
 OPT| Used time [s]                                                        0.009
 OPT|
 OPT| Maximum step size                                             0.0006533925
 OPT| Convergence limit for maximum step size                       0.0030000000
 OPT| Maximum step size is converged                                         YES
 OPT|
 OPT| RMS step size                                                 0.0002829742
 OPT| Convergence limit for RMS step size                           0.0015000000
 OPT| RMS step size is converged                                             YES
 OPT|
 OPT| Maximum gradient                                              0.0000562320
 OPT| Convergence limit for maximum gradient                        0.0004500000
 OPT| Maximum gradient is converged                                          YES
 OPT|
 OPT| RMS gradient                                                  0.0000223808
 OPT| Convergence limit for RMS gradient                            0.0003000000
 OPT| RMS gradient is converged                                              YES
 OPT| **************************************************************************
 OPT| Estimated peak process memory after this step [MiB]                    163

 *******************************************************************************
 ***                    GEOMETRY OPTIMIZATION COMPLETED                      ***
 *******************************************************************************

 write_final_structure: Optimization converged, writing XYZ file gladly:
  cyanamide_GFN2_mol_geoopt-FINAL-1_6.xyz

 write_final_structure: Optimization converged, writing CIF file gladly:
  cyanamide_GFN2_mol_geoopt-FINAL-1_6.cif

 write_final_structure: Done!

                    Reevaluating energy at the minimum

 Extrapolation method: ASPC

 Number of electrons:                                                         16
 Number of occupied orbitals:                                                  8
 Number of molecular orbitals:                                                14

 Number of orbital functions:                                                 14
 Number of independent orbital functions:                                     14


 SCF WAVEFUNCTION OPTIMIZATION

  Step     Update method      Time    Convergence         Total energy    Change
  ------------------------------------------------------------------------------
     1 TBLite/Diag 0.40E+00    0.0     4.5443E-11        -8.9569188717 -8.96E+00

  *** SCF run converged in     1 steps ***


  Core Hamiltonian energy:                                     -9.16366088849365
  Repulsive potential energy:                                   0.16885521363197
  Electrostatic energy:                                         0.03927175393739
  Self-consistent dispersion energy:                           -0.00138496170013
  Non-self consistent dispersion energy:                        0.00000001088961
  Correction for halogen bonding:                               0.00000000000000
  Electronic entropic energy:                                  -0.00000000000000
  Fermi energy:                                                -0.22757051397796

  Total energy:                                                -8.95691887173481
  Total energy (extrapolated to T->0):                         -8.95691887173481

 ENERGY| Total FORCE_EVAL ( QS ) energy [hartree]             -8.956918871734812

 -------------------------------------------------------------------------------
 -                                                                             -
 -                                DBCSR STATISTICS                             -
 -                                                                             -
 -------------------------------------------------------------------------------
 COUNTER                                    TOTAL       BLAS       SMM       ACC
 flops     1 x    14 x     1                 2800       0.0%    100.0%      0.0%     
 flops     1 x     1 x    14                 8232       0.0%    100.0%      0.0%     
 flops     1 x    14 x     4                16800       0.0%    100.0%      0.0%     
 flops     4 x    14 x     1                16800       0.0%    100.0%      0.0%     
 flops     1 x     4 x    14                32928       0.0%    100.0%      0.0%     
 flops     4 x     1 x    14                32928       0.0%    100.0%      0.0%     
 flops     4 x    14 x     4               100800       0.0%    100.0%      0.0%     
 flops     4 x     4 x    14               263424       0.0%    100.0%      0.0%     
 flops inhomo. stacks                           0       0.0%      0.0%      0.0%
 flops total                       474.712000E+03       0.0%    100.0%      0.0%
 flops max/rank                    474.712000E+03       0.0%    100.0%      0.0%
 matmuls inhomo. stacks                         0       0.0%      0.0%      0.0%
 matmuls total                               2095       0.0%    100.0%      0.0%
 number of processed stacks                   492       0.0%    100.0%      0.0%
 average stack size                                     0.0       4.3       0.0
 marketing flops                   444.528000E+03
 -------------------------------------------------------------------------------
 # multiplications                            123
 max memory usage/rank              13.669827E+09
 # max total images/rank                        1
 # max 3D layers                                1
 # MPI messages exchanged                       0
 -------------------------------------------------------------------------------
 -                                                                             -
 -                      DBCSR MESSAGE PASSING PERFORMANCE                      -
 -                                                                             -
 -------------------------------------------------------------------------------
 ROUTINE             CALLS      AVE VOLUME [Bytes]
 MP_Bcast                9                     12.
 MP_Allreduce          600                      9.
 MP_Alltoall          4109                   1137.
 MP_ISend              492                    141.
 MP_IRecv              492                    141.
 -------------------------------------------------------------------------------

 -------------------------------------------------------------------------------
 -                                                                             -
 -                          OFFLOAD MEMPOOL STATISTICS                         -
 -                                                                             -
 -------------------------------------------------------------------------------
 Memory consumption                Number of allocations  Used [MiB]  Size [MiB]
 Device                                                1           0           0
 Host                                                  1           0           0
 -------------------------------------------------------------------------------

 MEMORY| Estimated peak process memory [MiB]                                 163

 -------------------------------------------------------------------------------
 -                                                                             -
 -                         MESSAGE PASSING PERFORMANCE                         -
 -                                                                             -
 -------------------------------------------------------------------------------

 ROUTINE             CALLS      AVE VOLUME [Bytes]
 MP_Group                1
 MP_Bcast              188                     61.
 MP_Allreduce         2986                     40.
 MP_Sync                99
 MP_comm_split          98
 -------------------------------------------------------------------------------


 -------------------------------------------------------------------------------
 -                                                                             -
 -                           R E F E R E N C E S                               -
 -                                                                             -
 -------------------------------------------------------------------------------
 
 CP2K version 2026.1 (Development Version), the CP2K developers group (2026).
 CP2K is freely available from https://www.cp2k.org/ .
 
 M. Iannuzzi, J. Wilhelm, F. Stein, A. Bussy, H. Elgabarty, D. Golze, A. Hehn, 
 M. Graml, S. Marek, B. Sertcan Gökmen, C. Schran, H. Forbert, R. Z. 
 Khaliullin, A. Kozhevnikov, M. Taillefumier, R. Meli, V. V. Rybkin, M. Brehm, 
 R. Schade, O. Schütt, J. V. Pototschnig, H. Mirhosseini, A. Knüpfer, D. Marx, 
 M. Krack, J. Hutter, T. D. Kühne.
 J. Phys. Chem. B 130, 1237-1310 (2026).
 The CP2K Program Package Made Simple.
 https://doi.org/10.1021/acs.jpcb.5c05851

 A. Katbashev, M. Stahn, T. Rose, V. Alizadeh, M. Friede, C. Plett, P. 
 Steinbach, S. Ehlert.
 J. Phys. Chem. A 129, 2667-2682 (2025).
 Overview on Building Blocks and Applications of Efficient and Robust Extended 
 Tight Binding.
 https://doi.org/10.1021/acs.jpca.4c08263

 T. D. Kühne, M. Iannuzzi, M. Del Ben, V. V. Rybkin, P. Seewald, F. Stein, T. 
 Laino, R. Z. Khaliullin, O. Schütt, F. Schiffmann, D. Golze, J. Wilhelm, S. 
 Chulkov, M. H. Bani-Hashemian, V. Weber, U. Borstnik, M. Taillefumier, A. S. 
 Jakobovits, A. Lazzaro, H. Pabst, T. Müller, R. Schade, M. Guidon, S. 
 Andermatt, N. Holmberg, G. K. Schenter, A. Hehn, A. Bussy, F. Belleflamme, G. 
 Tabacchi, A. Glöß, M. Lass, I. Bethune, C. J. Mundy, C. Plessl, M. Watkins, 
 J. VandeVondele, M. Krack, J. Hutter.
 J. Chem. Phys. 152, 194103 (2020).
 CP2K: An electronic structure and molecular dynamics software package - 
 Quickstep: Efficient and accurate electronic structure calculations.
 https://doi.org/10.1063/5.0007045

 P. Pracht, E. Caldeweyher, S. Ehlert, S. Grimme.
 ChemRxiv, (2019).
 A Robust Non-Self-Consistent Tight-Binding Quantum Chemistry Method for large 
 Molecules.
 https://doi.org/10.26434/chemrxiv.8326202.v1

 S. Grimme, C. Bannwarth, P. Shushkov.
 J. Chem. Theory Comput. 13, 1989 (2017).
 A Robust and Accurate Tight-Binding Quantum Chemical Method for Structures, 
 Vibrational Frequencies, and Noncovalent Interactions of Large Molecular 
 Systems Parametrized for All spd-Block Elements (Z = 1-86).
 https://doi.org/10.1021/acs.jctc.7b00118

 O. Schuett, P. Messmer, J. Hutter, J. VandeVondele.
 Electronic Structure Calculations on Graphics Processing Units, 173-190 (2016).
 GPU-Accelerated Sparse Matrix-Matrix Multiplication for Linear Scaling Density 
 Functional Theory.
 https://doi.org/10.1002/9781118670712.ch8

 A. Heinecke, G. Henry, M. Hutchinson, H. Pabst.
 Proceedings of Intl. Supercomputing Conference, 981-991 (2016).
 LIBXSMM: Accelerating Small Matrix Multiplications by Runtime Code Generation.
 https://doi.org/10.1109/SC.2016.83

 U. Borstnik, J. VandeVondele, V. Weber, J. Hutter.
 Parallel Comput. 40, 47-58 (2014).
 Sparse matrix multiplication: The distributed block-compressed sparse row 
 library.
 https://doi.org/10.1016/j.parco.2014.03.012

 T. D. Kühne, M. Krack, F. R. Mohamed, M. Parrinello.
 Phys. Rev. Lett. 98, 066401 (2007).
 Efficient and accurate Car-Parrinello-like approach to Born-Oppenheimer 
 molecular dynamics.
 https://doi.org/10.1103/PhysRevLett.98.066401

 M. Frigo, S. G. Johnson.
 Proc. IEEE 93, 216-231 (2005).
 The design and implementation of FFTW3.
 https://doi.org/10.1109/JPROC.2004.840301

 J. Kolafa.
 J. Comput. Chem. 25, 335-342 (2004).
 Time-reversible always stable predictor-corrector method for molecular dynamics 
 of polarizable molecules.
 https://doi.org/10.1002/jcc.10385

 N. D. Mermin.
 Phys. Rev. 137, A1441-A1443 (1965).
 Thermal Properties of the Inhomogeneous Electron Gas.
 https://doi.org/10.1103/PhysRev.137.A1441


 -------------------------------------------------------------------------------
 -                                                                             -
 -                                T I M I N G                                  -
 -                                                                             -
 -------------------------------------------------------------------------------
 SUBROUTINE                       CALLS  ASD         SELF TIME        TOTAL TIME
                                MAXIMUM       AVERAGE  MAXIMUM  AVERAGE  MAXIMUM
 CP2K                                 1  1.0    0.002    0.002    0.073    0.073
 cp_geo_opt                           1  2.0    0.000    0.000    0.068    0.068
 geoopt_bfgs                          1  3.0    0.001    0.001    0.068    0.068
 cp_eval_at                           8  4.0    0.000    0.000    0.065    0.065
 qs_forces                            7  5.0    0.000    0.000    0.062    0.062
 qs_energies                          8  5.9    0.000    0.000    0.061    0.061
 scf_env_do_scf                       8  6.9    0.000    0.000    0.047    0.047
 scf_env_do_scf_inner_loop           84  8.0    0.003    0.003    0.047    0.047
 qs_scf_new_mos                      84  9.0    0.000    0.000    0.036    0.036
 cp_dbcsr_plus_fm_fm_t               98 10.8    0.000    0.000    0.022    0.022
 calculate_dm_sparse                 91 10.0    0.000    0.000    0.021    0.021
 dbcsr_multiply_generic             123 11.9    0.001    0.001    0.019    0.019
 make_m2s                           246 12.9    0.001    0.001    0.011    0.011
 copy_dbcsr_to_fm                   193 10.5    0.000    0.000    0.011    0.011
 dbcsr_complete_redistribute        414 12.2    0.004    0.004    0.009    0.009
 init_scf_run                         8  6.9    0.000    0.000    0.008    0.008
 scf_env_initial_rho_setup            8  7.9    0.000    0.000    0.008    0.008
 wfi_extrapolate                      8  8.9    0.000    0.000    0.007    0.007
 qs_diis_b_step                      76 10.0    0.000    0.000    0.006    0.006
 eigensolver                         84 10.0    0.001    0.001    0.006    0.006
 cp_fm_syevd                         98 10.6    0.000    0.000    0.006    0.006
 rebuild_ks_matrix                   91  9.8    0.000    0.000    0.005    0.005
 build_tblite_ks_matrix              91 10.8    0.004    0.004    0.005    0.005
 copy_fm_to_dbcsr                   221 11.8    0.000    0.000    0.005    0.005
 make_images                        246 13.9    0.001    0.001    0.005    0.005
 qs_ks_update_qs_env                 84  9.0    0.000    0.000    0.005    0.005
 cp_dbcsr_sm_fm_multiply             25 10.4    0.000    0.000    0.005    0.005
 dbcsr_finalize                    2329 12.1    0.001    0.001    0.004    0.004
 build_tblite_matrices               15  7.0    0.001    0.001    0.004    0.004
 multiply_cannon                    123 12.9    0.002    0.002    0.004    0.004
 dbcsr_create_new                  3202 13.0    0.003    0.003    0.003    0.003
 dbcsr_crop_matrix                  196 13.8    0.000    0.000    0.003    0.003
 cp_fm_syevd_base                    98 11.6    0.003    0.003    0.003    0.003
 qs_energies_init_hamiltonians        8  6.9    0.000    0.000    0.003    0.003
 qs_init_subsys                       1  2.0    0.000    0.000    0.003    0.003
 dbcsr_desymmetrize_deep            193 11.5    0.001    0.001    0.003    0.003
 cp_dbcsr_sm_fm_multiply_core        25 11.4    0.000    0.000    0.003    0.003
 dbcsr_copy_submatrix               196 14.8    0.001    0.001    0.002    0.002
 dbcsr_iterator_start              5319 12.6    0.002    0.002    0.002    0.002
 tb_get_multipole                    15  8.0    0.001    0.001    0.002    0.002
 reorthogonalize_vectors              7  9.9    0.000    0.000    0.002    0.002
 make_basis_lowdin                    7 10.9    0.000    0.000    0.002    0.002
 dbcsr_merge_all                    708 14.9    0.001    0.001    0.002    0.002
 cp_fm_redistribute_start            98 11.6    0.001    0.001    0.002    0.002
 parallel_gemm_fm_gemm              209 10.6    0.000    0.000    0.002    0.002
 dbcsr_iterator_stop               5319 12.6    0.001    0.001    0.002    0.002
 dbcsr_destroy                     3027 12.4    0.001    0.001    0.002    0.002
 make_images_data                   246 14.9    0.001    0.001    0.002    0.002
 cp_fm_gemm                         209 11.6    0.002    0.002    0.002    0.002
 compute_matrix_w                     8  6.9    0.000    0.000    0.002    0.002
 dbcsr_make_images_dense            196 13.8    0.000    0.000    0.002    0.002
 calculate_w_matrix_1                 7  8.0    0.000    0.000    0.002    0.002
 write_restart                        7  4.0    0.001    0.001    0.002    0.002
 -------------------------------------------------------------------------------

 The number of warnings for this run is : 0
 
 -------------------------------------------------------------------------------
  **** **** ******  **  PROGRAM ENDED AT                 2026-05-23 22:46:20.734
 ***** ** ***  *** **   PROGRAM RAN ON                                spark-c86c
 **    ****   ******    PROGRAM RAN BY                                  kuehne88
 ***** **    ** ** **   PROGRAM PROCESS ID                               2226878
  **** **  *******  **  PROGRAM STOPPED IN /home/kuehne88/periodic-gfn2-benchmar
                                           ks/X23b/runs/molecule_geoopt/GFN2/cya
                                           namide_GFN2_mol_geoopt
