 DBCSR| CPU Multiplication driver                                           XSMM (U)
 DBCSR| Multrec recursion limit                                              512 (U)
 DBCSR| Multiplication stack size                                           1000 (D)
 DBCSR| Maximum elements for images                                    UNLIMITED (U)
 DBCSR| Multiplicative factor virtual images                                   1 (U)
 DBCSR| Use multiplication densification                                       T (D)
 DBCSR| Multiplication size stacks                                             3 (U)
 DBCSR| Use memory pool for CPU allocation                                     F (U)
 DBCSR| Number of 3D layers                                               SINGLE (U)
 DBCSR| Use MPI memory allocation                                              F (U)
 DBCSR| Use RMA algorithm                                                      F (U)
 DBCSR| Use Communication thread                                               T (U)
 DBCSR| Communication thread load                                             87 (D)
 DBCSR| MPI: My process id                                                     0
 DBCSR| MPI: Number of processes                                               1
 DBCSR| OMP: Current number of threads                                         1
 DBCSR| OMP: Max number of threads                                             1
 DBCSR| Split modifier for TAS multiplication algorithm                  1.0E+00 (U)


  **** **** ******  **  PROGRAM STARTED AT               2026-05-23 22:46:27.314
 ***** ** ***  *** **   PROGRAM STARTED ON                            spark-c86c
 **    ****   ******    PROGRAM STARTED BY                              kuehne88
 ***** **    ** ** **   PROGRAM PROCESS ID                               2247160
  **** **  *******  **  PROGRAM STARTED IN /home/kuehne88/periodic-gfn2-benchmar
                                           ks/X23b/runs/crystal_sp/k222/GFN1/ada
                                           mantane_GFN1_k222_sp

 CP2K| version string:                 CP2K version 2026.1 (Development Version)
 CP2K| source code revision number:                                   0622d442e4
 CP2K| cp2kflags: omp fftw3 libxc parallel scalapack mpi_f08 xsmm spglib libdftd
 CP2K|            4 dftd4_v3 mctc-lib tblite
 CP2K| is freely available from                            https://www.cp2k.org/
 CP2K| Program compiled at                                   2026-05-23 22:05:08
 CP2K| Program compiled on                                            spark-c86c
 CP2K| Program compiled for                                              aarch64
 CP2K| Data directory path    /home/kuehne88/cp2k-master-tblite-20260523/install
 CP2K| Input file name                               adamantane_GFN1_k222_sp.inp

 GLOBAL| Force Environment number                                              1
 GLOBAL| Basis set file name                                           BASIS_SET
 GLOBAL| Potential file name                                           POTENTIAL
 GLOBAL| MM Potential file name                                     MM_POTENTIAL
 GLOBAL| Coordinate file name                                      __STD_INPUT__
 GLOBAL| Method name                                                        CP2K
 GLOBAL| Project name                                adamantane_GFN1_k222_energy
 GLOBAL| Run type                                                         ENERGY
 GLOBAL| FFT library                                                       FFTW3
 GLOBAL| Diagonalization library                                       ScaLAPACK
 GLOBAL| Cholesky decomposition library                                ScaLAPACK
 GLOBAL| DGEMM library                                                      BLAS
 GLOBAL| Direct generalized diagonalization requested                          F
 GLOBAL| Orthonormality check for eigenvectors                          DISABLED
 GLOBAL| Matrix multiplication library                                 ScaLAPACK
 GLOBAL| All-to-all communication in single precision                          F
 GLOBAL| FFTs using library dependent lengths                                  F
 GLOBAL| Grid backend                                                       AUTO
 GLOBAL| Global print level                                                  LOW
 GLOBAL| MPI I/O enabled                                                       T
 GLOBAL| Total number of message passing processes                             1
 GLOBAL| Number of distributed systems (nodes)                                 1
 GLOBAL| Number of threads for this process                                    1
 GLOBAL| This output is from process                                           0
 GLOBAL| OpenMP stack size per thread (OMP_STACKSIZE)                    default
 GLOBAL| CPU model name                                                  UNKNOWN
 GLOBAL| CPUID                                                              2200
 GLOBAL| Compiled for CPUID                                                 2000

 *** HINT in environment.F:970 :: The compiler target flags (arm_arch64)   ***
 *** used to build this binary cannot exploit all extensions of this CPU   ***
 *** model (arm_sve256). Consider compiler target flags as part of FCFLAGS ***
 *** and CFLAGS (ARCH file).                                               ***


 MEMORY| system memory details [Kb]
 MEMORY|                        rank 0           min           max       average
 MEMORY| MemTotal            125508532     125508532     125508532     125508532
 MEMORY| MemFree             104272592     104272592     104272592     104272592
 MEMORY| Buffers                867232        867232        867232        867232
 MEMORY| Cached               13416708      13416708      13416708      13416708
 MEMORY| Slab                  1572348       1572348       1572348       1572348
 MEMORY| SReclaimable           895332        895332        895332        895332
 MEMORY| MemLikelyFree       119451864     119451864     119451864     119451864


 GENERATE|  Preliminary Number of Bonds generated:                             0
 GENERATE|  Achieved consistency in connectivity generation.


                  #####   #####        #     #   #     #       #          
                 #     # #     #      #    ##### #     #   # #####  ####  
                 #     # #           #       #   ###   #       #   #    # 
                 #     #  #####     #        #   #  #  #   #   #   ###### 
                 #   # #       #   #         #   #   # #   #   #   #      
                 #    #  #     #  #          #   #  #  # # #   #    #   # 
                  #### #  #####  #           #   ###   ##  #   #     ###  

                                   GFN1-xTB  
                                 Version 0.0                       
                            Johann V. Pototschnig                  



 TOTAL NUMBERS AND MAXIMUM NUMBERS

  Total number of            - Atomic kinds:                                   2
                             - Atoms:                                         52
                             - Shell sets:                                   104
                             - Shells:                                       104
                             - Primitive Cartesian functions:                592
                             - Cartesian basis functions:                    144
                             - Spherical basis functions:                    144

  Maximum angular momentum of the orbital basis functions:                     1


 SCF PARAMETERS         Density guess:                                     MOPAC
                        --------------------------------------------------------
                        max_scf:                                             300
                        max_scf_history:                                       0
                        max_diis:                                              4
                        --------------------------------------------------------
                        eps_scf:                                        1.00E-09
                        eps_scf_history:                                0.00E+00
                        eps_diis:                                       1.00E-01
                        eps_eigval:                                     1.00E-05
                        --------------------------------------------------------
                        level_shift [a.u.]:                             0.000000
                        added MOs                                        88    0
                        --------------------------------------------------------
                        Mixing method:                           DIRECT_P_MIXING
                        --------------------------------------------------------
                        Smear method:                                FERMI_DIRAC
                        Electronic temperature [K]:                        300.0
                        Electronic temperature [a.u.]:                  9.50E-04
                        Accuracy threshold:                             1.00E-06
                        --------------------------------------------------------
                        No outer SCF

 Extrapolation method: initial_guess

 Number of electrons:                                                        112
 Number of occupied orbitals:                                                 56
 Number of molecular orbitals:                                               144

 Number of orbital functions:                                                144
 Number of independent orbital functions:                                    144


 SCF WAVEFUNCTION OPTIMIZATION

  Step     Update method      Time    Convergence         Total energy    Change
  ------------------------------------------------------------------------------
     1 TBLite/Diag 0.40E+00    0.4     1.39130930       -59.2523675194 -5.93E+01
     2 TBLite/Diag 0.40E+00    0.4     0.01036961       -59.2548218064 -2.45E-03
     3 TBLite/Diag 0.40E+00    0.2     0.00674594       -59.2548952752 -7.35E-05
     4 TBLite/Diag 0.40E+00    0.2     0.00261636       -59.2549877605 -9.25E-05
     5 TBLite/Diag 0.40E+00    0.2     0.00027598       -59.2549892582 -1.50E-06
     6 TBLite/Diag 0.40E+00    0.2     0.00005127       -59.2549892927 -3.46E-08
     7 TBLite/Diag 0.40E+00    0.2     0.00001232       -59.2549892939 -1.19E-09
     8 TBLite/Diag 0.40E+00    0.2     0.00000061       -59.2549892939 -1.53E-12
     9 TBLite/Diag 0.40E+00    0.2     0.00000016       -59.2549892939 -1.14E-13
    10 TBLite/Diag 0.40E+00    0.2     0.00000004       -59.2549892939 -1.42E-14
    11 TBLite/Diag 0.40E+00    0.2     9.4165E-09       -59.2549892939 -4.97E-14
    12 TBLite/Diag 0.40E+00    0.2     9.2792E-12       -59.2549892939  2.84E-14

  *** SCF run converged in    12 steps ***


  Core Hamiltonian energy:                                    -60.90438362418116
  Repulsive potential energy:                                   1.72670110794327
  Electrostatic energy:                                         0.00356306246124
  Self-consistent dispersion energy:                            0.00000000000000
  Non-self consistent dispersion energy:                       -0.08086984015331
  Correction for halogen bonding:                               0.00000000000000
  Electronic entropic energy:                                  -0.00000000000000
  Fermi energy:                                                -0.33455493810739

  Total energy:                                               -59.25498929392996
  Total energy (extrapolated to T->0):                        -59.25498929392996

 ENERGY| Total FORCE_EVAL ( QS ) energy [hartree]            -59.254989293929960

 -------------------------------------------------------------------------------
 -                                                                             -
 -                                DBCSR STATISTICS                             -
 -                                                                             -
 -------------------------------------------------------------------------------
 COUNTER                                    TOTAL       BLAS       SMM       ACC
 flops inhomo. stacks                           0       0.0%      0.0%      0.0%
 flops total                         0.000000E+00       0.0%      0.0%      0.0%
 flops max/rank                      0.000000E+00       0.0%      0.0%      0.0%
 matmuls inhomo. stacks                         0       0.0%      0.0%      0.0%
 matmuls total                                  0       0.0%      0.0%      0.0%
 number of processed stacks                     0       0.0%      0.0%      0.0%
 average stack size                                     0.0       0.0       0.0
 marketing flops                     0.000000E+00
 -------------------------------------------------------------------------------
 -                                                                             -
 -                      DBCSR MESSAGE PASSING PERFORMANCE                      -
 -                                                                             -
 -------------------------------------------------------------------------------
 ROUTINE             CALLS      AVE VOLUME [Bytes]
 MP_Bcast                1                     12.
 MP_Allreduce           19                     21.
 MP_Alltoall          8924                 131580.
 -------------------------------------------------------------------------------

 -------------------------------------------------------------------------------
 -                                                                             -
 -                          OFFLOAD MEMPOOL STATISTICS                         -
 -                                                                             -
 -------------------------------------------------------------------------------
 Memory consumption                Number of allocations  Used [MiB]  Size [MiB]
 Device                                                1           0           0
 Host                                                  1           0           0
 -------------------------------------------------------------------------------

 MEMORY| Estimated peak process memory [MiB]                                 244

 -------------------------------------------------------------------------------
 -                                                                             -
 -                         MESSAGE PASSING PERFORMANCE                         -
 -                                                                             -
 -------------------------------------------------------------------------------

 ROUTINE             CALLS      AVE VOLUME [Bytes]
 MP_Group                1
 MP_Bcast             3564                      7.
 MP_Allreduce         4338                    637.
 MP_Sync                 1
 MP_Wait              2960
 MP_ISend             4144                  23704.
 MP_IRecv             4144                  23704.
 -------------------------------------------------------------------------------


 -------------------------------------------------------------------------------
 -                                                                             -
 -                           R E F E R E N C E S                               -
 -                                                                             -
 -------------------------------------------------------------------------------
 
 CP2K version 2026.1 (Development Version), the CP2K developers group (2026).
 CP2K is freely available from https://www.cp2k.org/ .
 
 M. Iannuzzi, J. Wilhelm, F. Stein, A. Bussy, H. Elgabarty, D. Golze, A. Hehn, 
 M. Graml, S. Marek, B. Sertcan Gökmen, C. Schran, H. Forbert, R. Z. 
 Khaliullin, A. Kozhevnikov, M. Taillefumier, R. Meli, V. V. Rybkin, M. Brehm, 
 R. Schade, O. Schütt, J. V. Pototschnig, H. Mirhosseini, A. Knüpfer, D. Marx, 
 M. Krack, J. Hutter, T. D. Kühne.
 J. Phys. Chem. B 130, 1237-1310 (2026).
 The CP2K Program Package Made Simple.
 https://doi.org/10.1021/acs.jpcb.5c05851

 A. Katbashev, M. Stahn, T. Rose, V. Alizadeh, M. Friede, C. Plett, P. 
 Steinbach, S. Ehlert.
 J. Phys. Chem. A 129, 2667-2682 (2025).
 Overview on Building Blocks and Applications of Efficient and Robust Extended 
 Tight Binding.
 https://doi.org/10.1021/acs.jpca.4c08263

 T. D. Kühne, M. Iannuzzi, M. Del Ben, V. V. Rybkin, P. Seewald, F. Stein, T. 
 Laino, R. Z. Khaliullin, O. Schütt, F. Schiffmann, D. Golze, J. Wilhelm, S. 
 Chulkov, M. H. Bani-Hashemian, V. Weber, U. Borstnik, M. Taillefumier, A. S. 
 Jakobovits, A. Lazzaro, H. Pabst, T. Müller, R. Schade, M. Guidon, S. 
 Andermatt, N. Holmberg, G. K. Schenter, A. Hehn, A. Bussy, F. Belleflamme, G. 
 Tabacchi, A. Glöß, M. Lass, I. Bethune, C. J. Mundy, C. Plessl, M. Watkins, 
 J. VandeVondele, M. Krack, J. Hutter.
 J. Chem. Phys. 152, 194103 (2020).
 CP2K: An electronic structure and molecular dynamics software package - 
 Quickstep: Efficient and accurate electronic structure calculations.
 https://doi.org/10.1063/5.0007045

 P. Pracht, E. Caldeweyher, S. Ehlert, S. Grimme.
 ChemRxiv, (2019).
 A Robust Non-Self-Consistent Tight-Binding Quantum Chemistry Method for large 
 Molecules.
 https://doi.org/10.26434/chemrxiv.8326202.v1

 S. Grimme, C. Bannwarth, P. Shushkov.
 J. Chem. Theory Comput. 13, 1989 (2017).
 A Robust and Accurate Tight-Binding Quantum Chemical Method for Structures, 
 Vibrational Frequencies, and Noncovalent Interactions of Large Molecular 
 Systems Parametrized for All spd-Block Elements (Z = 1-86).
 https://doi.org/10.1021/acs.jctc.7b00118

 O. Schuett, P. Messmer, J. Hutter, J. VandeVondele.
 Electronic Structure Calculations on Graphics Processing Units, 173-190 (2016).
 GPU-Accelerated Sparse Matrix-Matrix Multiplication for Linear Scaling Density 
 Functional Theory.
 https://doi.org/10.1002/9781118670712.ch8

 A. Heinecke, G. Henry, M. Hutchinson, H. Pabst.
 Proceedings of Intl. Supercomputing Conference, 981-991 (2016).
 LIBXSMM: Accelerating Small Matrix Multiplications by Runtime Code Generation.
 https://doi.org/10.1109/SC.2016.83

 U. Borstnik, J. VandeVondele, V. Weber, J. Hutter.
 Parallel Comput. 40, 47-58 (2014).
 Sparse matrix multiplication: The distributed block-compressed sparse row 
 library.
 https://doi.org/10.1016/j.parco.2014.03.012

 M. Frigo, S. G. Johnson.
 Proc. IEEE 93, 216-231 (2005).
 The design and implementation of FFTW3.
 https://doi.org/10.1109/JPROC.2004.840301

 N. D. Mermin.
 Phys. Rev. 137, A1441-A1443 (1965).
 Thermal Properties of the Inhomogeneous Electron Gas.
 https://doi.org/10.1103/PhysRev.137.A1441


 -------------------------------------------------------------------------------
 -                                                                             -
 -                                T I M I N G                                  -
 -                                                                             -
 -------------------------------------------------------------------------------
 SUBROUTINE                       CALLS  ASD         SELF TIME        TOTAL TIME
                                MAXIMUM       AVERAGE  MAXIMUM  AVERAGE  MAXIMUM
 CP2K                                 1  1.0    0.007    0.007    3.124    3.124
 qs_energies                          1  2.0    0.000    0.000    3.112    3.112
 scf_env_do_scf                       1  3.0    0.000    0.000    2.752    2.752
 scf_env_do_scf_inner_loop           12  4.0    0.073    0.073    2.752    2.752
 qs_scf_new_mos_kp                   12  5.0    0.000    0.000    2.259    2.259
 do_general_diag_kp                  12  6.0    0.005    0.005    2.259    2.259
 rskp_transform                     200  6.9    0.653    0.653    0.653    0.653
 kpoint_density_transform            12  7.0    0.001    0.001    0.545    0.545
 cp_cfm_geeig                        96  7.0    0.001    0.001    0.459    0.459
 transform_dmat                      96  8.0    0.303    0.303    0.303    0.303
 cp_cfm_heevd                        96  8.0    0.000    0.000    0.301    0.301
 cp_cfm_heevd_base                   96  9.0    0.301    0.301    0.301    0.301
 copy_dbcsr_to_fm                   465  6.8    0.002    0.002    0.295    0.295
 dbcsr_complete_redistribute        657  8.1    0.245    0.245    0.294    0.294
 qs_energies_init_hamiltonians        1  3.0    0.000    0.000    0.262    0.262
 qs_ks_update_qs_env                 12  5.0    0.000    0.000    0.237    0.237
 build_tblite_matrices                1  4.0    0.175    0.175    0.228    0.228
 copy_fm_to_dbcsr                   192  8.0    0.001    0.001    0.187    0.187
 rebuild_ks_matrix                   12  6.0    0.000    0.000    0.165    0.165
 build_tblite_ks_matrix              12  7.0    0.156    0.156    0.165    0.165
 dbcsr_desymmetrize_deep            865  7.4    0.120    0.120    0.162    0.162
 cp_dbcsr_alloc_block_from_nbl      375  5.1    0.132    0.132    0.157    0.157
 evaluate_core_matrix_traces         24  5.5    0.000    0.000    0.138    0.138
 calculate_ptrace_kp                 24  6.5    0.000    0.000    0.138    0.138
 dbcsr_dot                         1560  7.5    0.135    0.135    0.138    0.138
 cp_cfm_triangular_multiply         288  8.0    0.117    0.117    0.117    0.117
 qs_diis_b_calc_err_kp               88  7.0    0.007    0.007    0.093    0.093
 dbcsr_copy                        1752  6.8    0.015    0.015    0.088    0.088
 parallel_gemm_cfm                  352  8.0    0.000    0.000    0.085    0.085
 parallel_gemm_cfm_gemm             352  9.0    0.000    0.000    0.085    0.085
 cp_cfm_gemm                        352 10.0    0.085    0.085    0.085    0.085
 kpoint_density_matrices             12  7.0    0.001    0.001    0.074    0.074
 parallel_gemm_fm_gemm              384  8.0    0.000    0.000    0.071    0.071
 dbcsr_copy_into_existing           192 10.0    0.071    0.071    0.071    0.071
 cp_fm_gemm                         384  9.0    0.071    0.071    0.071    0.071
 cp_fm_start_copy_general           592  7.2    0.062    0.062    0.070    0.070
 scf_env_density_mixing              13  5.0    0.000    0.000    0.068    0.068
 cp_sm_mix                          780  6.0    0.067    0.067    0.068    0.068
 -------------------------------------------------------------------------------

 The number of warnings for this run is : 0
 
 -------------------------------------------------------------------------------
  **** **** ******  **  PROGRAM ENDED AT                 2026-05-23 22:46:30.886
 ***** ** ***  *** **   PROGRAM RAN ON                                spark-c86c
 **    ****   ******    PROGRAM RAN BY                                  kuehne88
 ***** **    ** ** **   PROGRAM PROCESS ID                               2247160
  **** **  *******  **  PROGRAM STOPPED IN /home/kuehne88/periodic-gfn2-benchmar
                                           ks/X23b/runs/crystal_sp/k222/GFN1/ada
                                           mantane_GFN1_k222_sp
