 DBCSR| CPU Multiplication driver                                           BLAS (U)
 DBCSR| Multrec recursion limit                                              512 (U)
 DBCSR| Multiplication stack size                                           1000 (D)
 DBCSR| Maximum elements for images                                    UNLIMITED (U)
 DBCSR| Multiplicative factor virtual images                                   1 (U)
 DBCSR| Use multiplication densification                                       T (D)
 DBCSR| Multiplication size stacks                                             3 (U)
 DBCSR| Use memory pool for CPU allocation                                     F (U)
 DBCSR| Number of 3D layers                                               SINGLE (U)
 DBCSR| Use MPI memory allocation                                              F (U)
 DBCSR| Use RMA algorithm                                                      F (U)
 DBCSR| Use Communication thread                                               T (U)
 DBCSR| Communication thread load                                             87 (D)
 DBCSR| MPI: My process id                                                     0
 DBCSR| MPI: Number of processes                                               1
 DBCSR| OMP: Current number of threads                                         1
 DBCSR| OMP: Max number of threads                                             1
 DBCSR| Split modifier for TAS multiplication algorithm                  1.0E+00 (U)


  **** **** ******  **  PROGRAM STARTED AT               2026-07-21 12:53:40.983
 ***** ** ***  *** **   PROGRAM STARTED ON                                 terok
 **    ****   ******    PROGRAM STARTED BY                              kuehne88
 ***** **    ** ** **   PROGRAM PROCESS ID                                570280
  **** **  *******  **  PROGRAM STARTED IN /home/kuehne88/work/gxtb-lowk-rerun-2
                                           0260721/results/partial/gxtb_1d_nativ
                                           e_gamma_centered_k211

 CP2K| version string:                 CP2K version 2026.2 (Development Version)
 CP2K| source code revision number:                                    8520b2e59
 CP2K| cp2kflags: omp parallel scalapack spglib s_dftd3 mctc-lib tblite tblite_g
 CP2K|            xtb
 CP2K| is freely available from                            https://www.cp2k.org/
 CP2K| Program compiled at                                   2026-07-18 23:48:15
 CP2K| Program compiled on                                                 terok
 CP2K| Program compiled for                                               x86_64
 CP2K| Data directory path                            /usr/local/share/cp2k/data
 CP2K| Input file name        /home/kuehne88/work/gxtb-lowk-rerun-20260721/input

 GLOBAL| Force Environment number                                              1
 GLOBAL| Basis set file name                                           BASIS_SET
 GLOBAL| Potential file name                                           POTENTIAL
 GLOBAL| MM Potential file name                                     MM_POTENTIAL
 GLOBAL| Coordinate file name                                      __STD_INPUT__
 GLOBAL| Method name                                                        CP2K
 GLOBAL| Project name                                      Ar2_chain_gxtb_x_k211
 GLOBAL| Run type                                                   ENERGY_FORCE
 GLOBAL| FFT library                                                       FFTW3
 GLOBAL| Diagonalization library                                       ScaLAPACK
 GLOBAL| Cholesky decomposition library                                ScaLAPACK
 GLOBAL| DGEMM library                                                      BLAS
 GLOBAL| Direct generalized diagonalization requested                          F
 GLOBAL| Orthonormality check for eigenvectors                          DISABLED
 GLOBAL| Matrix multiplication library                                 ScaLAPACK
 GLOBAL| All-to-all communication in single precision                          F
 GLOBAL| FFTs using library dependent lengths                                  F
 GLOBAL| Grid backend                                                       AUTO
 GLOBAL| Global print level                                               MEDIUM
 GLOBAL| MPI I/O enabled                                                       T
 GLOBAL| Total number of message passing processes                             1
 GLOBAL| Number of distributed systems (nodes)                                 1
 GLOBAL| Number of threads for this process                                    1
 GLOBAL| This output is from process                                           0
 GLOBAL| OpenMP stack size per thread (OMP_STACKSIZE)                    default
 GLOBAL| CPU model name                                       AMD EPYC Processor
 GLOBAL| CPUID                                                              1002

 MEMORY| system memory details [Kb]
 MEMORY|                        rank 0           min           max       average
 MEMORY| MemTotal            528104804     528104804     528104804     528104804
 MEMORY| MemFree             511425784     511425784     511425784     511425784
 MEMORY| Buffers                    20            20            20            20
 MEMORY| Cached               12078580      12078580      12078580      12078580
 MEMORY| Slab                  2342756       2342756       2342756       2342756
 MEMORY| SReclaimable           994200        994200        994200        994200
 MEMORY| MemLikelyFree       524498584     524498584     524498584     524498584


 *** WARNING in environment.F:1098 :: FFT library FFTW3 is not available. ***
 *** Trying FFT library FFTSG.                                            ***


 *** Fundamental physical constants (SI units) ***

 *** Literature: B. J. Mohr and B. N. Taylor,
 ***             CODATA recommended values of the fundamental physical
 ***             constants: 2006, Web Version 5.1
 ***             http://physics.nist.gov/constants

 Speed of light in vacuum [m/s]                             2.99792458000000E+08
 Magnetic constant or permeability of vacuum [N/A**2]       1.25663706143592E-06
 Electric constant or permittivity of vacuum [F/m]          8.85418781762039E-12
 Planck constant (h) [J*s]                                  6.62606896000000E-34
 Planck constant (h-bar) [J*s]                              1.05457162825177E-34
 Elementary charge [C]                                      1.60217648700000E-19
 Electron mass [kg]                                         9.10938215000000E-31
 Electron g factor [ ]                                     -2.00231930436220E+00
 Proton mass [kg]                                           1.67262163700000E-27
 Fine-structure constant                                    7.29735253760000E-03
 Rydberg constant [1/m]                                     1.09737315685270E+07
 Avogadro constant [1/mol]                                  6.02214179000000E+23
 Boltzmann constant [J/K]                                   1.38065040000000E-23
 Atomic mass unit [kg]                                      1.66053878200000E-27
 Bohr radius [m]                                            5.29177208590000E-11

 *** Conversion factors ***

 [u] -> [a.u.]                                              1.82288848426455E+03
 [Angstrom] -> [Bohr] = [a.u.]                              1.88972613288564E+00
 [a.u.] = [Bohr] -> [Angstrom]                              5.29177208590000E-01
 [a.u.] -> [s]                                              2.41888432650478E-17
 [a.u.] -> [fs]                                             2.41888432650478E-02
 [a.u.] -> [J]                                              4.35974393937059E-18
 [a.u.] -> [N]                                              8.23872205491840E-08
 [a.u.] -> [K]                                              3.15774647902944E+05
 [a.u.] -> [kJ/mol]                                         2.62549961709828E+03
 [a.u.] -> [kcal/mol]                                       6.27509468713739E+02
 [a.u.] -> [Pa]                                             2.94210107994716E+13
 [a.u.] -> [bar]                                            2.94210107994716E+08
 [a.u.] -> [atm]                                            2.90362800883016E+08
 [a.u.] -> [eV]                                             2.72113838565563E+01
 [a.u.] -> [Hz]                                             6.57968392072181E+15
 [a.u.] -> [1/cm] (wave numbers)                            2.19474631370540E+05
 [a.u./Bohr**2] -> [1/cm]                                   5.14048714338585E+03
 

 CELL| Volume [angstrom^3]:                                          1704.240000
 CELL| Vector a [angstrom]:       5.260     0.000     0.000   |a| =     5.260000
 CELL| Vector b [angstrom]:       0.000    18.000     0.000   |b| =    18.000000
 CELL| Vector c [angstrom]:       0.000     0.000    18.000   |c| =    18.000000
 CELL| Angle (b,c), alpha [degree]:                                    90.000000
 CELL| Angle (a,c), beta  [degree]:                                    90.000000
 CELL| Angle (a,b), gamma [degree]:                                    90.000000
 CELL| Numerically orthorhombic:                                             YES
 CELL| Periodicity                                                             X

 CELL_REF| Volume [angstrom^3]:                                      1704.240000
 CELL_REF| Vector a [angstrom     5.260     0.000     0.000   |a| =     5.260000
 CELL_REF| Vector b [angstrom     0.000    18.000     0.000   |b| =    18.000000
 CELL_REF| Vector c [angstrom     0.000     0.000    18.000   |c| =    18.000000
 CELL_REF| Angle (b,c), alpha [degree]:                                90.000000
 CELL_REF| Angle (a,c), beta  [degree]:                                90.000000
 CELL_REF| Angle (a,b), gamma [degree]:                                90.000000
 CELL_REF| Numerically orthorhombic:                                         YES
 CELL_REF| Periodicity                                                         X

 GENERATE|  Preliminary Number of Bonds generated:                             0
 GENERATE|  Achieved consistency in connectivity generation.


                  #####   #####        #     #   #     #       #          
                 #     # #     #      #    ##### #     #   # #####  ####  
                 #     # #           #       #   ###   #       #   #    # 
                 #     #  #####     #        #   #  #  #   #   #   ###### 
                 #   # #       #   #         #   #   # #   #   #   #      
                 #    #  #     #  #          #   #  #  # # #   #    #   # 
                  #### #  #####  #           #   ###   ##  #   #     ###  

                                     g-xTB   
                                 Version 0.0                       
                            Johann V. Pototschnig                  

                tblite provider: SAVE
                tblite source revision: 15915c9435644eb257178ca8f8bf7220c38b1a84
                g-xTB support: enabled

 xTB| Parameter file                                             xTB1_parameters
 xTB| Basis expansion STO-NG                                                   6
 xTB| Basis expansion STO-NG for Hydrogen                                      4
 xTB| Repulsive pair potential accuracy                               0.1000E-09
 xTB| Repulsive enhancement factor                                      0.000000
 xTB| Halogen interaction potential                                            T
 xTB| Halogen interaction potential cutoff radius                         20.000
 xTB| Nonbonded interactions                                                   F
 xTB| vdW potential type:                                              DFTD3(BJ)
 xTB| D3 Dispersion: Parameter                                         dftd3.dat
 xTB| Huckel constants ks kp kd                        1.850     2.250     2.000
 xTB| Huckel constants ksp k2sh                                  2.080     2.850
 xTB| Mataga-Nishimoto exponent                                            2.000
 xTB| Repulsion potential exponent                                         1.500
 xTB| Coordination number scaling kcn(s) kcn(p) kc     0.006    -0.003    -0.005
 xTB| Electronegativity scaling                                           -0.007
 xTB| Halogen potential scaling kxr kx2                          1.300     0.440
 xTB| SCC mixer:                                                       AUTO
 xTB| tblite accuracy:                                                 1.000E+00
 xTB| tblite SCC mixer damping:                                            0.400
 xTB| tblite SCC mixer iterations:                                           250
 xTB| tblite SCC mixer memory:                                               250
 xTB| tblite SCC mixer solver:                                         GVD
 xTB| tblite SCC mixer omega0:                                         1.000E-02
 xTB| tblite SCC mixer min weight:                                     1.000E+00
 xTB| tblite SCC mixer max weight:                                     1.000E+05
 xTB| tblite SCC mixer weight factor:                                  1.000E-02




 ATOMIC KIND INFORMATION

  1. Atomic kind: Ar                                    Number of atoms:       2

     Orbital Basis Set                                                 Ar_STO-5G

       Number of orbital shell sets:                                           3
       Number of orbital shells:                                               3
       Number of primitive Cartesian functions:                               12
       Number of Cartesian basis functions:                                   10
       Number of spherical basis functions:                                    9
       Norm type:                                                              3

       Normalised Cartesian orbitals:

                        Set   Shell   Orbital            Exponent    Coefficient

                          1       1    1s               16.931104       0.069445
                                                         2.293011      -1.016928
                                                         1.777506       0.617592
                                                         0.473525       0.321216
                                                         0.172864       0.057224

                          2       1    2px               3.241555      -0.321785
                                                         1.120495       0.520051
                                                         0.440449       0.245570
                                                         0.234944       0.039337
                                                         0.125495       0.021069
                          2       1    2py               3.241555      -0.321785
                                                         1.120495       0.520051
                                                         0.440449       0.245570
                                                         0.234944       0.039337
                                                         0.125495       0.021069
                          2       1    2pz               3.241555      -0.321785
                                                         1.120495       0.520051
                                                         0.440449       0.245570
                                                         0.234944       0.039337
                                                         0.125495       0.021069

                          3       1    3dx2              1.767057       1.271209
                                                         0.372274       0.250064
                          3       1    3dxy              1.767057       2.201798
                                                         0.372274       0.433124
                          3       1    3dxz              1.767057       2.201798
                                                         0.372274       0.433124
                          3       1    3dy2              1.767057       1.271209
                                                         0.372274       0.250064
                          3       1    3dyz              1.767057       2.201798
                                                         0.372274       0.433124
                          3       1    3dz2              1.767057       1.271209
                                                         0.372274       0.250064

     AE Potential information for                                          Argon

       Description:                                       Bare Coulomb Potential
                                                             Valence charge only

       Gaussian exponent of the core charge distribution:               2.082466
       Electronic configuration (s p d ...):                       2   6   0   0


 MOLECULE KIND INFORMATION


 All atoms are their own molecule, skipping detailed information


 TOTAL NUMBERS AND MAXIMUM NUMBERS

  Total number of            - Atomic kinds:                                   1
                             - Atoms:                                          2
                             - Shell sets:                                     6
                             - Shells:                                         6
                             - Primitive Cartesian functions:                 24
                             - Cartesian basis functions:                     20
                             - Spherical basis functions:                     18

  Maximum angular momentum of the orbital basis functions:                     2


 MODULE QUICKSTEP: ATOMIC COORDINATES IN ANGSTROM

   Atom Kind Element         X             Y             Z       Z(eff)     Mass
      1    1 Ar   18      0.594380      9.018000      9.666000   8.0000  39.9480
      2    1 Ar   18      3.224380      9.414000      9.252000   8.0000  39.9480



 SCF PARAMETERS         Density guess:                                     MOPAC
                        --------------------------------------------------------
                        max_scf:                                             300
                        max_scf_history:                                       0
                        max_diis:                                              4
                        --------------------------------------------------------
                        eps_scf:                                        1.00E-10
                        eps_scf_history:                                0.00E+00
                        eps_diis:                                       1.00E-01
                        eps_eigval:                                     1.00E-05
                        --------------------------------------------------------
                        level_shift [a.u.]:                             0.000000
                        added MOs                                        10    0
                        --------------------------------------------------------
                        Mixing method:                           DIRECT_P_MIXING
                        --------------------------------------------------------
                        No outer SCF

 PW_GRID| Information for grid number                                          1
 PW_GRID| Cutoff [a.u.]                                                      1.0
 PW_GRID| spherical cutoff:                                                   NO
 PW_GRID|   Bounds   1             -3       2                Points:           6
 PW_GRID|   Bounds   2             -7       7                Points:          15
 PW_GRID|   Bounds   3             -7       7                Points:          15
 PW_GRID| Volume element (a.u.^3)   8.519         Volume (a.u.^3)     11500.7817
 PW_GRID| Grid span                                                    FULLSPACE

 POISSON| Solver                                                        PERIODIC
 POISSON| Periodicity                                                        XYZ

 RS_GRID| Information for grid number                                          1
 RS_GRID|   Bounds   1             -3       2                Points:           6
 RS_GRID|   Bounds   2             -7       7                Points:          15
 RS_GRID|   Bounds   3             -7       7                Points:          15

 *******************************************************************************
                                    Kpoints
 *******************************************************************************
 BRILLOUIN| K-point scheme                                             MacDonald
 BRILLOUIN| K-Point grid                                             2    1    1
 BRILLOUIN| K-Point shift                             0.0000    0.0000    0.0000
 BRILLOUIN| Gamma-centered k-point mesh                                     ON
 BRILLOUIN| K-point symmetry accuracy                               0.100000E-05
 BRILLOUIN| K-Point point group symmetrization                               OFF
 BRILLOUIN| Wavefunction type                                            COMPLEX
 BRILLOUIN| Use full k-point grid     
 BRILLOUIN| List of Kpoints [2 Pi/Bohr]                                        2
 BRILLOUIN| Number           Weight            X              Y              Z
 BRILLOUIN|     1           0.50000        0.00000        0.00000        0.00000
 BRILLOUIN|     2           0.50000        0.50000        0.00000        0.00000
 *******************************************************************************

 Extrapolation method: initial_guess

 Number of electrons:                                                         16
 Number of occupied orbitals:                                                  8
 Number of molecular orbitals:                                                18

 Number of orbital functions:                                                 18
 Number of independent orbital functions:                                     18


 SCF WAVEFUNCTION OPTIMIZATION

  Step     Update method      Time    Convergence         Total energy    Change
  ------------------------------------------------------------------------------
 GXTB-EXCHANGE-TRANSFORM stage=FORWARD backend=DENSE fallback=0 iter=1
 GXTB-EXCHANGE-TRANSFORM stage=FORWARD backend=DENSE fallback=0 iter=1
     1 GXTB-Raw    0.10E+01    0.0     2.03636416     -1055.1705086682 -1.06E+03
 GXTB-EXCHANGE-TRANSFORM stage=FORWARD backend=DENSE fallback=0 iter=2
 GXTB-EXCHANGE-TRANSFORM stage=FORWARD backend=DENSE fallback=0 iter=2
     2 GXTB-Simple 0.20E+00    0.0     0.01409910     -1055.1744898593 -3.98E-03
 GXTB-EXCHANGE-TRANSFORM stage=FORWARD backend=DENSE fallback=0 iter=3
 GXTB-EXCHANGE-TRANSFORM stage=FORWARD backend=DENSE fallback=0 iter=3
     3 GXTB-Simple 0.20E+00    0.0     0.00910402     -1055.1763623935 -1.87E-03
 GXTB-EXCHANGE-TRANSFORM stage=FORWARD backend=DENSE fallback=0 iter=4
 GXTB-EXCHANGE-TRANSFORM stage=FORWARD backend=DENSE fallback=0 iter=4
     4 GXTB-FDIIS  0.10E+01    0.0     0.03162414     -1055.1789448966 -2.58E-03
 GXTB-EXCHANGE-TRANSFORM stage=FORWARD backend=DENSE fallback=0 iter=5
 GXTB-EXCHANGE-TRANSFORM stage=FORWARD backend=DENSE fallback=0 iter=5
     5 GXTB-FDIIS  0.10E+01    0.0     0.00071625     -1055.1789480482 -3.15E-06
 GXTB-EXCHANGE-TRANSFORM stage=FORWARD backend=DENSE fallback=0 iter=6
 GXTB-EXCHANGE-TRANSFORM stage=FORWARD backend=DENSE fallback=0 iter=6
     6 GXTB-FDIIS  0.10E+01    0.0     0.00027726     -1055.1789484267 -3.78E-07
 GXTB-EXCHANGE-TRANSFORM stage=FORWARD backend=DENSE fallback=0 iter=7
 GXTB-EXCHANGE-TRANSFORM stage=FORWARD backend=DENSE fallback=0 iter=7
     7 GXTB-FDIIS  0.10E+01    0.0     0.00010671     -1055.1789484599 -3.33E-08
 GXTB-EXCHANGE-TRANSFORM stage=FORWARD backend=DENSE fallback=0 iter=8
 GXTB-EXCHANGE-TRANSFORM stage=FORWARD backend=DENSE fallback=0 iter=8
     8 GXTB-FDIIS  0.10E+01    0.0     0.00000322     -1055.1789484600 -2.75E-11
 GXTB-EXCHANGE-TRANSFORM stage=FORWARD backend=DENSE fallback=0 iter=9
 GXTB-EXCHANGE-TRANSFORM stage=FORWARD backend=DENSE fallback=0 iter=9
     9 GXTB-FDIIS  0.10E+01    0.0     0.00000047     -1055.1789484600 -6.82E-13
 GXTB-EXCHANGE-TRANSFORM stage=FORWARD backend=DENSE fallback=0 iter=10
 GXTB-EXCHANGE-TRANSFORM stage=FORWARD backend=DENSE fallback=0 iter=10
    10 GXTB-FDIIS  0.10E+01    0.0     0.00000007     -1055.1789484600  2.27E-13
 GXTB-EXCHANGE-TRANSFORM stage=FORWARD backend=DENSE fallback=0 iter=11
 GXTB-EXCHANGE-TRANSFORM stage=FORWARD backend=DENSE fallback=0 iter=11
    11 GXTB-FDIIS  0.10E+01    0.0     5.6728E-10     -1055.1789484600 -2.27E-13
 GXTB-EXCHANGE-TRANSFORM stage=FORWARD backend=DENSE fallback=0 iter=12
 GXTB-EXCHANGE-TRANSFORM stage=FORWARD backend=DENSE fallback=0 iter=12
    12 GXTB-FDIIS  0.10E+01    0.0     1.0695E-11     -1055.1789484600 -2.27E-13

  *** SCF run converged in    12 steps ***


  Core Hamiltonian energy:                                     -4.63181807118828
  Repulsive potential energy:                                   0.01865061841572
  Electrostatic energy:                                         0.01647713714541
  Self-consistent dispersion energy:                           -0.00164658667882
  Non-self consistent dispersion energy:                       -0.00004522706065
  Correction for halogen bonding:                               0.00000000000000

  Total energy:                                             -1055.17894845995670


 MULLIKEN POPULATION ANALYSIS

  # Atom   Element   Kind        Atomic population                    Net charge
       1     Ar         1                 8.000000                      0.000000
       2     Ar         1                 8.000000                      0.000000
 # Total charge                          16.000000                      0.000000

 GXTB-EXCHANGE-TRANSFORM stage=FORWARD backend=DENSE fallback=0 iter=12
 GXTB-EXCHANGE-TRANSFORM stage=REVERSE backend=DENSE fallback=0

 ENERGY| Total FORCE_EVAL ( QS ) energy [hartree]          -1055.178948459956700

 -------------------------------------------------------------------------------
 -                                                                             -
 -                                DBCSR STATISTICS                             -
 -                                                                             -
 -------------------------------------------------------------------------------
 COUNTER                                    TOTAL       BLAS       SMM       ACC
 flops inhomo. stacks                           0       0.0%      0.0%      0.0%
 flops total                         0.000000E+00       0.0%      0.0%      0.0%
 flops max/rank                      0.000000E+00       0.0%      0.0%      0.0%
 matmuls inhomo. stacks                         0       0.0%      0.0%      0.0%
 matmuls total                                  0       0.0%      0.0%      0.0%
 number of processed stacks                     0       0.0%      0.0%      0.0%
 average stack size                                     0.0       0.0       0.0
 marketing flops                     0.000000E+00
 -------------------------------------------------------------------------------
 -                                                                             -
 -                      DBCSR MESSAGE PASSING PERFORMANCE                      -
 -                                                                             -
 -------------------------------------------------------------------------------
 ROUTINE             CALLS      AVE VOLUME [Bytes]
 MP_Bcast                1                     12.
 MP_Allreduce           19                     21.
 MP_Alltoall          2092                   1776.
 -------------------------------------------------------------------------------

 -------------------------------------------------------------------------------
 -                                                                             -
 -                          OFFLOAD MEMPOOL STATISTICS                         -
 -                                                                             -
 -------------------------------------------------------------------------------
 Memory consumption                Number of allocations  Used [MiB]  Size [MiB]
 Host                                                  1           0           0
 -------------------------------------------------------------------------------

 MEMORY| Estimated peak process memory [MiB]                                 120

 -------------------------------------------------------------------------------
 ----                             MULTIGRID INFO                            ----
 -------------------------------------------------------------------------------
 total grid count     :           156              cutoff [a.u.]            1.00

 -------------------------------------------------------------------------------
 -                                                                             -
 -                         MESSAGE PASSING PERFORMANCE                         -
 -                                                                             -
 -------------------------------------------------------------------------------

 ROUTINE             CALLS      AVE VOLUME [Bytes]
 MP_Group                1
 MP_Bcast             2172                      7.
 MP_Allreduce         3046                    350.
 MP_Sync                 1
 MP_Wait              1800
 MP_ISend             2520                    376.
 MP_IRecv             2520                    376.
 -------------------------------------------------------------------------------


 -------------------------------------------------------------------------------
 -                                                                             -
 -                           R E F E R E N C E S                               -
 -                                                                             -
 -------------------------------------------------------------------------------
 
 CP2K version 2026.2 (Development Version), the CP2K developers group (2026).
 CP2K is freely available from https://www.cp2k.org/ .
 
 M. Iannuzzi, J. Wilhelm, F. Stein, A. Bussy, H. Elgabarty, D. Golze, A. Hehn, 
 M. Graml, S. Marek, B. Sertcan Gökmen, C. Schran, H. Forbert, R. Z. 
 Khaliullin, A. Kozhevnikov, M. Taillefumier, R. Meli, V. V. Rybkin, M. Brehm, 
 R. Schade, O. Schütt, J. V. Pototschnig, H. Mirhosseini, A. Knüpfer, D. Marx, 
 M. Krack, J. Hutter, T. D. Kühne.
 J. Phys. Chem. B 130, 1237-1310 (2026).
 The CP2K Program Package Made Simple.
 https://doi.org/10.1021/acs.jpcb.5c05851

 A. Katbashev, M. Stahn, T. Rose, V. Alizadeh, M. Friede, C. Plett, P. 
 Steinbach, S. Ehlert.
 J. Phys. Chem. A 129, 2667-2682 (2025).
 Overview on Building Blocks and Applications of Efficient and Robust Extended 
 Tight Binding.
 https://doi.org/10.1021/acs.jpca.4c08263

 T. D. Kühne, M. Iannuzzi, M. Del Ben, V. V. Rybkin, P. Seewald, F. Stein, T. 
 Laino, R. Z. Khaliullin, O. Schütt, F. Schiffmann, D. Golze, J. Wilhelm, S. 
 Chulkov, M. H. Bani-Hashemian, V. Weber, U. Borstnik, M. Taillefumier, A. S. 
 Jakobovits, A. Lazzaro, H. Pabst, T. Müller, R. Schade, M. Guidon, S. 
 Andermatt, N. Holmberg, G. K. Schenter, A. Hehn, A. Bussy, F. Belleflamme, G. 
 Tabacchi, A. Glöß, M. Lass, I. Bethune, C. J. Mundy, C. Plessl, M. Watkins, 
 J. VandeVondele, M. Krack, J. Hutter.
 J. Chem. Phys. 152, 194103 (2020).
 CP2K: An electronic structure and molecular dynamics software package - 
 Quickstep: Efficient and accurate electronic structure calculations.
 https://doi.org/10.1063/5.0007045

 P. Pracht, E. Caldeweyher, S. Ehlert, S. Grimme.
 ChemRxiv, (2019).
 A Robust Non-Self-Consistent Tight-Binding Quantum Chemistry Method for large 
 Molecules.
 https://doi.org/10.26434/chemrxiv.8326202.v1

 S. Grimme, C. Bannwarth, P. Shushkov.
 J. Chem. Theory Comput. 13, 1989 (2017).
 A Robust and Accurate Tight-Binding Quantum Chemical Method for Structures, 
 Vibrational Frequencies, and Noncovalent Interactions of Large Molecular 
 Systems Parametrized for All spd-Block Elements (Z = 1-86).
 https://doi.org/10.1021/acs.jctc.7b00118

 O. Schuett, P. Messmer, J. Hutter, J. VandeVondele.
 Electronic Structure Calculations on Graphics Processing Units, 173-190 (2016).
 GPU-Accelerated Sparse Matrix-Matrix Multiplication for Linear Scaling Density 
 Functional Theory.
 https://doi.org/10.1002/9781118670712.ch8

 U. Borstnik, J. VandeVondele, V. Weber, J. Hutter.
 Parallel Comput. 40, 47-58 (2014).
 Sparse matrix multiplication: The distributed block-compressed sparse row 
 library.
 https://doi.org/10.1016/j.parco.2014.03.012

 M. Frigo, S. G. Johnson.
 Proc. IEEE 93, 216-231 (2005).
 The design and implementation of FFTW3.
 https://doi.org/10.1109/JPROC.2004.840301

 C.-L. Fu, K.-M. Ho.
 Phys. Rev. B 28, 5480-5486 (1983).
 First-principles calculation of the equilibrium ground-state properties of 
 transition metals: Applications to Nb and Mo.
 https://doi.org/10.1103/PhysRevB.28.5480


 -------------------------------------------------------------------------------
 -                                                                             -
 -                                T I M I N G                                  -
 -                                                                             -
 -------------------------------------------------------------------------------
 SUBROUTINE                       CALLS  ASD         SELF TIME        TOTAL TIME
                                MAXIMUM       AVERAGE  MAXIMUM  AVERAGE  MAXIMUM
 CP2K                                 1  1.0    0.002    0.002    0.070    0.070
 qs_forces                            1  2.0    0.000    0.000    0.064    0.064
 qs_energies                          1  3.0    0.000    0.000    0.053    0.053
 scf_env_do_scf                       1  4.0    0.000    0.000    0.048    0.048
 scf_env_do_scf_inner_loop           12  5.0    0.005    0.005    0.048    0.048
 qs_scf_new_mos_kp                   12  6.0    0.000    0.000    0.026    0.026
 do_general_diag_kp                  12  7.0    0.001    0.001    0.026    0.026
 rebuild_ks_matrix                   13  6.8    0.000    0.000    0.018    0.018
 build_tblite_ks_matrix              13  7.8    0.013    0.013    0.018    0.018
 qs_ks_update_qs_env                 12  6.0    0.000    0.000    0.012    0.012
 copy_dbcsr_to_fm                   100  7.9    0.000    0.000    0.009    0.009
 build_tblite_matrices                2  4.0    0.005    0.005    0.007    0.007
 qs_ks_update_qs_env_forces           1  3.0    0.000    0.000    0.007    0.007
 dbcsr_complete_redistribute        156  9.2    0.003    0.003    0.007    0.007
 cp_fm_start_copy_general           360  7.7    0.004    0.004    0.006    0.006
 kpoint_density_transform            14  7.6    0.000    0.000    0.005    0.005
 dbcsr_desymmetrize_deep            200  8.4    0.001    0.001    0.004    0.004
 qs_energies_init_hamiltonians        1  4.0    0.000    0.000    0.004    0.004
 qs_init_subsys                       1  2.0    0.001    0.001    0.003    0.003
 copy_fm_to_dbcsr                    56  8.6    0.000    0.000    0.003    0.003
 cp_cfm_geeig                        24  8.0    0.000    0.000    0.003    0.003
 kpoint_density_matrices             13  7.8    0.000    0.000    0.003    0.003
 parallel_gemm_fm_gemm              104  8.8    0.000    0.000    0.003    0.003
 dbcsr_iterator_start              3735  8.3    0.002    0.002    0.002    0.002
 cp_fm_gemm                         104  9.8    0.002    0.002    0.002    0.002
 dbcsr_finalize                    1777  7.0    0.001    0.001    0.002    0.002
 dbcsr_create_new                  1286  7.7    0.002    0.002    0.002    0.002
 cp_dbcsr_alloc_block_from_nbl      526  5.8    0.001    0.001    0.002    0.002
 dbcsr_iterator_stop               3735  8.3    0.002    0.002    0.002    0.002
 cp_cfm_heevd                        24  9.0    0.000    0.000    0.002    0.002
 cp_cfm_heevd_base                   24 10.0    0.002    0.002    0.002    0.002
 cp_fm_finish_copy_general          360  7.7    0.002    0.002    0.002    0.002
 -------------------------------------------------------------------------------

 The number of warnings for this run is : 1
 
 -------------------------------------------------------------------------------
  **** **** ******  **  PROGRAM ENDED AT                 2026-07-21 12:53:42.822
 ***** ** ***  *** **   PROGRAM RAN ON                                     terok
 **    ****   ******    PROGRAM RAN BY                                  kuehne88
 ***** **    ** ** **   PROGRAM PROCESS ID                                570280
  **** **  *******  **  PROGRAM STOPPED IN /home/kuehne88/work/gxtb-lowk-rerun-2
                                           0260721/results/partial/gxtb_1d_nativ
                                           e_gamma_centered_k211
