 DBCSR| CPU Multiplication driver                                           BLAS (U)
 DBCSR| Multrec recursion limit                                              512 (U)
 DBCSR| Multiplication stack size                                           1000 (D)
 DBCSR| Maximum elements for images                                    UNLIMITED (U)
 DBCSR| Multiplicative factor virtual images                                   1 (U)
 DBCSR| Use multiplication densification                                       T (D)
 DBCSR| Multiplication size stacks                                             3 (U)
 DBCSR| Use memory pool for CPU allocation                                     F (U)
 DBCSR| Number of 3D layers                                               SINGLE (U)
 DBCSR| Use MPI memory allocation                                              F (U)
 DBCSR| Use RMA algorithm                                                      F (U)
 DBCSR| Use Communication thread                                               T (U)
 DBCSR| Communication thread load                                             87 (D)
 DBCSR| MPI: My process id                                                     0
 DBCSR| MPI: Number of processes                                               1
 DBCSR| OMP: Current number of threads                                         1
 DBCSR| OMP: Max number of threads                                             1
 DBCSR| Split modifier for TAS multiplication algorithm                  1.0E+00 (U)


  **** **** ******  **  PROGRAM STARTED AT               2026-07-21 18:01:03.459
 ***** ** ***  *** **   PROGRAM STARTED ON                                 terok
 **    ****   ******    PROGRAM STARTED BY                              kuehne88
 ***** **    ** ** **   PROGRAM PROCESS ID                               1617888
  **** **  *******  **  PROGRAM STARTED IN /home/kuehne88/work/h2o-molecular-lim
                                           it-fix-20260721/stress/raw/H2O_stress
                                           _L40

 CP2K| version string:                 CP2K version 2026.2 (Development Version)
 CP2K| source code revision number:                                    8520b2e59
 CP2K| cp2kflags: omp parallel scalapack spglib s_dftd3 mctc-lib tblite tblite_g
 CP2K|            xtb
 CP2K| is freely available from                            https://www.cp2k.org/
 CP2K| Program compiled at                                   2026-07-18 23:48:15
 CP2K| Program compiled on                                                 terok
 CP2K| Program compiled for                                               x86_64
 CP2K| Data directory path                            /usr/local/share/cp2k/data
 CP2K| Input file name        /home/kuehne88/work/h2o-molecular-limit-fix-202607

 GLOBAL| Force Environment number                                              1
 GLOBAL| Basis set file name                                           BASIS_SET
 GLOBAL| Potential file name                                           POTENTIAL
 GLOBAL| MM Potential file name                                     MM_POTENTIAL
 GLOBAL| Coordinate file name                                      __STD_INPUT__
 GLOBAL| Method name                                                        CP2K
 GLOBAL| Project name                                             H2O_stress_L40
 GLOBAL| Run type                                                          DEBUG
 GLOBAL| FFT library                                                       FFTW3
 GLOBAL| Diagonalization library                                       ScaLAPACK
 GLOBAL| Cholesky decomposition library                                ScaLAPACK
 GLOBAL| DGEMM library                                                      BLAS
 GLOBAL| Direct generalized diagonalization requested                          F
 GLOBAL| Orthonormality check for eigenvectors                          DISABLED
 GLOBAL| Matrix multiplication library                                 ScaLAPACK
 GLOBAL| All-to-all communication in single precision                          F
 GLOBAL| FFTs using library dependent lengths                                  F
 GLOBAL| Grid backend                                                       AUTO
 GLOBAL| Global print level                                               MEDIUM
 GLOBAL| MPI I/O enabled                                                       T
 GLOBAL| Total number of message passing processes                             1
 GLOBAL| Number of distributed systems (nodes)                                 1
 GLOBAL| Number of threads for this process                                    1
 GLOBAL| This output is from process                                           0
 GLOBAL| OpenMP stack size per thread (OMP_STACKSIZE)                    default
 GLOBAL| CPU model name                                       AMD EPYC Processor
 GLOBAL| CPUID                                                              1002

 MEMORY| system memory details [Kb]
 MEMORY|                        rank 0           min           max       average
 MEMORY| MemTotal            528104804     528104804     528104804     528104804
 MEMORY| MemFree             507974348     507974348     507974348     507974348
 MEMORY| Buffers                    20            20            20            20
 MEMORY| Cached               15190264      15190264      15190264      15190264
 MEMORY| Slab                  2494560       2494560       2494560       2494560
 MEMORY| SReclaimable          1119956       1119956       1119956       1119956
 MEMORY| MemLikelyFree       524284588     524284588     524284588     524284588


 *** WARNING in environment.F:1098 :: FFT library FFTW3 is not available. ***
 *** Trying FFT library FFTSG.                                            ***


 *** Fundamental physical constants (SI units) ***

 *** Literature: B. J. Mohr and B. N. Taylor,
 ***             CODATA recommended values of the fundamental physical
 ***             constants: 2006, Web Version 5.1
 ***             http://physics.nist.gov/constants

 Speed of light in vacuum [m/s]                             2.99792458000000E+08
 Magnetic constant or permeability of vacuum [N/A**2]       1.25663706143592E-06
 Electric constant or permittivity of vacuum [F/m]          8.85418781762039E-12
 Planck constant (h) [J*s]                                  6.62606896000000E-34
 Planck constant (h-bar) [J*s]                              1.05457162825177E-34
 Elementary charge [C]                                      1.60217648700000E-19
 Electron mass [kg]                                         9.10938215000000E-31
 Electron g factor [ ]                                     -2.00231930436220E+00
 Proton mass [kg]                                           1.67262163700000E-27
 Fine-structure constant                                    7.29735253760000E-03
 Rydberg constant [1/m]                                     1.09737315685270E+07
 Avogadro constant [1/mol]                                  6.02214179000000E+23
 Boltzmann constant [J/K]                                   1.38065040000000E-23
 Atomic mass unit [kg]                                      1.66053878200000E-27
 Bohr radius [m]                                            5.29177208590000E-11

 *** Conversion factors ***

 [u] -> [a.u.]                                              1.82288848426455E+03
 [Angstrom] -> [Bohr] = [a.u.]                              1.88972613288564E+00
 [a.u.] = [Bohr] -> [Angstrom]                              5.29177208590000E-01
 [a.u.] -> [s]                                              2.41888432650478E-17
 [a.u.] -> [fs]                                             2.41888432650478E-02
 [a.u.] -> [J]                                              4.35974393937059E-18
 [a.u.] -> [N]                                              8.23872205491840E-08
 [a.u.] -> [K]                                              3.15774647902944E+05
 [a.u.] -> [kJ/mol]                                         2.62549961709828E+03
 [a.u.] -> [kcal/mol]                                       6.27509468713739E+02
 [a.u.] -> [Pa]                                             2.94210107994716E+13
 [a.u.] -> [bar]                                            2.94210107994716E+08
 [a.u.] -> [atm]                                            2.90362800883016E+08
 [a.u.] -> [eV]                                             2.72113838565563E+01
 [a.u.] -> [Hz]                                             6.57968392072181E+15
 [a.u.] -> [1/cm] (wave numbers)                            2.19474631370540E+05
 [a.u./Bohr**2] -> [1/cm]                                   5.14048714338585E+03
 

 CELL| Volume [angstrom^3]:                                         64000.000000
 CELL| Vector a [angstrom]:      40.000     0.000     0.000   |a| =    40.000000
 CELL| Vector b [angstrom]:       0.000    40.000     0.000   |b| =    40.000000
 CELL| Vector c [angstrom]:       0.000     0.000    40.000   |c| =    40.000000
 CELL| Angle (b,c), alpha [degree]:                                    90.000000
 CELL| Angle (a,c), beta  [degree]:                                    90.000000
 CELL| Angle (a,b), gamma [degree]:                                    90.000000
 CELL| Numerically orthorhombic:                                             YES
 CELL| Periodicity                                                           XYZ

 CELL_REF| Volume [angstrom^3]:                                     64000.000000
 CELL_REF| Vector a [angstrom    40.000     0.000     0.000   |a| =    40.000000
 CELL_REF| Vector b [angstrom     0.000    40.000     0.000   |b| =    40.000000
 CELL_REF| Vector c [angstrom     0.000     0.000    40.000   |c| =    40.000000
 CELL_REF| Angle (b,c), alpha [degree]:                                90.000000
 CELL_REF| Angle (a,c), beta  [degree]:                                90.000000
 CELL_REF| Angle (a,b), gamma [degree]:                                90.000000
 CELL_REF| Numerically orthorhombic:                                         YES
 CELL_REF| Periodicity                                                       XYZ

 GENERATE|  Preliminary Number of Bonds generated:                             0
 GENERATE|  Achieved consistency in connectivity generation.


                  #####   #####        #     #   #     #       #          
                 #     # #     #      #    ##### #     #   # #####  ####  
                 #     # #           #       #   ###   #       #   #    # 
                 #     #  #####     #        #   #  #  #   #   #   ###### 
                 #   # #       #   #         #   #   # #   #   #   #      
                 #    #  #     #  #          #   #  #  # # #   #    #   # 
                  #### #  #####  #           #   ###   ##  #   #     ###  

                                     g-xTB   
                                 Version 0.0                       
                            Johann V. Pototschnig                  

                tblite provider: SAVE
                tblite source revision: 15915c9435644eb257178ca8f8bf7220c38b1a84
                g-xTB support: enabled

 xTB| Parameter file                                             xTB1_parameters
 xTB| Basis expansion STO-NG                                                   6
 xTB| Basis expansion STO-NG for Hydrogen                                      4
 xTB| Repulsive pair potential accuracy                               0.1000E-09
 xTB| Repulsive enhancement factor                                      0.000000
 xTB| Halogen interaction potential                                            T
 xTB| Halogen interaction potential cutoff radius                         20.000
 xTB| Nonbonded interactions                                                   F
 xTB| vdW potential type:                                              DFTD3(BJ)
 xTB| D3 Dispersion: Parameter                                         dftd3.dat
 xTB| Huckel constants ks kp kd                        1.850     2.250     2.000
 xTB| Huckel constants ksp k2sh                                  2.080     2.850
 xTB| Mataga-Nishimoto exponent                                            2.000
 xTB| Repulsion potential exponent                                         1.500
 xTB| Coordination number scaling kcn(s) kcn(p) kc     0.006    -0.003    -0.005
 xTB| Electronegativity scaling                                           -0.007
 xTB| Halogen potential scaling kxr kx2                          1.300     0.440
 xTB| SCC mixer:                                                       TBLITE
 xTB| tblite accuracy:                                                 1.000E-01
 xTB| tblite SCC mixer damping:                                            0.400
 xTB| tblite SCC mixer iterations:                                           300
 xTB| tblite SCC mixer memory:                                               300
 xTB| tblite SCC mixer solver:                                         GVD
 xTB| tblite SCC mixer omega0:                                         1.000E-02
 xTB| tblite SCC mixer min weight:                                     1.000E+00
 xTB| tblite SCC mixer max weight:                                     1.000E+05
 xTB| tblite SCC mixer weight factor:                                  1.000E-02




 ATOMIC KIND INFORMATION

  1. Atomic kind: H                                     Number of atoms:       2

     Orbital Basis Set                                                 H _STO-8G

       Number of orbital shell sets:                                           1
       Number of orbital shells:                                               1
       Number of primitive Cartesian functions:                                8
       Number of Cartesian basis functions:                                    1
       Number of spherical basis functions:                                    1
       Norm type:                                                              3

       Normalised Cartesian orbitals:

                        Set   Shell   Orbital            Exponent    Coefficient

                          1       1    1s              337.005012       0.037374
                                                        53.310531       0.063272
                                                        12.208253       0.115774
                                                         3.418827       0.175156
                                                         1.108790       0.218995
                                                         0.478718       0.126311
                                                         0.212137       0.088533
                                                         0.069058       0.001978

     AE Potential information for                                       Hydrogen

       Description:                                       Bare Coulomb Potential
                                                              Full atomic charge

       Gaussian exponent of the core charge distribution:              12.500000
       Electronic configuration (s p d ...):                       1   0   0   0

  2. Atomic kind: O                                     Number of atoms:       1

     Orbital Basis Set                                                 O _STO-6G

       Number of orbital shell sets:                                           2
       Number of orbital shells:                                               2
       Number of primitive Cartesian functions:                               12
       Number of Cartesian basis functions:                                    4
       Number of spherical basis functions:                                    4
       Norm type:                                                              3

       Normalised Cartesian orbitals:

                        Set   Shell   Orbital            Exponent    Coefficient

                          1       1    1s                3.483595      -1.312778
                                                         2.859866       1.114640
                                                         0.740681       0.294469
                                                         0.344927       0.081374
                                                         0.261979       0.039450
                                                         0.094616       0.012404

                          2       1    2px              37.641471       1.473846
                                                         9.713089       1.793230
                                                         3.137177       1.302657
                                                         1.121381       0.632971
                                                         0.398078       0.183037
                                                         0.123048       0.019201
                          2       1    2py              37.641471       1.473846
                                                         9.713089       1.793230
                                                         3.137177       1.302657
                                                         1.121381       0.632971
                                                         0.398078       0.183037
                                                         0.123048       0.019201
                          2       1    2pz              37.641471       1.473846
                                                         9.713089       1.793230
                                                         3.137177       1.302657
                                                         1.121381       0.632971
                                                         0.398078       0.183037
                                                         0.123048       0.019201

     AE Potential information for                                         Oxygen

       Description:                                       Bare Coulomb Potential
                                                             Valence charge only

       Gaussian exponent of the core charge distribution:               3.753049
       Electronic configuration (s p d ...):                       2   4   0   0


 MOLECULE KIND INFORMATION


 All atoms are their own molecule, skipping detailed information


 TOTAL NUMBERS AND MAXIMUM NUMBERS

  Total number of            - Atomic kinds:                                   2
                             - Atoms:                                          3
                             - Shell sets:                                     4
                             - Shells:                                         4
                             - Primitive Cartesian functions:                 28
                             - Cartesian basis functions:                      6
                             - Spherical basis functions:                      6

  Maximum angular momentum of the orbital basis functions:                     1


 MODULE QUICKSTEP: ATOMIC COORDINATES IN ANGSTROM

   Atom Kind Element         X             Y             Z       Z(eff)     Mass
      1    1 H     1     -0.012165      0.000000     -0.932352   1.0000   1.0079
      2    1 H     1      0.875098      0.000000      0.321998   1.0000   1.0079
      3    2 O     8     -0.054364      0.000000      0.038451   6.0000  15.9994



 SCF PARAMETERS         Density guess:                                     MOPAC
                        --------------------------------------------------------
                        max_scf:                                             300
                        max_scf_history:                                       0
                        max_diis:                                              4
                        --------------------------------------------------------
                        eps_scf:                                        1.00E-10
                        eps_scf_history:                                0.00E+00
                        eps_diis:                                       1.00E-01
                        eps_eigval:                                     1.00E-05
                        --------------------------------------------------------
                        level_shift [a.u.]:                             0.000000
                        added MOs                                         2    0
                        --------------------------------------------------------
                        Mixing method:                           DIRECT_P_MIXING
                        --------------------------------------------------------
                        No outer SCF

 PW_GRID| Information for grid number                                          1
 PW_GRID| Cutoff [a.u.]                                                      1.0
 PW_GRID| spherical cutoff:                                                   NO
 PW_GRID|   Bounds   1            -18      17                Points:          36
 PW_GRID|   Bounds   2            -18      17                Points:          36
 PW_GRID|   Bounds   3            -18      17                Points:          36
 PW_GRID| Volume element (a.u.^3)   9.257         Volume (a.u.^3)    431893.4133
 PW_GRID| Grid span                                                    FULLSPACE

 POISSON| Solver                                                        PERIODIC
 POISSON| Periodicity                                                        XYZ

 RS_GRID| Information for grid number                                          1
 RS_GRID|   Bounds   1            -18      17                Points:          36
 RS_GRID|   Bounds   2            -18      17                Points:          36
 RS_GRID|   Bounds   3            -18      17                Points:          36

 Extrapolation method: initial_guess

 Number of electrons:                                                          8
 Number of occupied orbitals:                                                  4
 Number of molecular orbitals:                                                 6

 Number of orbital functions:                                                  6
 Number of independent orbital functions:                                      6


 SCF WAVEFUNCTION OPTIMIZATION

  Step     Update method      Time    Convergence         Total energy    Change
  ------------------------------------------------------------------------------
     1 GXTB-Raw    0.10E+01    0.0     0.73255892       -76.4105115629 -7.64E+01
     2 GXTB-Simple 0.20E+00    0.0     0.05394594       -76.4238302044 -1.33E-02
     3 GXTB-Simple 0.20E+00    0.0     0.03724647       -76.4305299425 -6.70E-03
     4 GXTB-FDIIS  0.10E+01    0.0     0.07302180       -76.4373390986 -6.81E-03
     5 GXTB-FDIIS  0.10E+01    0.0     0.00610134       -76.4373888580 -4.98E-05
     6 GXTB-FDIIS  0.10E+01    0.0     0.00107408       -76.4373894003 -5.42E-07
     7 GXTB-FDIIS  0.10E+01    0.0     0.00005978       -76.4373894021 -1.87E-09
     8 GXTB-FDIIS  0.10E+01    0.0     0.00000380       -76.4373894021 -8.81E-12
     9 GXTB-FDIIS  0.10E+01    0.0     0.00000007       -76.4373894021 -2.84E-14
    10 GXTB-FDIIS  0.10E+01    0.0     0.00000022       -76.4373894021 -2.84E-14
    11 GXTB-FDIIS  0.10E+01    0.0     8.5093E-11       -76.4373894021  0.00E+00

  *** SCF run converged in    11 steps ***


  Core Hamiltonian energy:                                     -6.22697622583503
  Repulsive potential energy:                                   0.31827246558597
  Electrostatic energy:                                         0.14234308071768
  Self-consistent dispersion energy:                           -0.00004482438679
  Non-self consistent dispersion energy:                        0.00000029898137
  Correction for halogen bonding:                               0.00000000000000

  Total energy:                                               -76.43738940213733


 MULLIKEN POPULATION ANALYSIS

  # Atom   Element   Kind        Atomic population                    Net charge
       1     H          1                 0.685476                      0.314524
       2     H          1                 0.685478                      0.314522
       3     O          2                 6.629046                     -0.629046
 # Total charge                           8.000000                      0.000000


 tblite reference CLI check
 Executable: tblite
 Method:     gxtb
 Guess:      auto
 Solver:     gvd
 Spin-pol.:  F
 Grad file:  H2O_stress_L40_cli.grad
 JSON file:  H2O_stress_L40_cli.json
 Log file:   H2O_stress_L40_cli.log
 Energy CP2K/CLI/absdiff:   -7.643738940214E+01   -7.643738940227E+01    1.367794766338E-10
 Gradient diff sum/max:    1.322463234500E-07    3.686730107831E-08
 Virial diff sum/max:    1.151121055375E-07    5.544785427851E-08

 ENERGY| Total FORCE_EVAL ( QS ) energy [hartree]            -76.437389402137327

 -------------------------------------------------------------------------------
 ----                             MULTIGRID INFO                            ----
 -------------------------------------------------------------------------------
 total grid count     :           420              cutoff [a.u.]            1.00

 PW_GRID| Information for grid number                                          2
 PW_GRID| Cutoff [a.u.]                                                      1.0
 PW_GRID| spherical cutoff:                                                   NO
 PW_GRID|   Bounds   1            -18      17                Points:          36
 PW_GRID|   Bounds   2            -18      17                Points:          36
 PW_GRID|   Bounds   3            -18      17                Points:          36
 PW_GRID| Volume element (a.u.^3)   9.257         Volume (a.u.^3)    431893.9847
 PW_GRID| Grid span                                                    FULLSPACE

 POISSON| Solver                                                        PERIODIC
 POISSON| Periodicity                                                        XYZ

 RS_GRID| Information for grid number                                          2
 RS_GRID|   Bounds   1            -18      17                Points:          36
 RS_GRID|   Bounds   2            -18      17                Points:          36
 RS_GRID|   Bounds   3            -18      17                Points:          36

 Parameters for the always stable predictor-corrector (ASPC) method:

  ASPC order: 0

  B(1) =   1.000000

 Extrapolation method: ASPC

 Number of electrons:                                                          8
 Number of occupied orbitals:                                                  4
 Number of molecular orbitals:                                                 6

 Number of orbital functions:                                                  6
 Number of independent orbital functions:                                      6


 SCF WAVEFUNCTION OPTIMIZATION

  Step     Update method      Time    Convergence         Total energy    Change
  ------------------------------------------------------------------------------
     1 GXTB-Raw    0.10E+01    0.0     0.00000046       -76.4373893812 -7.64E+01
     2 GXTB-Simple 0.20E+00    0.0     0.00000009       -76.4373893812 -2.84E-14
     3 GXTB-Simple 0.20E+00    0.0     0.00000008       -76.4373893812 -2.84E-14
     4 GXTB-FDIIS  0.10E+01    0.0     0.00000036       -76.4373893812 -4.26E-14
     5 GXTB-FDIIS  0.10E+01    0.0     0.00000001       -76.4373893812  0.00E+00
     6 GXTB-FDIIS  0.10E+01    0.0     9.8000E-09       -76.4373893812  0.00E+00
     7 GXTB-FDIIS  0.10E+01    0.0     2.9657E-10       -76.4373893812  0.00E+00
     8 GXTB-FDIIS  0.10E+01    0.0     3.3134E-11       -76.4373893812  0.00E+00

  *** SCF run converged in     8 steps ***


  Core Hamiltonian energy:                                     -6.22697539057275
  Repulsive potential energy:                                   0.31827166985225
  Electrostatic energy:                                         0.14234308418409
  Self-consistent dispersion energy:                           -0.00004482445736
  Non-self consistent dispersion energy:                        0.00000029898247
  Correction for halogen bonding:                               0.00000000000000

  Total energy:                                               -76.43738938120983


 MULLIKEN POPULATION ANALYSIS

  # Atom   Element   Kind        Atomic population                    Net charge
       1     H          1                 0.685476                      0.314524
       2     H          1                 0.685478                      0.314522
       3     O          2                 6.629045                     -0.629045
 # Total charge                           8.000000                      0.000000


 tblite reference CLI check
 Executable: tblite
 Method:     gxtb
 Guess:      auto
 Solver:     gvd
 Spin-pol.:  F
 Grad file:  H2O_stress_L40_cli.grad
 JSON file:  H2O_stress_L40_cli.json
 Log file:   H2O_stress_L40_cli.log
 Energy CP2K/CLI/absdiff:   -7.643738938121E+01   -7.643738938135E+01    1.367936874885E-10
 Gradient diff sum/max:    2.449878798233E-06    9.156227905593E-07
 Virial diff sum/max:    3.216320419772E-02    1.581969574719E-02
 tblite reference CLI deviation exceeded ERROR_LIMIT =   1.0000E-05

 ENERGY| Total FORCE_EVAL ( QS ) energy [hartree]            -76.437389381209826

 -------------------------------------------------------------------------------
 ----                             MULTIGRID INFO                            ----
 -------------------------------------------------------------------------------
 total grid count     :           420              cutoff [a.u.]            1.00

 PW_GRID| Information for grid number                                          3
 PW_GRID| Cutoff [a.u.]                                                      1.0
 PW_GRID| spherical cutoff:                                                   NO
 PW_GRID|   Bounds   1            -18      17                Points:          36
 PW_GRID|   Bounds   2            -18      17                Points:          36
 PW_GRID|   Bounds   3            -18      17                Points:          36
 PW_GRID| Volume element (a.u.^3)   9.257         Volume (a.u.^3)    431892.8419
 PW_GRID| Grid span                                                    FULLSPACE

 POISSON| Solver                                                        PERIODIC
 POISSON| Periodicity                                                        XYZ

 RS_GRID| Information for grid number                                          3
 RS_GRID|   Bounds   1            -18      17                Points:          36
 RS_GRID|   Bounds   2            -18      17                Points:          36
 RS_GRID|   Bounds   3            -18      17                Points:          36

 Parameters for the always stable predictor-corrector (ASPC) method:

  ASPC order: 0

  B(1) =   2.000000
  B(2) =  -1.000000

 Extrapolation method: ASPC

 Number of electrons:                                                          8
 Number of occupied orbitals:                                                  4
 Number of molecular orbitals:                                                 6

 Number of orbital functions:                                                  6
 Number of independent orbital functions:                                      6


 SCF WAVEFUNCTION OPTIMIZATION

  Step     Update method      Time    Convergence         Total energy    Change
  ------------------------------------------------------------------------------
     1 GXTB-Raw    0.10E+01    0.0     0.00000092       -76.4373894231 -7.64E+01
     2 GXTB-Simple 0.20E+00    0.0     0.00000019       -76.4373894231 -1.28E-13
     3 GXTB-Simple 0.20E+00    0.0     0.00000016       -76.4373894231 -7.11E-14
     4 GXTB-FDIIS  0.10E+01    0.0     0.00000073       -76.4373894231 -1.71E-13
     5 GXTB-FDIIS  0.10E+01    0.0     0.00000003       -76.4373894231  0.00E+00
     6 GXTB-FDIIS  0.10E+01    0.0     0.00000002       -76.4373894231  0.00E+00
     7 GXTB-FDIIS  0.10E+01    0.0     5.9313E-10       -76.4373894231  0.00E+00
     8 GXTB-FDIIS  0.10E+01    0.0     6.6267E-11       -76.4373894231  0.00E+00

  *** SCF run converged in     8 steps ***


  Core Hamiltonian energy:                                     -6.22697706110572
  Repulsive potential energy:                                   0.31827326132318
  Electrostatic energy:                                         0.14234307725564
  Self-consistent dispersion energy:                           -0.00004482431622
  Non-self consistent dispersion energy:                        0.00000029898027
  Correction for halogen bonding:                               0.00000000000000

  Total energy:                                               -76.43738942306263


 MULLIKEN POPULATION ANALYSIS

  # Atom   Element   Kind        Atomic population                    Net charge
       1     H          1                 0.685476                      0.314524
       2     H          1                 0.685478                      0.314522
       3     O          2                 6.629046                     -0.629046
 # Total charge                           8.000000                      0.000000


 tblite reference CLI check
 Executable: tblite
 Method:     gxtb
 Guess:      auto
 Solver:     gvd
 Spin-pol.:  F
 Grad file:  H2O_stress_L40_cli.grad
 JSON file:  H2O_stress_L40_cli.json
 Log file:   H2O_stress_L40_cli.log
 Energy CP2K/CLI/absdiff:   -7.643738942306E+01   -7.643738942320E+01    1.367794766338E-10
 Gradient diff sum/max:    2.547587346824E-06    9.893638183694E-07
 Virial diff sum/max:    3.216152065839E-02    1.581633203006E-02
 tblite reference CLI deviation exceeded ERROR_LIMIT =   1.0000E-05

 ENERGY| Total FORCE_EVAL ( QS ) energy [hartree]            -76.437389423062626

 -------------------------------------------------------------------------------
 ----                             MULTIGRID INFO                            ----
 -------------------------------------------------------------------------------
 total grid count     :           420              cutoff [a.u.]            1.00

 PW_GRID| Information for grid number                                          4
 PW_GRID| Cutoff [a.u.]                                                      1.0
 PW_GRID| spherical cutoff:                                                   NO
 PW_GRID|   Bounds   1            -18      17                Points:          36
 PW_GRID|   Bounds   2            -18      17                Points:          36
 PW_GRID|   Bounds   3            -18      17                Points:          36
 PW_GRID| Volume element (a.u.^3)   9.257         Volume (a.u.^3)    431893.4133
 PW_GRID| Grid span                                                    FULLSPACE

 POISSON| Solver                                                        PERIODIC
 POISSON| Periodicity                                                        XYZ

 RS_GRID| Information for grid number                                          4
 RS_GRID|   Bounds   1            -18      17                Points:          36
 RS_GRID|   Bounds   2            -18      17                Points:          36
 RS_GRID|   Bounds   3            -18      17                Points:          36

 Parameters for the always stable predictor-corrector (ASPC) method:

  ASPC order: 1

  B(1) =   2.500000
  B(2) =  -2.000000
  B(3) =   0.500000

 Extrapolation method: ASPC

 Number of electrons:                                                          8
 Number of occupied orbitals:                                                  4
 Number of molecular orbitals:                                                 6

 Number of orbital functions:                                                  6
 Number of independent orbital functions:                                      6


 SCF WAVEFUNCTION OPTIMIZATION

  Step     Update method      Time    Convergence         Total energy    Change
  ------------------------------------------------------------------------------
     1 GXTB-Raw    0.10E+01    0.0     0.00000046       -76.4373894021 -7.64E+01
     2 GXTB-Simple 0.20E+00    0.0     0.00000009       -76.4373894021 -2.84E-14
     3 GXTB-Simple 0.20E+00    0.0     0.00000008       -76.4373894021 -1.42E-14
     4 GXTB-FDIIS  0.10E+01    0.0     0.00000036       -76.4373894021 -2.84E-14
     5 GXTB-FDIIS  0.10E+01    0.0     0.00000001       -76.4373894021 -1.42E-14
     6 GXTB-FDIIS  0.10E+01    0.0     9.8001E-09       -76.4373894021  1.42E-14
     7 GXTB-FDIIS  0.10E+01    0.0     2.9656E-10       -76.4373894021  0.00E+00
     8 GXTB-FDIIS  0.10E+01    0.0     3.3133E-11       -76.4373894021 -1.42E-14

  *** SCF run converged in     8 steps ***


  Core Hamiltonian energy:                                     -6.22697622583864
  Repulsive potential energy:                                   0.31827246558594
  Electrostatic energy:                                         0.14234308071980
  Self-consistent dispersion energy:                           -0.00004482438679
  Non-self consistent dispersion energy:                        0.00000029898137
  Correction for halogen bonding:                               0.00000000000000

  Total energy:                                               -76.43738940213733


 MULLIKEN POPULATION ANALYSIS

  # Atom   Element   Kind        Atomic population                    Net charge
       1     H          1                 0.685476                      0.314524
       2     H          1                 0.685478                      0.314522
       3     O          2                 6.629046                     -0.629046
 # Total charge                           8.000000                      0.000000


 tblite reference CLI check
 Executable: tblite
 Method:     gxtb
 Guess:      auto
 Solver:     gvd
 Spin-pol.:  F
 Grad file:  H2O_stress_L40_cli.grad
 JSON file:  H2O_stress_L40_cli.json
 Log file:   H2O_stress_L40_cli.log
 Energy CP2K/CLI/absdiff:   -7.643738940214E+01   -7.643738940227E+01    1.367794766338E-10
 Gradient diff sum/max:    1.322523462084E-07    3.686729848663E-08
 Virial diff sum/max:    3.216236243236E-02    1.581801389203E-02
 tblite reference CLI deviation exceeded ERROR_LIMIT =   1.0000E-05

 ENERGY| Total FORCE_EVAL ( QS ) energy [hartree]            -76.437389402137327

 -------------------------------------------------------------------------------
 ----                             MULTIGRID INFO                            ----
 -------------------------------------------------------------------------------
 total grid count     :           420              cutoff [a.u.]            1.00

 PW_GRID| Information for grid number                                          5
 PW_GRID| Cutoff [a.u.]                                                      1.0
 PW_GRID| spherical cutoff:                                                   NO
 PW_GRID|   Bounds   1            -18      17                Points:          36
 PW_GRID|   Bounds   2            -18      17                Points:          36
 PW_GRID|   Bounds   3            -18      17                Points:          36
 PW_GRID| Volume element (a.u.^3)   9.257         Volume (a.u.^3)    431893.4133
 PW_GRID| Grid span                                                    FULLSPACE

 POISSON| Solver                                                        PERIODIC
 POISSON| Periodicity                                                        XYZ

 RS_GRID| Information for grid number                                          5
 RS_GRID|   Bounds   1            -18      17                Points:          36
 RS_GRID|   Bounds   2            -18      17                Points:          36
 RS_GRID|   Bounds   3            -18      17                Points:          36

 Parameters for the always stable predictor-corrector (ASPC) method:

  ASPC order: 2

  B(1) =   2.800000
  B(2) =  -2.800000
  B(3) =   1.200000
  B(4) =  -0.200000

 Extrapolation method: ASPC

 Number of electrons:                                                          8
 Number of occupied orbitals:                                                  4
 Number of molecular orbitals:                                                 6

 Number of orbital functions:                                                  6
 Number of independent orbital functions:                                      6


 SCF WAVEFUNCTION OPTIMIZATION

  Step     Update method      Time    Convergence         Total energy    Change
  ------------------------------------------------------------------------------
     1 GXTB-Raw    0.10E+01    0.0     5.2003E-12       -76.4373894021 -7.64E+01

  *** SCF run converged in     1 steps ***


  Core Hamiltonian energy:                                     -6.22697622583866
  Repulsive potential energy:                                   0.31827246558594
  Electrostatic energy:                                         0.14234308071982
  Self-consistent dispersion energy:                           -0.00004482438679
  Non-self consistent dispersion energy:                        0.00000029898137
  Correction for halogen bonding:                               0.00000000000000

  Total energy:                                               -76.43738940213731


 MULLIKEN POPULATION ANALYSIS

  # Atom   Element   Kind        Atomic population                    Net charge
       1     H          1                 0.685476                      0.314524
       2     H          1                 0.685478                      0.314522
       3     O          2                 6.629046                     -0.629046
 # Total charge                           8.000000                     -0.000000


 tblite reference CLI check
 Executable: tblite
 Method:     gxtb
 Guess:      auto
 Solver:     gvd
 Spin-pol.:  F
 Grad file:  H2O_stress_L40_cli.grad
 JSON file:  H2O_stress_L40_cli.json
 Log file:   H2O_stress_L40_cli.log
 Energy CP2K/CLI/absdiff:   -7.643738940214E+01   -7.643738940227E+01    1.367936874885E-10
 Gradient diff sum/max:    1.322523461110E-07    3.686729848663E-08
 Virial diff sum/max:    3.216236243236E-02    1.581801389203E-02
 tblite reference CLI deviation exceeded ERROR_LIMIT =   1.0000E-05

 ENERGY| Total FORCE_EVAL ( QS ) energy [hartree]            -76.437389402137313

 -------------------------------------------------------------------------------
 ----                             MULTIGRID INFO                            ----
 -------------------------------------------------------------------------------
 total grid count     :           420              cutoff [a.u.]            1.00

 PW_GRID| Information for grid number                                          6
 PW_GRID| Cutoff [a.u.]                                                      1.0
 PW_GRID| spherical cutoff:                                                   NO
 PW_GRID|   Bounds   1            -18      17                Points:          36
 PW_GRID|   Bounds   2            -18      17                Points:          36
 PW_GRID|   Bounds   3            -18      17                Points:          36
 PW_GRID| Volume element (a.u.^3)   9.257         Volume (a.u.^3)    431893.4133
 PW_GRID| Grid span                                                    FULLSPACE

 POISSON| Solver                                                        PERIODIC
 POISSON| Periodicity                                                        XYZ

 RS_GRID| Information for grid number                                          6
 RS_GRID|   Bounds   1            -18      17                Points:          36
 RS_GRID|   Bounds   2            -18      17                Points:          36
 RS_GRID|   Bounds   3            -18      17                Points:          36

 Parameters for the always stable predictor-corrector (ASPC) method:

  ASPC order: 3

  B(1) =   3.000000
  B(2) =  -3.428571
  B(3) =   1.928571
  B(4) =  -0.571429
  B(5) =   0.071429

 Extrapolation method: ASPC

 Number of electrons:                                                          8
 Number of occupied orbitals:                                                  4
 Number of molecular orbitals:                                                 6

 Number of orbital functions:                                                  6
 Number of independent orbital functions:                                      6


 SCF WAVEFUNCTION OPTIMIZATION

  Step     Update method      Time    Convergence         Total energy    Change
  ------------------------------------------------------------------------------
     1 GXTB-Raw    0.10E+01    0.0     0.00000020       -76.4373894027 -7.64E+01
     2 GXTB-Simple 0.20E+00    0.0     0.00000007       -76.4373894027 -2.84E-14
     3 GXTB-Simple 0.20E+00    0.0     0.00000006       -76.4373894027 -1.42E-14
     4 GXTB-FDIIS  0.10E+01    0.0     0.00000029       -76.4373894027 -2.84E-14
     5 GXTB-FDIIS  0.10E+01    0.0     0.00000001       -76.4373894027  0.00E+00
     6 GXTB-FDIIS  0.10E+01    0.0     1.7512E-09       -76.4373894027  0.00E+00
     7 GXTB-FDIIS  0.10E+01    0.0     2.2649E-10       -76.4373894027  0.00E+00
     8 GXTB-FDIIS  0.10E+01    0.0     2.1703E-11       -76.4373894027  1.42E-14

  *** SCF run converged in     8 steps ***


  Core Hamiltonian energy:                                     -6.22697609350727
  Repulsive potential energy:                                   0.31827225124398
  Electrostatic energy:                                         0.14234310880306
  Self-consistent dispersion energy:                           -0.00004482443002
  Non-self consistent dispersion energy:                        0.00000029898035
  Correction for halogen bonding:                               0.00000000000000

  Total energy:                                               -76.43738940272480


 MULLIKEN POPULATION ANALYSIS

  # Atom   Element   Kind        Atomic population                    Net charge
       1     H          1                 0.685476                      0.314524
       2     H          1                 0.685478                      0.314522
       3     O          2                 6.629046                     -0.629046
 # Total charge                           8.000000                      0.000000


 tblite reference CLI check
 Executable: tblite
 Method:     gxtb
 Guess:      auto
 Solver:     gvd
 Spin-pol.:  F
 Grad file:  H2O_stress_L40_cli.grad
 JSON file:  H2O_stress_L40_cli.json
 Log file:   H2O_stress_L40_cli.log
 Energy CP2K/CLI/absdiff:   -7.643738940272E+01   -7.643738940286E+01    1.368078983432E-10
 Gradient diff sum/max:    9.841969674482E-07    2.565877766699E-07
 Virial diff sum/max:    3.216219837777E-02    1.581850683989E-02
 tblite reference CLI deviation exceeded ERROR_LIMIT =   1.0000E-05

 ENERGY| Total FORCE_EVAL ( QS ) energy [hartree]            -76.437389402724804

 -------------------------------------------------------------------------------
 ----                             MULTIGRID INFO                            ----
 -------------------------------------------------------------------------------
 total grid count     :           420              cutoff [a.u.]            1.00

 PW_GRID| Information for grid number                                          7
 PW_GRID| Cutoff [a.u.]                                                      1.0
 PW_GRID| spherical cutoff:                                                   NO
 PW_GRID|   Bounds   1            -18      17                Points:          36
 PW_GRID|   Bounds   2            -18      17                Points:          36
 PW_GRID|   Bounds   3            -18      17                Points:          36
 PW_GRID| Volume element (a.u.^3)   9.257         Volume (a.u.^3)    431893.4133
 PW_GRID| Grid span                                                    FULLSPACE

 POISSON| Solver                                                        PERIODIC
 POISSON| Periodicity                                                        XYZ

 RS_GRID| Information for grid number                                          7
 RS_GRID|   Bounds   1            -18      17                Points:          36
 RS_GRID|   Bounds   2            -18      17                Points:          36
 RS_GRID|   Bounds   3            -18      17                Points:          36

 Parameters for the always stable predictor-corrector (ASPC) method:

  ASPC order: 3

  B(1) =   3.000000
  B(2) =  -3.428571
  B(3) =   1.928571
  B(4) =  -0.571429
  B(5) =   0.071429

 Extrapolation method: ASPC

 Number of electrons:                                                          8
 Number of occupied orbitals:                                                  4
 Number of molecular orbitals:                                                 6

 Number of orbital functions:                                                  6
 Number of independent orbital functions:                                      6


 SCF WAVEFUNCTION OPTIMIZATION

  Step     Update method      Time    Convergence         Total energy    Change
  ------------------------------------------------------------------------------
     1 GXTB-Raw    0.10E+01    0.0     0.00000040       -76.4373894015 -7.64E+01
     2 GXTB-Simple 0.20E+00    0.0     0.00000014       -76.4373894015 -8.53E-14
     3 GXTB-Simple 0.20E+00    0.0     0.00000012       -76.4373894015 -5.68E-14
     4 GXTB-FDIIS  0.10E+01    0.0     0.00000059       -76.4373894015 -1.14E-13
     5 GXTB-FDIIS  0.10E+01    0.0     0.00000002       -76.4373894015 -1.42E-14
     6 GXTB-FDIIS  0.10E+01    0.0     3.5023E-09       -76.4373894015  0.00E+00
     7 GXTB-FDIIS  0.10E+01    0.0     4.5299E-10       -76.4373894015  1.42E-14
     8 GXTB-FDIIS  0.10E+01    0.0     4.3409E-11       -76.4373894015  0.00E+00

  *** SCF run converged in     8 steps ***


  Core Hamiltonian energy:                                     -6.22697635816892
  Repulsive potential energy:                                   0.31827267992715
  Electrostatic energy:                                         0.14234305263677
  Self-consistent dispersion energy:                           -0.00004482434355
  Non-self consistent dispersion energy:                        0.00000029898239
  Correction for halogen bonding:                               0.00000000000000

  Total energy:                                               -76.43738940154932


 MULLIKEN POPULATION ANALYSIS

  # Atom   Element   Kind        Atomic population                    Net charge
       1     H          1                 0.685476                      0.314524
       2     H          1                 0.685478                      0.314522
       3     O          2                 6.629045                     -0.629045
 # Total charge                           8.000000                      0.000000


 tblite reference CLI check
 Executable: tblite
 Method:     gxtb
 Guess:      auto
 Solver:     gvd
 Spin-pol.:  F
 Grad file:  H2O_stress_L40_cli.grad
 JSON file:  H2O_stress_L40_cli.json
 Log file:   H2O_stress_L40_cli.log
 Energy CP2K/CLI/absdiff:   -7.643738940155E+01   -7.643738940169E+01    1.367936874885E-10
 Gradient diff sum/max:    1.043006441040E-06    3.163967980981E-07
 Virial diff sum/max:    3.216252648245E-02    1.581752094411E-02
 tblite reference CLI deviation exceeded ERROR_LIMIT =   1.0000E-05

 ENERGY| Total FORCE_EVAL ( QS ) energy [hartree]            -76.437389401549325

 -------------------------------------------------------------------------------
 ----                             MULTIGRID INFO                            ----
 -------------------------------------------------------------------------------
 total grid count     :           420              cutoff [a.u.]            1.00

 PW_GRID| Information for grid number                                          8
 PW_GRID| Cutoff [a.u.]                                                      1.0
 PW_GRID| spherical cutoff:                                                   NO
 PW_GRID|   Bounds   1            -18      17                Points:          36
 PW_GRID|   Bounds   2            -18      17                Points:          36
 PW_GRID|   Bounds   3            -18      17                Points:          36
 PW_GRID| Volume element (a.u.^3)   9.257         Volume (a.u.^3)    431893.4133
 PW_GRID| Grid span                                                    FULLSPACE

 POISSON| Solver                                                        PERIODIC
 POISSON| Periodicity                                                        XYZ

 RS_GRID| Information for grid number                                          8
 RS_GRID|   Bounds   1            -18      17                Points:          36
 RS_GRID|   Bounds   2            -18      17                Points:          36
 RS_GRID|   Bounds   3            -18      17                Points:          36

 Parameters for the always stable predictor-corrector (ASPC) method:

  ASPC order: 3

  B(1) =   3.000000
  B(2) =  -3.428571
  B(3) =   1.928571
  B(4) =  -0.571429
  B(5) =   0.071429

 Extrapolation method: ASPC

 Number of electrons:                                                          8
 Number of occupied orbitals:                                                  4
 Number of molecular orbitals:                                                 6

 Number of orbital functions:                                                  6
 Number of independent orbital functions:                                      6


 SCF WAVEFUNCTION OPTIMIZATION

  Step     Update method      Time    Convergence         Total energy    Change
  ------------------------------------------------------------------------------
     1 GXTB-Raw    0.10E+01    0.0     0.00000029       -76.4373894021 -7.64E+01
     2 GXTB-Simple 0.20E+00    0.0     0.00000012       -76.4373894021 -4.26E-14
     3 GXTB-Simple 0.20E+00    0.0     0.00000010       -76.4373894021 -4.26E-14
     4 GXTB-FDIIS  0.10E+01    0.0     0.00000050       -76.4373894021 -8.53E-14
     5 GXTB-FDIIS  0.10E+01    0.0     0.00000002       -76.4373894021  0.00E+00
     6 GXTB-FDIIS  0.10E+01    0.0     1.9010E-09       -76.4373894021  0.00E+00
     7 GXTB-FDIIS  0.10E+01    0.0     2.0291E-10       -76.4373894021  0.00E+00
     8 GXTB-FDIIS  0.10E+01    0.0     6.6690E-11       -76.4373894021  0.00E+00

  *** SCF run converged in     8 steps ***


  Core Hamiltonian energy:                                     -6.22697622583795
  Repulsive potential energy:                                   0.31827246558543
  Electrostatic energy:                                         0.14234308071888
  Self-consistent dispersion energy:                           -0.00004482438679
  Non-self consistent dispersion energy:                        0.00000029898137
  Correction for halogen bonding:                               0.00000000000000

  Total energy:                                               -76.43738940213731


 MULLIKEN POPULATION ANALYSIS

  # Atom   Element   Kind        Atomic population                    Net charge
       1     H          1                 0.685476                      0.314524
       2     H          1                 0.685478                      0.314522
       3     O          2                 6.629046                     -0.629046
 # Total charge                           8.000000                     -0.000000


 tblite reference CLI check
 Executable: tblite
 Method:     gxtb
 Guess:      auto
 Solver:     gvd
 Spin-pol.:  F
 Grad file:  H2O_stress_L40_cli.grad
 JSON file:  H2O_stress_L40_cli.json
 Log file:   H2O_stress_L40_cli.log
 Energy CP2K/CLI/absdiff:   -7.643738940214E+01   -7.643738940227E+01    1.367936874885E-10
 Gradient diff sum/max:    1.632029487878E-07    3.686668017221E-08
 Virial diff sum/max:    3.216240544154E-02    1.581801389312E-02
 tblite reference CLI deviation exceeded ERROR_LIMIT =   1.0000E-05

 ENERGY| Total FORCE_EVAL ( QS ) energy [hartree]            -76.437389402137313

 -------------------------------------------------------------------------------
 ----                             MULTIGRID INFO                            ----
 -------------------------------------------------------------------------------
 total grid count     :           420              cutoff [a.u.]            1.00

 PW_GRID| Information for grid number                                          9
 PW_GRID| Cutoff [a.u.]                                                      1.0
 PW_GRID| spherical cutoff:                                                   NO
 PW_GRID|   Bounds   1            -18      17                Points:          36
 PW_GRID|   Bounds   2            -18      17                Points:          36
 PW_GRID|   Bounds   3            -18      17                Points:          36
 PW_GRID| Volume element (a.u.^3)   9.257         Volume (a.u.^3)    431893.4133
 PW_GRID| Grid span                                                    FULLSPACE

 POISSON| Solver                                                        PERIODIC
 POISSON| Periodicity                                                        XYZ

 RS_GRID| Information for grid number                                          9
 RS_GRID|   Bounds   1            -18      17                Points:          36
 RS_GRID|   Bounds   2            -18      17                Points:          36
 RS_GRID|   Bounds   3            -18      17                Points:          36

 Parameters for the always stable predictor-corrector (ASPC) method:

  ASPC order: 3

  B(1) =   3.000000
  B(2) =  -3.428571
  B(3) =   1.928571
  B(4) =  -0.571429
  B(5) =   0.071429

 Extrapolation method: ASPC

 Number of electrons:                                                          8
 Number of occupied orbitals:                                                  4
 Number of molecular orbitals:                                                 6

 Number of orbital functions:                                                  6
 Number of independent orbital functions:                                      6


 SCF WAVEFUNCTION OPTIMIZATION

  Step     Update method      Time    Convergence         Total energy    Change
  ------------------------------------------------------------------------------
     1 GXTB-Raw    0.10E+01    0.0     0.00000058       -76.4373894021 -7.64E+01
     2 GXTB-Simple 0.20E+00    0.0     0.00000023       -76.4373894021 -9.95E-14
     3 GXTB-Simple 0.20E+00    0.0     0.00000020       -76.4373894021 -8.53E-14
     4 GXTB-FDIIS  0.10E+01    0.0     0.00000102       -76.4373894021 -2.13E-13
     5 GXTB-FDIIS  0.10E+01    0.0     0.00000004       -76.4373894021  1.42E-14
     6 GXTB-FDIIS  0.10E+01    0.0     9.2326E-10       -76.4373894021 -1.42E-14
     7 GXTB-FDIIS  0.10E+01    0.0     9.3703E-14       -76.4373894021  0.00E+00

  *** SCF run converged in     7 steps ***


  Core Hamiltonian energy:                                     -6.22697622583811
  Repulsive potential energy:                                   0.31827246558541
  Electrostatic energy:                                         0.14234308071982
  Self-consistent dispersion energy:                           -0.00004482438679
  Non-self consistent dispersion energy:                        0.00000029898137
  Correction for halogen bonding:                               0.00000000000000

  Total energy:                                               -76.43738940213731


 MULLIKEN POPULATION ANALYSIS

  # Atom   Element   Kind        Atomic population                    Net charge
       1     H          1                 0.685476                      0.314524
       2     H          1                 0.685478                      0.314522
       3     O          2                 6.629046                     -0.629046
 # Total charge                           8.000000                     -0.000000


 tblite reference CLI check
 Executable: tblite
 Method:     gxtb
 Guess:      auto
 Solver:     gvd
 Spin-pol.:  F
 Grad file:  H2O_stress_L40_cli.grad
 JSON file:  H2O_stress_L40_cli.json
 Log file:   H2O_stress_L40_cli.log
 Energy CP2K/CLI/absdiff:   -7.643738940214E+01   -7.643738940227E+01    1.367936874885E-10
 Gradient diff sum/max:    1.632029488852E-07    3.686668017221E-08
 Virial diff sum/max:    3.216240544154E-02    1.581801389312E-02
 tblite reference CLI deviation exceeded ERROR_LIMIT =   1.0000E-05

 ENERGY| Total FORCE_EVAL ( QS ) energy [hartree]            -76.437389402137313

 -------------------------------------------------------------------------------
 ----                             MULTIGRID INFO                            ----
 -------------------------------------------------------------------------------
 total grid count     :           420              cutoff [a.u.]            1.00

 PW_GRID| Information for grid number                                         10
 PW_GRID| Cutoff [a.u.]                                                      1.0
 PW_GRID| spherical cutoff:                                                   NO
 PW_GRID|   Bounds   1            -18      17                Points:          36
 PW_GRID|   Bounds   2            -18      17                Points:          36
 PW_GRID|   Bounds   3            -18      17                Points:          36
 PW_GRID| Volume element (a.u.^3)   9.257         Volume (a.u.^3)    431893.9847
 PW_GRID| Grid span                                                    FULLSPACE

 POISSON| Solver                                                        PERIODIC
 POISSON| Periodicity                                                        XYZ

 RS_GRID| Information for grid number                                         10
 RS_GRID|   Bounds   1            -18      17                Points:          36
 RS_GRID|   Bounds   2            -18      17                Points:          36
 RS_GRID|   Bounds   3            -18      17                Points:          36

 Parameters for the always stable predictor-corrector (ASPC) method:

  ASPC order: 3

  B(1) =   3.000000
  B(2) =  -3.428571
  B(3) =   1.928571
  B(4) =  -0.571429
  B(5) =   0.071429

 Extrapolation method: ASPC

 Number of electrons:                                                          8
 Number of occupied orbitals:                                                  4
 Number of molecular orbitals:                                                 6

 Number of orbital functions:                                                  6
 Number of independent orbital functions:                                      6


 SCF WAVEFUNCTION OPTIMIZATION

  Step     Update method      Time    Convergence         Total energy    Change
  ------------------------------------------------------------------------------
     1 GXTB-Raw    0.10E+01    0.0     0.00000029       -76.4373894021 -7.64E+01
     2 GXTB-Simple 0.20E+00    0.0     0.00000012       -76.4373894021 -4.26E-14
     3 GXTB-Simple 0.20E+00    0.0     0.00000010       -76.4373894021 -1.42E-14
     4 GXTB-FDIIS  0.10E+01    0.0     0.00000051       -76.4373894021 -4.26E-14
     5 GXTB-FDIIS  0.10E+01    0.0     0.00000002       -76.4373894021 -1.42E-14
     6 GXTB-FDIIS  0.10E+01    0.0     4.6158E-10       -76.4373894021  1.42E-14
     7 GXTB-FDIIS  0.10E+01    0.0     1.1036E-12       -76.4373894021 -1.42E-14

  *** SCF run converged in     7 steps ***


  Core Hamiltonian energy:                                     -6.22697622584077
  Repulsive potential energy:                                   0.31827246558590
  Electrostatic energy:                                         0.14234308072015
  Self-consistent dispersion energy:                           -0.00004482438679
  Non-self consistent dispersion energy:                        0.00000029898137
  Correction for halogen bonding:                               0.00000000000000

  Total energy:                                               -76.43738940213119


 MULLIKEN POPULATION ANALYSIS

  # Atom   Element   Kind        Atomic population                    Net charge
       1     H          1                 0.685476                      0.314524
       2     H          1                 0.685478                      0.314522
       3     O          2                 6.629046                     -0.629046
 # Total charge                           8.000000                      0.000000


 tblite reference CLI check
 Executable: tblite
 Method:     gxtb
 Guess:      auto
 Solver:     gvd
 Spin-pol.:  F
 Grad file:  H2O_stress_L40_cli.grad
 JSON file:  H2O_stress_L40_cli.json
 Log file:   H2O_stress_L40_cli.log
 Energy CP2K/CLI/absdiff:   -7.643738940213E+01   -7.643738940227E+01    1.367794766338E-10
 Gradient diff sum/max:    1.322552387856E-07    3.687067950432E-08
 Virial diff sum/max:    3.216236230995E-02    1.581801388502E-02
 tblite reference CLI deviation exceeded ERROR_LIMIT =   1.0000E-05

 ENERGY| Total FORCE_EVAL ( QS ) energy [hartree]            -76.437389402131188

 -------------------------------------------------------------------------------
 ----                             MULTIGRID INFO                            ----
 -------------------------------------------------------------------------------
 total grid count     :           420              cutoff [a.u.]            1.00

 PW_GRID| Information for grid number                                         11
 PW_GRID| Cutoff [a.u.]                                                      1.0
 PW_GRID| spherical cutoff:                                                   NO
 PW_GRID|   Bounds   1            -18      17                Points:          36
 PW_GRID|   Bounds   2            -18      17                Points:          36
 PW_GRID|   Bounds   3            -18      17                Points:          36
 PW_GRID| Volume element (a.u.^3)   9.257         Volume (a.u.^3)    431892.8419
 PW_GRID| Grid span                                                    FULLSPACE

 POISSON| Solver                                                        PERIODIC
 POISSON| Periodicity                                                        XYZ

 RS_GRID| Information for grid number                                         11
 RS_GRID|   Bounds   1            -18      17                Points:          36
 RS_GRID|   Bounds   2            -18      17                Points:          36
 RS_GRID|   Bounds   3            -18      17                Points:          36

 Parameters for the always stable predictor-corrector (ASPC) method:

  ASPC order: 3

  B(1) =   3.000000
  B(2) =  -3.428571
  B(3) =   1.928571
  B(4) =  -0.571429
  B(5) =   0.071429

 Extrapolation method: ASPC

 Number of electrons:                                                          8
 Number of occupied orbitals:                                                  4
 Number of molecular orbitals:                                                 6

 Number of orbital functions:                                                  6
 Number of independent orbital functions:                                      6


 SCF WAVEFUNCTION OPTIMIZATION

  Step     Update method      Time    Convergence         Total energy    Change
  ------------------------------------------------------------------------------
     1 GXTB-Raw    0.10E+01    0.0     2.2313E-11       -76.4373894021 -7.64E+01

  *** SCF run converged in     1 steps ***


  Core Hamiltonian energy:                                     -6.22697622582933
  Repulsive potential energy:                                   0.31827246558609
  Electrostatic energy:                                         0.14234308071205
  Self-consistent dispersion energy:                           -0.00004482438679
  Non-self consistent dispersion energy:                        0.00000029898137
  Correction for halogen bonding:                               0.00000000000000

  Total energy:                                               -76.43738940214348


 MULLIKEN POPULATION ANALYSIS

  # Atom   Element   Kind        Atomic population                    Net charge
       1     H          1                 0.685476                      0.314524
       2     H          1                 0.685478                      0.314522
       3     O          2                 6.629046                     -0.629046
 # Total charge                           8.000000                     -0.000000


 tblite reference CLI check
 Executable: tblite
 Method:     gxtb
 Guess:      auto
 Solver:     gvd
 Spin-pol.:  F
 Grad file:  H2O_stress_L40_cli.grad
 JSON file:  H2O_stress_L40_cli.json
 Log file:   H2O_stress_L40_cli.log
 Energy CP2K/CLI/absdiff:   -7.643738940214E+01   -7.643738940228E+01    1.367794766338E-10
 Gradient diff sum/max:    1.322373839838E-07    3.686391572381E-08
 Virial diff sum/max:    3.216236254755E-02    1.581801389905E-02
 tblite reference CLI deviation exceeded ERROR_LIMIT =   1.0000E-05

 ENERGY| Total FORCE_EVAL ( QS ) energy [hartree]            -76.437389402143481

 -------------------------------------------------------------------------------
 ----                             MULTIGRID INFO                            ----
 -------------------------------------------------------------------------------
 total grid count     :           420              cutoff [a.u.]            1.00

 PW_GRID| Information for grid number                                         12
 PW_GRID| Cutoff [a.u.]                                                      1.0
 PW_GRID| spherical cutoff:                                                   NO
 PW_GRID|   Bounds   1            -18      17                Points:          36
 PW_GRID|   Bounds   2            -18      17                Points:          36
 PW_GRID|   Bounds   3            -18      17                Points:          36
 PW_GRID| Volume element (a.u.^3)   9.257         Volume (a.u.^3)    431893.4133
 PW_GRID| Grid span                                                    FULLSPACE

 POISSON| Solver                                                        PERIODIC
 POISSON| Periodicity                                                        XYZ

 RS_GRID| Information for grid number                                         12
 RS_GRID|   Bounds   1            -18      17                Points:          36
 RS_GRID|   Bounds   2            -18      17                Points:          36
 RS_GRID|   Bounds   3            -18      17                Points:          36

 Parameters for the always stable predictor-corrector (ASPC) method:

  ASPC order: 3

  B(1) =   3.000000
  B(2) =  -3.428571
  B(3) =   1.928571
  B(4) =  -0.571429
  B(5) =   0.071429

 Extrapolation method: ASPC

 Number of electrons:                                                          8
 Number of occupied orbitals:                                                  4
 Number of molecular orbitals:                                                 6

 Number of orbital functions:                                                  6
 Number of independent orbital functions:                                      6


 SCF WAVEFUNCTION OPTIMIZATION

  Step     Update method      Time    Convergence         Total energy    Change
  ------------------------------------------------------------------------------
     1 GXTB-Raw    0.10E+01    0.0     0.00000030       -76.4373894021 -7.64E+01
     2 GXTB-Simple 0.20E+00    0.0     0.00000012       -76.4373894021 -4.26E-14
     3 GXTB-Simple 0.20E+00    0.0     0.00000010       -76.4373894021 -1.42E-14
     4 GXTB-FDIIS  0.10E+01    0.0     0.00000054       -76.4373894021 -5.68E-14
     5 GXTB-FDIIS  0.10E+01    0.0     0.00000002       -76.4373894021 -1.42E-14
     6 GXTB-FDIIS  0.10E+01    0.0     3.8428E-10       -76.4373894021  0.00E+00
     7 GXTB-FDIIS  0.10E+01    0.0     2.2242E-12       -76.4373894021  1.42E-14

  *** SCF run converged in     7 steps ***


  Core Hamiltonian energy:                                     -6.22697622583804
  Repulsive potential energy:                                   0.31827246558531
  Electrostatic energy:                                         0.14234308071983
  Self-consistent dispersion energy:                           -0.00004482438679
  Non-self consistent dispersion energy:                        0.00000029898137
  Correction for halogen bonding:                               0.00000000000000

  Total energy:                                               -76.43738940213730


 MULLIKEN POPULATION ANALYSIS

  # Atom   Element   Kind        Atomic population                    Net charge
       1     H          1                 0.685476                      0.314524
       2     H          1                 0.685478                      0.314522
       3     O          2                 6.629046                     -0.629046
 # Total charge                           8.000000                      0.000000


 tblite reference CLI check
 Executable: tblite
 Method:     gxtb
 Guess:      auto
 Solver:     gvd
 Spin-pol.:  F
 Grad file:  H2O_stress_L40_cli.grad
 JSON file:  H2O_stress_L40_cli.json
 Log file:   H2O_stress_L40_cli.log
 Energy CP2K/CLI/absdiff:   -7.643738940214E+01   -7.643738940227E+01    1.367936874885E-10
 Gradient diff sum/max:    1.544157897999E-07    3.686726468902E-08
 Virial diff sum/max:    3.216240447932E-02    1.581801389212E-02
 tblite reference CLI deviation exceeded ERROR_LIMIT =   1.0000E-05

 ENERGY| Total FORCE_EVAL ( QS ) energy [hartree]            -76.437389402137299

 -------------------------------------------------------------------------------
 ----                             MULTIGRID INFO                            ----
 -------------------------------------------------------------------------------
 total grid count     :           420              cutoff [a.u.]            1.00

 PW_GRID| Information for grid number                                         13
 PW_GRID| Cutoff [a.u.]                                                      1.0
 PW_GRID| spherical cutoff:                                                   NO
 PW_GRID|   Bounds   1            -18      17                Points:          36
 PW_GRID|   Bounds   2            -18      17                Points:          36
 PW_GRID|   Bounds   3            -18      17                Points:          36
 PW_GRID| Volume element (a.u.^3)   9.257         Volume (a.u.^3)    431893.4133
 PW_GRID| Grid span                                                    FULLSPACE

 POISSON| Solver                                                        PERIODIC
 POISSON| Periodicity                                                        XYZ

 RS_GRID| Information for grid number                                         13
 RS_GRID|   Bounds   1            -18      17                Points:          36
 RS_GRID|   Bounds   2            -18      17                Points:          36
 RS_GRID|   Bounds   3            -18      17                Points:          36

 Parameters for the always stable predictor-corrector (ASPC) method:

  ASPC order: 3

  B(1) =   3.000000
  B(2) =  -3.428571
  B(3) =   1.928571
  B(4) =  -0.571429
  B(5) =   0.071429

 Extrapolation method: ASPC

 Number of electrons:                                                          8
 Number of occupied orbitals:                                                  4
 Number of molecular orbitals:                                                 6

 Number of orbital functions:                                                  6
 Number of independent orbital functions:                                      6


 SCF WAVEFUNCTION OPTIMIZATION

  Step     Update method      Time    Convergence         Total energy    Change
  ------------------------------------------------------------------------------
     1 GXTB-Raw    0.10E+01    0.0     0.00000060       -76.4373894021 -7.64E+01
     2 GXTB-Simple 0.20E+00    0.0     0.00000024       -76.4373894021 -1.42E-13
     3 GXTB-Simple 0.20E+00    0.0     0.00000020       -76.4373894021 -8.53E-14
     4 GXTB-FDIIS  0.10E+01    0.0     0.00000108       -76.4373894021 -2.56E-13
     5 GXTB-FDIIS  0.10E+01    0.0     0.00000004       -76.4373894021  0.00E+00
     6 GXTB-FDIIS  0.10E+01    0.0     7.6900E-10       -76.4373894021  0.00E+00
     7 GXTB-FDIIS  0.10E+01    0.0     8.6153E-14       -76.4373894021  1.42E-14

  *** SCF run converged in     7 steps ***


  Core Hamiltonian energy:                                     -6.22697622583804
  Repulsive potential energy:                                   0.31827246558531
  Electrostatic energy:                                         0.14234308071983
  Self-consistent dispersion energy:                           -0.00004482438679
  Non-self consistent dispersion energy:                        0.00000029898137
  Correction for halogen bonding:                               0.00000000000000

  Total energy:                                               -76.43738940213730


 MULLIKEN POPULATION ANALYSIS

  # Atom   Element   Kind        Atomic population                    Net charge
       1     H          1                 0.685476                      0.314524
       2     H          1                 0.685478                      0.314522
       3     O          2                 6.629046                     -0.629046
 # Total charge                           8.000000                      0.000000


 tblite reference CLI check
 Executable: tblite
 Method:     gxtb
 Guess:      auto
 Solver:     gvd
 Spin-pol.:  F
 Grad file:  H2O_stress_L40_cli.grad
 JSON file:  H2O_stress_L40_cli.json
 Log file:   H2O_stress_L40_cli.log
 Energy CP2K/CLI/absdiff:   -7.643738940214E+01   -7.643738940227E+01    1.367936874885E-10
 Gradient diff sum/max:    1.544157898977E-07    3.686726468902E-08
 Virial diff sum/max:    3.216240447932E-02    1.581801389212E-02
 tblite reference CLI deviation exceeded ERROR_LIMIT =   1.0000E-05

 ENERGY| Total FORCE_EVAL ( QS ) energy [hartree]            -76.437389402137299

 -------------------------------------------------------------------------------
 ----                             MULTIGRID INFO                            ----
 -------------------------------------------------------------------------------
 total grid count     :           420              cutoff [a.u.]            1.00

 PW_GRID| Information for grid number                                         14
 PW_GRID| Cutoff [a.u.]                                                      1.0
 PW_GRID| spherical cutoff:                                                   NO
 PW_GRID|   Bounds   1            -18      17                Points:          36
 PW_GRID|   Bounds   2            -18      17                Points:          36
 PW_GRID|   Bounds   3            -18      17                Points:          36
 PW_GRID| Volume element (a.u.^3)   9.257         Volume (a.u.^3)    431893.4133
 PW_GRID| Grid span                                                    FULLSPACE

 POISSON| Solver                                                        PERIODIC
 POISSON| Periodicity                                                        XYZ

 RS_GRID| Information for grid number                                         14
 RS_GRID|   Bounds   1            -18      17                Points:          36
 RS_GRID|   Bounds   2            -18      17                Points:          36
 RS_GRID|   Bounds   3            -18      17                Points:          36

[...]
  Electrostatic energy:                                         0.14234305741360
  Self-consistent dispersion energy:                           -0.00004482428568
  Non-self consistent dispersion energy:                        0.00000029898100
  Correction for halogen bonding:                               0.00000000000000

  Total energy:                                               -76.43738942257703


 MULLIKEN POPULATION ANALYSIS

  # Atom   Element   Kind        Atomic population                    Net charge
       1     H          1                 0.685476                      0.314524
       2     H          1                 0.685478                      0.314522
       3     O          2                 6.629046                     -0.629046
 # Total charge                           8.000000                      0.000000


 tblite reference CLI check
 Executable: tblite
 Method:     gxtb
 Guess:      auto
 Solver:     gvd
 Spin-pol.:  F
 Grad file:  H2O_stress_L40_cli.grad
 JSON file:  H2O_stress_L40_cli.json
 Log file:   H2O_stress_L40_cli.log
 Energy CP2K/CLI/absdiff:   -7.643738942258E+01   -7.643738942271E+01    1.367794766338E-10
 Gradient diff sum/max:    2.491630601369E-06    1.131010529296E-06
 Virial diff sum/max:    3.216030605075E-02    1.581786690252E-02
 tblite reference CLI deviation exceeded ERROR_LIMIT =   1.0000E-05

 ENERGY| Total FORCE_EVAL ( QS ) energy [hartree]            -76.437389422577027

 -------------------------------------------------------------------------------
 ----                             MULTIGRID INFO                            ----
 -------------------------------------------------------------------------------
 total grid count     :           420              cutoff [a.u.]            1.00

 PW_GRID| Information for grid number                                         20
 PW_GRID| Cutoff [a.u.]                                                      1.0
 PW_GRID| spherical cutoff:                                                   NO
 PW_GRID|   Bounds   1            -18      17                Points:          36
 PW_GRID|   Bounds   2            -18      17                Points:          36
 PW_GRID|   Bounds   3            -18      17                Points:          36
 PW_GRID| Volume element (a.u.^3)   9.257         Volume (a.u.^3)    431893.4133
 PW_GRID| Grid span                                                    FULLSPACE

 POISSON| Solver                                                        PERIODIC
 POISSON| Periodicity                                                        XYZ

 RS_GRID| Information for grid number                                         20
 RS_GRID|   Bounds   1            -18      17                Points:          36
 RS_GRID|   Bounds   2            -18      17                Points:          36
 RS_GRID|   Bounds   3            -18      17                Points:          36

 Parameters for the always stable predictor-corrector (ASPC) method:

  ASPC order: 3

  B(1) =   3.000000
  B(2) =  -3.428571
  B(3) =   1.928571
  B(4) =  -0.571429
  B(5) =   0.071429

 Extrapolation method: ASPC

 Number of electrons:                                                          8
 Number of occupied orbitals:                                                  4
 Number of molecular orbitals:                                                 6

 Number of orbital functions:                                                  6
 Number of independent orbital functions:                                      6


 SCF WAVEFUNCTION OPTIMIZATION

  Step     Update method      Time    Convergence         Total energy    Change
  ------------------------------------------------------------------------------
     1 GXTB-Raw    0.10E+01    0.0     0.00000060       -76.4373894021 -7.64E+01
     2 GXTB-Simple 0.20E+00    0.0     0.00000009       -76.4373894021 -2.84E-14
     3 GXTB-Simple 0.20E+00    0.0     0.00000008       -76.4373894021 -1.42E-14
     4 GXTB-FDIIS  0.10E+01    0.0     0.00000035       -76.4373894021 -4.26E-14
     5 GXTB-FDIIS  0.10E+01    0.0     0.00000001       -76.4373894021  0.00E+00
     6 GXTB-FDIIS  0.10E+01    0.0     8.7695E-09       -76.4373894021  0.00E+00
     7 GXTB-FDIIS  0.10E+01    0.0     2.8022E-10       -76.4373894021  0.00E+00
     8 GXTB-FDIIS  0.10E+01    0.0     4.4438E-11       -76.4373894021  0.00E+00

  *** SCF run converged in     8 steps ***


  Core Hamiltonian energy:                                     -6.22697622583863
  Repulsive potential energy:                                   0.31827246558594
  Electrostatic energy:                                         0.14234308071981
  Self-consistent dispersion energy:                           -0.00004482438679
  Non-self consistent dispersion energy:                        0.00000029898137
  Correction for halogen bonding:                               0.00000000000000

  Total energy:                                               -76.43738940213733


 MULLIKEN POPULATION ANALYSIS

  # Atom   Element   Kind        Atomic population                    Net charge
       1     H          1                 0.685476                      0.314524
       2     H          1                 0.685478                      0.314522
       3     O          2                 6.629046                     -0.629046
 # Total charge                           8.000000                     -0.000000


 tblite reference CLI check
 Executable: tblite
 Method:     gxtb
 Guess:      auto
 Solver:     gvd
 Spin-pol.:  F
 Grad file:  H2O_stress_L40_cli.grad
 JSON file:  H2O_stress_L40_cli.json
 Log file:   H2O_stress_L40_cli.log
 Energy CP2K/CLI/absdiff:   -7.643738940214E+01   -7.643738940227E+01    1.367794766338E-10
 Gradient diff sum/max:    1.322463234500E-07    3.686730107831E-08
 Virial diff sum/max:    3.216236242874E-02    1.581801389203E-02
 tblite reference CLI deviation exceeded ERROR_LIMIT =   1.0000E-05

 ENERGY| Total FORCE_EVAL ( QS ) energy [hartree]            -76.437389402137327
 DEBUG| Numerical pv_virial [a.u.]
 DEBUG|                  -0.015818066106      0.000000002685      0.000444269464
 DEBUG|                   0.000000002685     -0.000004645850      0.000000000000
 DEBUG|                   0.000444269464      0.000000000000     -0.015451215836

 DEBUG| Analytical pv_virial [a.u.]
 DEBUG|                  -0.015818067040     -0.000000000000      0.000444267645
 DEBUG|                  -0.000000000000     -0.000004645878     -0.000000000000
 DEBUG|                   0.000444267645     -0.000000000000     -0.015451216299

 DEBUG| Difference pv_virial [a.u.]
 DEBUG|                   0.000000000933      0.000000002685      0.000000001819
 DEBUG|                   0.000000002685      0.000000000028      0.000000000000
 DEBUG|                   0.000000001819      0.000000000000      0.000000000463
 DEBUG| Sum of differences                                        0.000000010434

 DEBUG| Relative error pv_virial
 DEBUG| Threshold value for error check [a.u.]                    1.00000000E-05
 DEBUG|                          -0.00 %                 - %              0.00 %
 DEBUG|                              - %                 - %                 - %
 DEBUG|                           0.00 %                 - %             -0.00 %
 DEBUG| Maximum accepted error                                            0.20 %

 -------------------------------------------------------------------------------
 -                                                                             -
 -                                DBCSR STATISTICS                             -
 -                                                                             -
 -------------------------------------------------------------------------------
 COUNTER                                    TOTAL       BLAS       SMM       ACC
 flops     1 x     6 x     1                 3168     100.0%      0.0%      0.0%     
 flops     1 x     1 x     6                 5688     100.0%      0.0%      0.0%     
 flops     4 x     6 x     1                 6336     100.0%      0.0%      0.0%     
 flops     1 x     6 x     4                 6336     100.0%      0.0%      0.0%     
 flops     4 x     1 x     6                 7584     100.0%      0.0%      0.0%     
 flops     1 x     4 x     6                 7584     100.0%      0.0%      0.0%     
 flops     4 x     6 x     4                12672     100.0%      0.0%      0.0%     
 flops     4 x     4 x     6                30336     100.0%      0.0%      0.0%     
 flops inhomo. stacks                           0       0.0%      0.0%      0.0%
 flops total                        79.704000E+03     100.0%      0.0%      0.0%
 flops max/rank                     79.704000E+03     100.0%      0.0%      0.0%
 matmuls inhomo. stacks                         0       0.0%      0.0%      0.0%
 matmuls total                               1542     100.0%      0.0%      0.0%
 number of processed stacks                   896     100.0%      0.0%      0.0%
 average stack size                                     1.7       0.0       0.0
 marketing flops                    74.016000E+03
 -------------------------------------------------------------------------------
 # multiplications                            224
 max memory usage/rank               9.883386E+09
 # max total images/rank                        1
 # max 3D layers                                1
 # MPI messages exchanged                       0
 -------------------------------------------------------------------------------
 -                                                                             -
 -                      DBCSR MESSAGE PASSING PERFORMANCE                      -
 -                                                                             -
 -------------------------------------------------------------------------------
 ROUTINE             CALLS      AVE VOLUME [Bytes]
 MP_Bcast                9                     12.
 MP_Allreduce         1023                      9.
 MP_Alltoall          5810                    293.
 MP_ISend              896                     78.
 MP_IRecv              896                     78.
 -------------------------------------------------------------------------------

 -------------------------------------------------------------------------------
 -                                                                             -
 -                          OFFLOAD MEMPOOL STATISTICS                         -
 -                                                                             -
 -------------------------------------------------------------------------------
 Memory consumption                Number of allocations  Used [MiB]  Size [MiB]
 Host                                                  1           0           0
 -------------------------------------------------------------------------------

 MEMORY| Estimated peak process memory [MiB]                                 123

 -------------------------------------------------------------------------------
 ----                             MULTIGRID INFO                            ----
 -------------------------------------------------------------------------------
 total grid count     :           420              cutoff [a.u.]            1.00

 -------------------------------------------------------------------------------
 -                                                                             -
 -                         MESSAGE PASSING PERFORMANCE                         -
 -                                                                             -
 -------------------------------------------------------------------------------

 ROUTINE             CALLS      AVE VOLUME [Bytes]
 MP_Group               20
 MP_Bcast              276                     26.
 MP_Allreduce         4527                     50.
 MP_Sync               158
 MP_comm_split         138
 -------------------------------------------------------------------------------


 -------------------------------------------------------------------------------
 -                                                                             -
 -                           R E F E R E N C E S                               -
 -                                                                             -
 -------------------------------------------------------------------------------
 
 CP2K version 2026.2 (Development Version), the CP2K developers group (2026).
 CP2K is freely available from https://www.cp2k.org/ .
 
 M. Iannuzzi, J. Wilhelm, F. Stein, A. Bussy, H. Elgabarty, D. Golze, A. Hehn, 
 M. Graml, S. Marek, B. Sertcan Gökmen, C. Schran, H. Forbert, R. Z. 
 Khaliullin, A. Kozhevnikov, M. Taillefumier, R. Meli, V. V. Rybkin, M. Brehm, 
 R. Schade, O. Schütt, J. V. Pototschnig, H. Mirhosseini, A. Knüpfer, D. Marx, 
 M. Krack, J. Hutter, T. D. Kühne.
 J. Phys. Chem. B 130, 1237-1310 (2026).
 The CP2K Program Package Made Simple.
 https://doi.org/10.1021/acs.jpcb.5c05851

 A. Katbashev, M. Stahn, T. Rose, V. Alizadeh, M. Friede, C. Plett, P. 
 Steinbach, S. Ehlert.
 J. Phys. Chem. A 129, 2667-2682 (2025).
 Overview on Building Blocks and Applications of Efficient and Robust Extended 
 Tight Binding.
 https://doi.org/10.1021/acs.jpca.4c08263

 T. D. Kühne, M. Iannuzzi, M. Del Ben, V. V. Rybkin, P. Seewald, F. Stein, T. 
 Laino, R. Z. Khaliullin, O. Schütt, F. Schiffmann, D. Golze, J. Wilhelm, S. 
 Chulkov, M. H. Bani-Hashemian, V. Weber, U. Borstnik, M. Taillefumier, A. S. 
 Jakobovits, A. Lazzaro, H. Pabst, T. Müller, R. Schade, M. Guidon, S. 
 Andermatt, N. Holmberg, G. K. Schenter, A. Hehn, A. Bussy, F. Belleflamme, G. 
 Tabacchi, A. Glöß, M. Lass, I. Bethune, C. J. Mundy, C. Plessl, M. Watkins, 
 J. VandeVondele, M. Krack, J. Hutter.
 J. Chem. Phys. 152, 194103 (2020).
 CP2K: An electronic structure and molecular dynamics software package - 
 Quickstep: Efficient and accurate electronic structure calculations.
 https://doi.org/10.1063/5.0007045

 P. Pracht, E. Caldeweyher, S. Ehlert, S. Grimme.
 ChemRxiv, (2019).
 A Robust Non-Self-Consistent Tight-Binding Quantum Chemistry Method for large 
 Molecules.
 https://doi.org/10.26434/chemrxiv.8326202.v1

 S. Grimme, C. Bannwarth, P. Shushkov.
 J. Chem. Theory Comput. 13, 1989 (2017).
 A Robust and Accurate Tight-Binding Quantum Chemical Method for Structures, 
 Vibrational Frequencies, and Noncovalent Interactions of Large Molecular 
 Systems Parametrized for All spd-Block Elements (Z = 1-86).
 https://doi.org/10.1021/acs.jctc.7b00118

 O. Schuett, P. Messmer, J. Hutter, J. VandeVondele.
 Electronic Structure Calculations on Graphics Processing Units, 173-190 (2016).
 GPU-Accelerated Sparse Matrix-Matrix Multiplication for Linear Scaling Density 
 Functional Theory.
 https://doi.org/10.1002/9781118670712.ch8

 U. Borstnik, J. VandeVondele, V. Weber, J. Hutter.
 Parallel Comput. 40, 47-58 (2014).
 Sparse matrix multiplication: The distributed block-compressed sparse row 
 library.
 https://doi.org/10.1016/j.parco.2014.03.012

 T. D. Kühne, M. Krack, F. R. Mohamed, M. Parrinello.
 Phys. Rev. Lett. 98, 066401 (2007).
 Efficient and accurate Car-Parrinello-like approach to Born-Oppenheimer 
 molecular dynamics.
 https://doi.org/10.1103/PhysRevLett.98.066401

 M. Frigo, S. G. Johnson.
 Proc. IEEE 93, 216-231 (2005).
 The design and implementation of FFTW3.
 https://doi.org/10.1109/JPROC.2004.840301

 J. Kolafa.
 J. Comput. Chem. 25, 335-342 (2004).
 Time-reversible always stable predictor-corrector method for molecular dynamics 
 of polarizable molecules.
 https://doi.org/10.1002/jcc.10385


 -------------------------------------------------------------------------------
 -                                                                             -
 -                                T I M I N G                                  -
 -                                                                             -
 -------------------------------------------------------------------------------
 SUBROUTINE                       CALLS  ASD         SELF TIME        TOTAL TIME
                                MAXIMUM       AVERAGE  MAXIMUM  AVERAGE  MAXIMUM
 CP2K                                 1  1.0    0.008    0.008    0.805    0.805
 qs_energies                         20  2.0    0.001    0.001    0.748    0.748
 tb_reference_cli_compare            20  3.0    0.335    0.335    0.335    0.335
 scf_env_do_scf                      20  3.0    0.000    0.000    0.195    0.195
 scf_env_do_scf_inner_loop          138  4.1    0.022    0.022    0.195    0.195
 qs_scf_new_mos                     138  5.1    0.003    0.003    0.138    0.138
 qs_env_rebuild_pw_env               22  3.1    0.000    0.000    0.129    0.129
 pw_env_rebuild                      20  4.0    0.002    0.002    0.129    0.129
 pw_grid_setup                       20  5.0    0.000    0.000    0.119    0.119
 pw_grid_setup_internal              20  6.0    0.006    0.006    0.119    0.119
 calculate_dm_sparse                157  6.1    0.001    0.001    0.098    0.098
 cp_dbcsr_plus_fm_fm_t              158  7.1    0.001    0.001    0.097    0.097
 pw_grid_sort                        20  7.0    0.067    0.067    0.096    0.096
 dbcsr_multiply_generic             224  8.0    0.006    0.006    0.089    0.089
 init_scf_run                        20  3.0    0.000    0.000    0.059    0.059
 build_tblite_matrices               21  4.0    0.047    0.047    0.055    0.055
 scf_env_initial_rho_setup           20  4.0    0.000    0.000    0.054    0.054
 wfi_extrapolate                     20  5.0    0.001    0.001    0.054    0.054
 qs_forces                            1  2.0    0.000    0.000    0.053    0.053
 qs_energies_init_hamiltonians       20  3.0    0.000    0.000    0.053    0.053
 make_m2s                           448  9.0    0.003    0.003    0.048    0.048
 dbcsr_complete_redistribute        606  8.2    0.015    0.015    0.038    0.038
 copy_dbcsr_to_fm                   224  6.2    0.002    0.002    0.036    0.036
 cp_dbcsr_sm_fm_multiply             66  6.0    0.001    0.001    0.034    0.034
 rebuild_ks_matrix                  158  5.8    0.000    0.000    0.031    0.031
 build_tblite_ks_matrix             158  6.8    0.026    0.026    0.031    0.031
 sort_shells                         20  8.1    0.029    0.029    0.029    0.029
 qs_ks_update_qs_env                157  4.8    0.000    0.000    0.028    0.028
 eigensolver                        138  6.1    0.007    0.007    0.027    0.027
 copy_fm_to_dbcsr                   382  7.9    0.001    0.001    0.026    0.026
 make_images                        448 10.0    0.005    0.005    0.022    0.022
 multiply_cannon                    224  9.0    0.013    0.013    0.021    0.021
 cp_fm_syevd                        138  7.1    0.000    0.000    0.018    0.018
 cp_dbcsr_sm_fm_multiply_core        66  7.0    0.000    0.000    0.017    0.017
 pw_grid_assign                      20  7.0    0.017    0.017    0.017    0.017
 dbcsr_finalize                    3382  8.7    0.005    0.005    0.017    0.017
 -------------------------------------------------------------------------------

 The number of warnings for this run is : 1
 
 -------------------------------------------------------------------------------
  **** **** ******  **  PROGRAM ENDED AT                 2026-07-21 18:01:06.417
 ***** ** ***  *** **   PROGRAM RAN ON                                     terok
 **    ****   ******    PROGRAM RAN BY                                  kuehne88
 ***** **    ** ** **   PROGRAM PROCESS ID                               1617888
  **** **  *******  **  PROGRAM STOPPED IN /home/kuehne88/work/h2o-molecular-lim
                                           it-fix-20260721/stress/raw/H2O_stress
                                           _L40
