 DBCSR| CPU Multiplication driver                                           XSMM (U)
 DBCSR| Multrec recursion limit                                              512 (U)
 DBCSR| Multiplication stack size                                           1000 (D)
 DBCSR| Maximum elements for images                                    UNLIMITED (U)
 DBCSR| Multiplicative factor virtual images                                   1 (U)
 DBCSR| Use multiplication densification                                       T (D)
 DBCSR| Multiplication size stacks                                             3 (U)
 DBCSR| Use memory pool for CPU allocation                                     F (U)
 DBCSR| Number of 3D layers                                               SINGLE (U)
 DBCSR| Use MPI memory allocation                                              F (U)
 DBCSR| Use RMA algorithm                                                      F (U)
 DBCSR| Use Communication thread                                               T (U)
 DBCSR| Communication thread load                                             87 (D)
 DBCSR| MPI: My process id                                                     0
 DBCSR| MPI: Number of processes                                               1
 DBCSR| OMP: Current number of threads                                         1
 DBCSR| OMP: Max number of threads                                             1
 DBCSR| Split modifier for TAS multiplication algorithm                  1.0E+00 (U)


  **** **** ******  **  PROGRAM STARTED AT               2026-05-23 22:46:18.299
 ***** ** ***  *** **   PROGRAM STARTED ON                            spark-c86c
 **    ****   ******    PROGRAM STARTED BY                              kuehne88
 ***** **    ** ** **   PROGRAM PROCESS ID                               2222427
  **** **  *******  **  PROGRAM STARTED IN /home/kuehne88/periodic-gfn2-benchmar
                                           ks/X23b/runs/molecule_geoopt/GFN1/pyr
                                           azine_GFN1_mol_geoopt

 CP2K| version string:                 CP2K version 2026.1 (Development Version)
 CP2K| source code revision number:                                   0622d442e4
 CP2K| cp2kflags: omp fftw3 libxc parallel scalapack mpi_f08 xsmm spglib libdftd
 CP2K|            4 dftd4_v3 mctc-lib tblite
 CP2K| is freely available from                            https://www.cp2k.org/
 CP2K| Program compiled at                                   2026-05-23 22:05:08
 CP2K| Program compiled on                                            spark-c86c
 CP2K| Program compiled for                                              aarch64
 CP2K| Data directory path    /home/kuehne88/cp2k-master-tblite-20260523/install
 CP2K| Input file name                              pyrazine_GFN1_mol_geoopt.inp

 GLOBAL| Force Environment number                                              1
 GLOBAL| Basis set file name                                           BASIS_SET
 GLOBAL| Potential file name                                           POTENTIAL
 GLOBAL| MM Potential file name                                     MM_POTENTIAL
 GLOBAL| Coordinate file name                                      __STD_INPUT__
 GLOBAL| Method name                                                        CP2K
 GLOBAL| Project name                                   pyrazine_GFN1_mol_geoopt
 GLOBAL| Run type                                                        GEO_OPT
 GLOBAL| FFT library                                                       FFTW3
 GLOBAL| Diagonalization library                                       ScaLAPACK
 GLOBAL| Cholesky decomposition library                                ScaLAPACK
 GLOBAL| DGEMM library                                                      BLAS
 GLOBAL| Direct generalized diagonalization requested                          F
 GLOBAL| Orthonormality check for eigenvectors                          DISABLED
 GLOBAL| Matrix multiplication library                                 ScaLAPACK
 GLOBAL| All-to-all communication in single precision                          F
 GLOBAL| FFTs using library dependent lengths                                  F
 GLOBAL| Grid backend                                                       AUTO
 GLOBAL| Global print level                                                  LOW
 GLOBAL| MPI I/O enabled                                                       T
 GLOBAL| Total number of message passing processes                             1
 GLOBAL| Number of distributed systems (nodes)                                 1
 GLOBAL| Number of threads for this process                                    1
 GLOBAL| This output is from process                                           0
 GLOBAL| OpenMP stack size per thread (OMP_STACKSIZE)                    default
 GLOBAL| CPU model name                                                  UNKNOWN
 GLOBAL| CPUID                                                              2200
 GLOBAL| Compiled for CPUID                                                 2000

 *** HINT in environment.F:970 :: The compiler target flags (arm_arch64)   ***
 *** used to build this binary cannot exploit all extensions of this CPU   ***
 *** model (arm_sve256). Consider compiler target flags as part of FCFLAGS ***
 *** and CFLAGS (ARCH file).                                               ***


 MEMORY| system memory details [Kb]
 MEMORY|                        rank 0           min           max       average
 MEMORY| MemTotal            125508532     125508532     125508532     125508532
 MEMORY| MemFree             106534984     106534984     106534984     106534984
 MEMORY| Buffers                865972        865972        865972        865972
 MEMORY| Cached               13214800      13214800      13214800      13214800
 MEMORY| Slab                  1565140       1565140       1565140       1565140
 MEMORY| SReclaimable           888284        888284        888284        888284
 MEMORY| MemLikelyFree       121504040     121504040     121504040     121504040


 GENERATE|  Preliminary Number of Bonds generated:                             0
 GENERATE|  Achieved consistency in connectivity generation.


                  #####   #####        #     #   #     #       #          
                 #     # #     #      #    ##### #     #   # #####  ####  
                 #     # #           #       #   ###   #       #   #    # 
                 #     #  #####     #        #   #  #  #   #   #   ###### 
                 #   # #       #   #         #   #   # #   #   #   #      
                 #    #  #     #  #          #   #  #  # # #   #    #   # 
                  #### #  #####  #           #   ###   ##  #   #     ###  

                                   GFN1-xTB  
                                 Version 0.0                       
                            Johann V. Pototschnig                  



 TOTAL NUMBERS AND MAXIMUM NUMBERS

  Total number of            - Atomic kinds:                                   3
                             - Atoms:                                         10
                             - Shell sets:                                    20
                             - Shells:                                        20
                             - Primitive Cartesian functions:                116
                             - Cartesian basis functions:                     32
                             - Spherical basis functions:                     32

  Maximum angular momentum of the orbital basis functions:                     1


 SCF PARAMETERS         Density guess:                                     MOPAC
                        --------------------------------------------------------
                        max_scf:                                             300
                        max_scf_history:                                       0
                        max_diis:                                              4
                        --------------------------------------------------------
                        eps_scf:                                        1.00E-09
                        eps_scf_history:                                0.00E+00
                        eps_diis:                                       1.00E-01
                        eps_eigval:                                     1.00E-05
                        --------------------------------------------------------
                        level_shift [a.u.]:                             0.000000
                        added MOs                                        17    0
                        --------------------------------------------------------
                        Mixing method:                           DIRECT_P_MIXING
                        --------------------------------------------------------
                        Smear method:                                FERMI_DIRAC
                        Electronic temperature [K]:                        300.0
                        Electronic temperature [a.u.]:                  9.50E-04
                        Accuracy threshold:                             1.00E-06
                        --------------------------------------------------------
                        No outer SCF

 BFGS| Use rational function optimization for step estimation:                NO
 BFGS| Use model Hessian for initial guess:                                  YES
 BFGS| Restart Hessian:                                                       NO
 BFGS| Trust radius:                                                       0.472

 *******************************************************************************
 ***                     STARTING GEOMETRY OPTIMIZATION                      ***
 ***                                   BFGS                                  ***
 *******************************************************************************

 Extrapolation method: initial_guess

 Number of electrons:                                                         30
 Number of occupied orbitals:                                                 15
 Number of molecular orbitals:                                                32

 Number of orbital functions:                                                 32
 Number of independent orbital functions:                                     32


 SCF WAVEFUNCTION OPTIMIZATION

  Step     Update method      Time    Convergence         Total energy    Change
  ------------------------------------------------------------------------------
     1 TBLite/Diag 0.40E+00    0.0     1.38100055       -16.8282667680 -1.68E+01
     2 TBLite/Diag 0.40E+00    0.0     0.30420270       -16.9462778386 -1.18E-01
     3 TBLite/Diag 0.40E+00    0.0     0.03281147       -16.9467050165 -4.27E-04
     4 TBLite/Diag 0.40E+00    0.0     0.01529659       -16.9470127791 -3.08E-04
     5 TBLite/Diag 0.40E+00    0.0     0.00163800       -16.9470199359 -7.16E-06
     6 TBLite/Diag 0.40E+00    0.0     0.00031863       -16.9470201172 -1.81E-07
     7 TBLite/Diag 0.40E+00    0.0     0.00001201       -16.9470201172 -5.26E-11
     8 TBLite/Diag 0.40E+00    0.0     0.00000345       -16.9470201172 -2.95E-11
     9 TBLite/Diag 0.40E+00    0.0     0.00000123       -16.9470201172 -2.47E-12
    10 TBLite/Diag 0.40E+00    0.0     6.1850E-09       -16.9470201172  1.42E-14
    11 TBLite/Diag 0.40E+00    0.0     6.2346E-10       -16.9470201172  1.78E-14

  *** SCF run converged in    11 steps ***


  Core Hamiltonian energy:                                    -17.19468463919748
  Repulsive potential energy:                                   0.22468068843976
  Electrostatic energy:                                         0.02668021710056
  Self-consistent dispersion energy:                            0.00000000000000
  Non-self consistent dispersion energy:                       -0.00369638357793
  Correction for halogen bonding:                               0.00000000000000
  Electronic entropic energy:                                  -0.00000000000000
  Fermi energy:                                                -0.33794132965733

  Total energy:                                               -16.94702011723509
  Total energy (extrapolated to T->0):                        -16.94702011723509

 ENERGY| Total FORCE_EVAL ( QS ) energy [hartree]            -16.947020117235091

 OPT| **************************************************************************
 OPT| Step number                                                              0
 OPT| Optimization method                                                   BFGS
 OPT| Total energy [hartree]                                      -16.9470201172
 OPT| Used time [s]                                                        0.011
 OPT| **************************************************************************
 OPT| Estimated peak process memory [MiB]                                    166

 --------------------------
 OPTIMIZATION STEP:      1
 --------------------------

 Extrapolation method: ASPC

 Number of electrons:                                                         30
 Number of occupied orbitals:                                                 15
 Number of molecular orbitals:                                                32

 Number of orbital functions:                                                 32
 Number of independent orbital functions:                                     32


 SCF WAVEFUNCTION OPTIMIZATION

  Step     Update method      Time    Convergence         Total energy    Change
  ------------------------------------------------------------------------------
     1 TBLite/Diag 0.40E+00    0.0     0.01850221       -16.9476110892 -1.69E+01
     2 TBLite/Diag 0.40E+00    0.0     0.00185504       -16.9476162380 -5.15E-06
     3 TBLite/Diag 0.40E+00    0.0     0.00025821       -16.9476162852 -4.72E-08
     4 TBLite/Diag 0.40E+00    0.0     0.00007766       -16.9476162941 -8.97E-09
     5 TBLite/Diag 0.40E+00    0.0     0.00002937       -16.9476162957 -1.60E-09
     6 TBLite/Diag 0.40E+00    0.0     0.00000017       -16.9476162957 -1.78E-14
     7 TBLite/Diag 0.40E+00    0.0     0.00000004       -16.9476162957  7.11E-15
     8 TBLite/Diag 0.40E+00    0.0     2.4155E-09       -16.9476162957 -2.13E-14
     9 TBLite/Diag 0.40E+00    0.0     9.2907E-10       -16.9476162957 -3.55E-15

  *** SCF run converged in     9 steps ***


  Core Hamiltonian energy:                                    -17.20469567460751
  Repulsive potential energy:                                   0.23395232349907
  Electrostatic energy:                                         0.02682450619521
  Self-consistent dispersion energy:                            0.00000000000000
  Non-self consistent dispersion energy:                       -0.00369745083108
  Correction for halogen bonding:                               0.00000000000000
  Electronic entropic energy:                                  -0.00000000000000
  Fermi energy:                                                -0.33601447374786

  Total energy:                                               -16.94761629574431
  Total energy (extrapolated to T->0):                        -16.94761629574431

 ENERGY| Total FORCE_EVAL ( QS ) energy [hartree]            -16.947616295744314

 OPT| **************************************************************************
 OPT| Step number                                                              1
 OPT| Optimization method                                                   BFGS
 OPT| Total energy [hartree]                                      -16.9476162957
 OPT| Effective energy change [hartree]                            -0.0005961785
 OPT| Predicted energy change [hartree]                            -0.0004772758
 OPT| Scaling factor                                                0.0000000000
 OPT| Step size                                                     0.0277425632
 OPT| Trust radius                                                  0.4724315332
 OPT| Decrease in energy                                                     YES
 OPT| Used time [s]                                                        0.009
 OPT|
 OPT| Maximum step size                                             0.0277425632
 OPT| Convergence limit for maximum step size                       0.0030000000
 OPT| Maximum step size is converged                                          NO
 OPT|
 OPT| RMS step size                                                 0.0086529667
 OPT| Convergence limit for RMS step size                           0.0015000000
 OPT| RMS step size is converged                                              NO
 OPT|
 OPT| Maximum gradient                                              0.0025896891
 OPT| Convergence limit for maximum gradient                        0.0004500000
 OPT| Maximum gradient is converged                                           NO
 OPT|
 OPT| RMS gradient                                                  0.0012836874
 OPT| Convergence limit for RMS gradient                            0.0003000000
 OPT| RMS gradient is converged                                               NO
 OPT| **************************************************************************
 OPT| Estimated peak process memory after this step [MiB]                    166

 --------------------------
 OPTIMIZATION STEP:      2
 --------------------------

 Extrapolation method: ASPC

 Number of electrons:                                                         30
 Number of occupied orbitals:                                                 15
 Number of molecular orbitals:                                                32

 Number of orbital functions:                                                 32
 Number of independent orbital functions:                                     32


 SCF WAVEFUNCTION OPTIMIZATION

  Step     Update method      Time    Convergence         Total energy    Change
  ------------------------------------------------------------------------------
     1 TBLite/Diag 0.40E+00    0.0     0.00439718       -16.9476667045 -1.69E+01
     2 TBLite/Diag 0.40E+00    0.0     0.00017890       -16.9476668191 -1.15E-07
     3 TBLite/Diag 0.40E+00    0.0     0.00008759       -16.9476668249 -5.79E-09
     4 TBLite/Diag 0.40E+00    0.0     0.00001998       -16.9476668264 -1.49E-09
     5 TBLite/Diag 0.40E+00    0.0     0.00001236       -16.9476668267 -2.79E-10
     6 TBLite/Diag 0.40E+00    0.0     0.00000019       -16.9476668267 -7.82E-14
     7 TBLite/Diag 0.40E+00    0.0     5.0666E-09       -16.9476668267  0.00E+00
     8 TBLite/Diag 0.40E+00    0.0     3.1226E-09       -16.9476668267 -3.55E-15
     9 TBLite/Diag 0.40E+00    0.0     1.0842E-09       -16.9476668267  7.11E-15
    10 TBLite/Diag 0.40E+00    0.0     1.6577E-10       -16.9476668267  1.42E-14

  *** SCF run converged in    10 steps ***


  Core Hamiltonian energy:                                    -17.20844429576239
  Repulsive potential energy:                                   0.23770343831457
  Electrostatic energy:                                         0.02677116548363
  Self-consistent dispersion energy:                            0.00000000000000
  Non-self consistent dispersion energy:                       -0.00369713474509
  Correction for halogen bonding:                               0.00000000000000
  Electronic entropic energy:                                  -0.00000000000000
  Fermi energy:                                                -0.33547235608470

  Total energy:                                               -16.94766682670928
  Total energy (extrapolated to T->0):                        -16.94766682670928

 ENERGY| Total FORCE_EVAL ( QS ) energy [hartree]            -16.947666826709284

 OPT| **************************************************************************
 OPT| Step number                                                              2
 OPT| Optimization method                                                   BFGS
 OPT| Total energy [hartree]                                      -16.9476668267
 OPT| Effective energy change [hartree]                            -0.0000505310
 OPT| Predicted energy change [hartree]                            -0.0000590172
 OPT| Scaling factor                                                0.0000000000
 OPT| Step size                                                     0.0096550825
 OPT| Trust radius                                                  0.4724315332
 OPT| Decrease in energy                                                     YES
 OPT| Used time [s]                                                        0.010
 OPT|
 OPT| Maximum step size                                             0.0096550825
 OPT| Convergence limit for maximum step size                       0.0030000000
 OPT| Maximum step size is converged                                          NO
 OPT|
 OPT| RMS step size                                                 0.0044537906
 OPT| Convergence limit for RMS step size                           0.0015000000
 OPT| RMS step size is converged                                              NO
 OPT|
 OPT| Maximum gradient                                              0.0004845827
 OPT| Convergence limit for maximum gradient                        0.0004500000
 OPT| Maximum gradient is converged                                           NO
 OPT|
 OPT| RMS gradient                                                  0.0002315739
 OPT| Convergence limit for RMS gradient                            0.0003000000
 OPT| RMS gradient is converged                                              YES
 OPT| **************************************************************************
 OPT| Estimated peak process memory after this step [MiB]                    167

 --------------------------
 OPTIMIZATION STEP:      3
 --------------------------

 Extrapolation method: ASPC

 Number of electrons:                                                         30
 Number of occupied orbitals:                                                 15
 Number of molecular orbitals:                                                32

 Number of orbital functions:                                                 32
 Number of independent orbital functions:                                     32


 SCF WAVEFUNCTION OPTIMIZATION

  Step     Update method      Time    Convergence         Total energy    Change
  ------------------------------------------------------------------------------
     1 TBLite/Diag 0.40E+00    0.0     0.00162304       -16.9476695919 -1.69E+01
     2 TBLite/Diag 0.40E+00    0.0     0.00017734       -16.9476696329 -4.11E-08
     3 TBLite/Diag 0.40E+00    0.0     0.00001659       -16.9476696332 -2.89E-10
     4 TBLite/Diag 0.40E+00    0.0     0.00000517       -16.9476696332 -3.11E-11
     5 TBLite/Diag 0.40E+00    0.0     0.00000149       -16.9476696332 -3.93E-12
     6 TBLite/Diag 0.40E+00    0.0     0.00000009       -16.9476696332 -1.42E-14
     7 TBLite/Diag 0.40E+00    0.0     2.0498E-09       -16.9476696332  3.55E-15
     8 TBLite/Diag 0.40E+00    0.0     9.2700E-10       -16.9476696332  7.11E-15

  *** SCF run converged in     8 steps ***


  Core Hamiltonian energy:                                    -17.20815805394983
  Repulsive potential energy:                                   0.23738504695758
  Electrostatic energy:                                         0.02680063541402
  Self-consistent dispersion energy:                            0.00000000000000
  Non-self consistent dispersion energy:                       -0.00369726164821
  Correction for halogen bonding:                               0.00000000000000
  Electronic entropic energy:                                  -0.00000000000000
  Fermi energy:                                                -0.33537420298849

  Total energy:                                               -16.94766963322644
  Total energy (extrapolated to T->0):                        -16.94766963322644

 ENERGY| Total FORCE_EVAL ( QS ) energy [hartree]            -16.947669633226440

 OPT| **************************************************************************
 OPT| Step number                                                              3
 OPT| Optimization method                                                   BFGS
 OPT| Total energy [hartree]                                      -16.9476696332
 OPT| Effective energy change [hartree]                            -0.0000028065
 OPT| Predicted energy change [hartree]                            -0.0000029250
 OPT| Scaling factor                                                0.0000000000
 OPT| Step size                                                     0.0023475618
 OPT| Trust radius                                                  0.4724315332
 OPT| Decrease in energy                                                     YES
 OPT| Used time [s]                                                        0.009
 OPT|
 OPT| Maximum step size                                             0.0023475618
 OPT| Convergence limit for maximum step size                       0.0030000000
 OPT| Maximum step size is converged                                         YES
 OPT|
 OPT| RMS step size                                                 0.0012031325
 OPT| Convergence limit for RMS step size                           0.0015000000
 OPT| RMS step size is converged                                             YES
 OPT|
 OPT| Maximum gradient                                              0.0000945873
 OPT| Convergence limit for maximum gradient                        0.0004500000
 OPT| Maximum gradient is converged                                          YES
 OPT|
 OPT| RMS gradient                                                  0.0000524031
 OPT| Convergence limit for RMS gradient                            0.0003000000
 OPT| RMS gradient is converged                                              YES
 OPT| **************************************************************************
 OPT| Estimated peak process memory after this step [MiB]                    167

 *******************************************************************************
 ***                    GEOMETRY OPTIMIZATION COMPLETED                      ***
 *******************************************************************************

 write_final_structure: Optimization converged, writing XYZ file gladly:
  pyrazine_GFN1_mol_geoopt-FINAL-1_3.xyz

 write_final_structure: Optimization converged, writing CIF file gladly:
  pyrazine_GFN1_mol_geoopt-FINAL-1_3.cif

 write_final_structure: Done!

                    Reevaluating energy at the minimum

 Extrapolation method: ASPC

 Number of electrons:                                                         30
 Number of occupied orbitals:                                                 15
 Number of molecular orbitals:                                                32

 Number of orbital functions:                                                 32
 Number of independent orbital functions:                                     32


 SCF WAVEFUNCTION OPTIMIZATION

  Step     Update method      Time    Convergence         Total energy    Change
  ------------------------------------------------------------------------------
     1 TBLite/Diag 0.40E+00    0.0     5.0653E-10       -16.9476696332 -1.69E+01

  *** SCF run converged in     1 steps ***


  Core Hamiltonian energy:                                    -17.20815805396192
  Repulsive potential energy:                                   0.23738504695758
  Electrostatic energy:                                         0.02680063542612
  Self-consistent dispersion energy:                            0.00000000000000
  Non-self consistent dispersion energy:                       -0.00369726164821
  Correction for halogen bonding:                               0.00000000000000
  Electronic entropic energy:                                  -0.00000000000000
  Fermi energy:                                                -0.33537420299607

  Total energy:                                               -16.94766963322643
  Total energy (extrapolated to T->0):                        -16.94766963322643

 ENERGY| Total FORCE_EVAL ( QS ) energy [hartree]            -16.947669633226429

 -------------------------------------------------------------------------------
 -                                                                             -
 -                                DBCSR STATISTICS                             -
 -                                                                             -
 -------------------------------------------------------------------------------
 COUNTER                                    TOTAL       BLAS       SMM       ACC
 flops     2 x    32 x     2                40960       0.0%    100.0%      0.0%     
 flops     2 x     2 x    32               120320       0.0%    100.0%      0.0%     
 flops     2 x    32 x     4               122880       0.0%    100.0%      0.0%     
 flops     4 x    32 x     2               122880       0.0%    100.0%      0.0%     
 flops     2 x     4 x    32               288768       0.0%    100.0%      0.0%     
 flops     4 x     2 x    32               288768       0.0%    100.0%      0.0%     
 flops     4 x    32 x     4               368640       0.0%    100.0%      0.0%     
 flops     4 x     4 x    32              1010688       0.0%    100.0%      0.0%     
 flops inhomo. stacks                           0       0.0%      0.0%      0.0%
 flops total                         2.363904E+06       0.0%    100.0%      0.0%
 flops max/rank                      2.363904E+06       0.0%    100.0%      0.0%
 matmuls inhomo. stacks                         0       0.0%      0.0%      0.0%
 matmuls total                               3585       0.0%    100.0%      0.0%
 number of processed stacks                   228       0.0%    100.0%      0.0%
 average stack size                                     0.0      15.7       0.0
 marketing flops                     2.099200E+06
 -------------------------------------------------------------------------------
 # multiplications                             57
 max memory usage/rank              13.671154E+09
 # max total images/rank                        1
 # max 3D layers                                1
 # MPI messages exchanged                       0
 -------------------------------------------------------------------------------
 -                                                                             -
 -                      DBCSR MESSAGE PASSING PERFORMANCE                      -
 -                                                                             -
 -------------------------------------------------------------------------------
 ROUTINE             CALLS      AVE VOLUME [Bytes]
 MP_Bcast                9                     12.
 MP_Allreduce          300                     10.
 MP_Alltoall          1898                   5465.
 MP_ISend              228                    358.
 MP_IRecv              228                    358.
 -------------------------------------------------------------------------------

 -------------------------------------------------------------------------------
 -                                                                             -
 -                          OFFLOAD MEMPOOL STATISTICS                         -
 -                                                                             -
 -------------------------------------------------------------------------------
 Memory consumption                Number of allocations  Used [MiB]  Size [MiB]
 Device                                                1           0           0
 Host                                                  1           0           0
 -------------------------------------------------------------------------------

 MEMORY| Estimated peak process memory [MiB]                                 167

 -------------------------------------------------------------------------------
 -                                                                             -
 -                         MESSAGE PASSING PERFORMANCE                         -
 -                                                                             -
 -------------------------------------------------------------------------------

 ROUTINE             CALLS      AVE VOLUME [Bytes]
 MP_Group                1
 MP_Bcast               89                    136.
 MP_Allreduce          742                     73.
 MP_Sync                48
 MP_comm_split          47
 -------------------------------------------------------------------------------


 -------------------------------------------------------------------------------
 -                                                                             -
 -                           R E F E R E N C E S                               -
 -                                                                             -
 -------------------------------------------------------------------------------
 
 CP2K version 2026.1 (Development Version), the CP2K developers group (2026).
 CP2K is freely available from https://www.cp2k.org/ .
 
 M. Iannuzzi, J. Wilhelm, F. Stein, A. Bussy, H. Elgabarty, D. Golze, A. Hehn, 
 M. Graml, S. Marek, B. Sertcan Gökmen, C. Schran, H. Forbert, R. Z. 
 Khaliullin, A. Kozhevnikov, M. Taillefumier, R. Meli, V. V. Rybkin, M. Brehm, 
 R. Schade, O. Schütt, J. V. Pototschnig, H. Mirhosseini, A. Knüpfer, D. Marx, 
 M. Krack, J. Hutter, T. D. Kühne.
 J. Phys. Chem. B 130, 1237-1310 (2026).
 The CP2K Program Package Made Simple.
 https://doi.org/10.1021/acs.jpcb.5c05851

 A. Katbashev, M. Stahn, T. Rose, V. Alizadeh, M. Friede, C. Plett, P. 
 Steinbach, S. Ehlert.
 J. Phys. Chem. A 129, 2667-2682 (2025).
 Overview on Building Blocks and Applications of Efficient and Robust Extended 
 Tight Binding.
 https://doi.org/10.1021/acs.jpca.4c08263

 T. D. Kühne, M. Iannuzzi, M. Del Ben, V. V. Rybkin, P. Seewald, F. Stein, T. 
 Laino, R. Z. Khaliullin, O. Schütt, F. Schiffmann, D. Golze, J. Wilhelm, S. 
 Chulkov, M. H. Bani-Hashemian, V. Weber, U. Borstnik, M. Taillefumier, A. S. 
 Jakobovits, A. Lazzaro, H. Pabst, T. Müller, R. Schade, M. Guidon, S. 
 Andermatt, N. Holmberg, G. K. Schenter, A. Hehn, A. Bussy, F. Belleflamme, G. 
 Tabacchi, A. Glöß, M. Lass, I. Bethune, C. J. Mundy, C. Plessl, M. Watkins, 
 J. VandeVondele, M. Krack, J. Hutter.
 J. Chem. Phys. 152, 194103 (2020).
 CP2K: An electronic structure and molecular dynamics software package - 
 Quickstep: Efficient and accurate electronic structure calculations.
 https://doi.org/10.1063/5.0007045

 P. Pracht, E. Caldeweyher, S. Ehlert, S. Grimme.
 ChemRxiv, (2019).
 A Robust Non-Self-Consistent Tight-Binding Quantum Chemistry Method for large 
 Molecules.
 https://doi.org/10.26434/chemrxiv.8326202.v1

 S. Grimme, C. Bannwarth, P. Shushkov.
 J. Chem. Theory Comput. 13, 1989 (2017).
 A Robust and Accurate Tight-Binding Quantum Chemical Method for Structures, 
 Vibrational Frequencies, and Noncovalent Interactions of Large Molecular 
 Systems Parametrized for All spd-Block Elements (Z = 1-86).
 https://doi.org/10.1021/acs.jctc.7b00118

 O. Schuett, P. Messmer, J. Hutter, J. VandeVondele.
 Electronic Structure Calculations on Graphics Processing Units, 173-190 (2016).
 GPU-Accelerated Sparse Matrix-Matrix Multiplication for Linear Scaling Density 
 Functional Theory.
 https://doi.org/10.1002/9781118670712.ch8

 A. Heinecke, G. Henry, M. Hutchinson, H. Pabst.
 Proceedings of Intl. Supercomputing Conference, 981-991 (2016).
 LIBXSMM: Accelerating Small Matrix Multiplications by Runtime Code Generation.
 https://doi.org/10.1109/SC.2016.83

 U. Borstnik, J. VandeVondele, V. Weber, J. Hutter.
 Parallel Comput. 40, 47-58 (2014).
 Sparse matrix multiplication: The distributed block-compressed sparse row 
 library.
 https://doi.org/10.1016/j.parco.2014.03.012

 T. D. Kühne, M. Krack, F. R. Mohamed, M. Parrinello.
 Phys. Rev. Lett. 98, 066401 (2007).
 Efficient and accurate Car-Parrinello-like approach to Born-Oppenheimer 
 molecular dynamics.
 https://doi.org/10.1103/PhysRevLett.98.066401

 M. Frigo, S. G. Johnson.
 Proc. IEEE 93, 216-231 (2005).
 The design and implementation of FFTW3.
 https://doi.org/10.1109/JPROC.2004.840301

 J. Kolafa.
 J. Comput. Chem. 25, 335-342 (2004).
 Time-reversible always stable predictor-corrector method for molecular dynamics 
 of polarizable molecules.
 https://doi.org/10.1002/jcc.10385

 N. D. Mermin.
 Phys. Rev. 137, A1441-A1443 (1965).
 Thermal Properties of the Inhomogeneous Electron Gas.
 https://doi.org/10.1103/PhysRev.137.A1441


 -------------------------------------------------------------------------------
 -                                                                             -
 -                                T I M I N G                                  -
 -                                                                             -
 -------------------------------------------------------------------------------
 SUBROUTINE                       CALLS  ASD         SELF TIME        TOTAL TIME
                                MAXIMUM       AVERAGE  MAXIMUM  AVERAGE  MAXIMUM
 CP2K                                 1  1.0    0.001    0.001    0.047    0.047
 cp_geo_opt                           1  2.0    0.000    0.000    0.042    0.042
 geoopt_bfgs                          1  3.0    0.000    0.000    0.042    0.042
 cp_eval_at                           5  4.0    0.000    0.000    0.039    0.039
 qs_forces                            4  5.0    0.000    0.000    0.037    0.037
 qs_energies                          5  5.8    0.000    0.000    0.033    0.033
 scf_env_do_scf                       5  6.8    0.000    0.000    0.025    0.025
 scf_env_do_scf_inner_loop           39  8.0    0.001    0.001    0.024    0.024
 qs_scf_new_mos                      39  9.0    0.000    0.000    0.021    0.021
 cp_dbcsr_plus_fm_fm_t               47 10.8    0.000    0.000    0.012    0.012
 calculate_dm_sparse                 43 10.0    0.000    0.000    0.011    0.011
 dbcsr_multiply_generic              57 11.9    0.001    0.001    0.010    0.010
 copy_dbcsr_to_fm                    88 10.4    0.000    0.000    0.006    0.006
 make_m2s                           114 12.9    0.000    0.000    0.006    0.006
 dbcsr_complete_redistribute        192 12.1    0.003    0.003    0.005    0.005
 rebuild_ks_matrix                   43  9.7    0.000    0.000    0.005    0.005
 build_tblite_ks_matrix              43 10.7    0.004    0.004    0.005    0.005
 init_scf_run                         5  6.8    0.000    0.000    0.005    0.005
 cp_fm_syevd                         47 10.5    0.000    0.000    0.005    0.005
 eigensolver                         39 10.0    0.000    0.000    0.005    0.005
 build_tblite_matrices                9  7.0    0.004    0.004    0.004    0.004
 scf_env_initial_rho_setup            5  7.8    0.000    0.000    0.004    0.004
 wfi_extrapolate                      5  8.8    0.000    0.000    0.004    0.004
 qs_ks_update_qs_env_forces           4  6.0    0.000    0.000    0.004    0.004
 qs_init_subsys                       1  2.0    0.001    0.001    0.003    0.003
 qs_diis_b_step                      34 10.0    0.000    0.000    0.003    0.003
 cp_fm_syevd_base                    47 11.5    0.003    0.003    0.003    0.003
 copy_fm_to_dbcsr                   104 11.8    0.000    0.000    0.003    0.003
 qs_energies_init_hamiltonians        5  6.8    0.000    0.000    0.003    0.003
 make_images                        114 13.9    0.001    0.001    0.002    0.002
 cp_dbcsr_sm_fm_multiply             10 10.4    0.000    0.000    0.002    0.002
 multiply_cannon                     57 12.9    0.001    0.001    0.002    0.002
 dbcsr_finalize                     739 13.2    0.001    0.001    0.002    0.002
 qs_env_setup                         1  3.0    0.000    0.000    0.002    0.002
 dbcsr_crop_matrix                   94 13.8    0.000    0.000    0.002    0.002
 dbcsr_desymmetrize_deep             88 11.4    0.001    0.001    0.002    0.002
 reorthogonalize_vectors              4  9.8    0.000    0.000    0.002    0.002
 make_basis_lowdin                    4 10.8    0.000    0.000    0.002    0.002
 dbcsr_create_new                  1384 13.3    0.001    0.001    0.002    0.002
 qs_env_rebuild_pw_env               10  6.2    0.000    0.000    0.002    0.002
 pw_env_rebuild                       1  5.0    0.000    0.000    0.001    0.001
 qs_ks_update_qs_env                 39  9.0    0.000    0.000    0.001    0.001
 cp_dbcsr_sm_fm_multiply_core        10 11.4    0.000    0.000    0.001    0.001
 dbcsr_copy_submatrix                94 14.8    0.000    0.000    0.001    0.001
 dbcsr_merge_all                    333 14.8    0.001    0.001    0.001    0.001
 compute_matrix_w                     5  6.8    0.000    0.000    0.001    0.001
 calculate_w_matrix_1                 4  8.0    0.000    0.000    0.001    0.001
 pw_grid_setup                        1  6.0    0.000    0.000    0.001    0.001
 pw_grid_setup_internal               1  7.0    0.000    0.000    0.001    0.001
 cp_fm_redistribute_start            47 11.5    0.001    0.001    0.001    0.001
 -------------------------------------------------------------------------------

 The number of warnings for this run is : 0
 
 -------------------------------------------------------------------------------
  **** **** ******  **  PROGRAM ENDED AT                 2026-05-23 22:46:19.529
 ***** ** ***  *** **   PROGRAM RAN ON                                spark-c86c
 **    ****   ******    PROGRAM RAN BY                                  kuehne88
 ***** **    ** ** **   PROGRAM PROCESS ID                               2222427
  **** **  *******  **  PROGRAM STOPPED IN /home/kuehne88/periodic-gfn2-benchmar
                                           ks/X23b/runs/molecule_geoopt/GFN1/pyr
                                           azine_GFN1_mol_geoopt
