 DBCSR| CPU Multiplication driver                                           XSMM (U)
 DBCSR| Multrec recursion limit                                              512 (U)
 DBCSR| Multiplication stack size                                           1000 (D)
 DBCSR| Maximum elements for images                                    UNLIMITED (U)
 DBCSR| Multiplicative factor virtual images                                   1 (U)
 DBCSR| Use multiplication densification                                       T (D)
 DBCSR| Multiplication size stacks                                             3 (U)
 DBCSR| Use memory pool for CPU allocation                                     F (U)
 DBCSR| Number of 3D layers                                               SINGLE (U)
 DBCSR| Use MPI memory allocation                                              F (U)
 DBCSR| Use RMA algorithm                                                      F (U)
 DBCSR| Use Communication thread                                               T (U)
 DBCSR| Communication thread load                                             87 (D)
 DBCSR| MPI: My process id                                                     0
 DBCSR| MPI: Number of processes                                               1
 DBCSR| OMP: Current number of threads                                         1
 DBCSR| OMP: Max number of threads                                             1
 DBCSR| Split modifier for TAS multiplication algorithm                  1.0E+00 (U)


  **** **** ******  **  PROGRAM STARTED AT               2026-05-23 22:46:18.309
 ***** ** ***  *** **   PROGRAM STARTED ON                            spark-c86c
 **    ****   ******    PROGRAM STARTED BY                              kuehne88
 ***** **    ** ** **   PROGRAM PROCESS ID                               2222467
  **** **  *******  **  PROGRAM STARTED IN /home/kuehne88/periodic-gfn2-benchmar
                                           ks/X23b/runs/molecule_geoopt/GFN1/amm
                                           onia_GFN1_mol_geoopt

 CP2K| version string:                 CP2K version 2026.1 (Development Version)
 CP2K| source code revision number:                                   0622d442e4
 CP2K| cp2kflags: omp fftw3 libxc parallel scalapack mpi_f08 xsmm spglib libdftd
 CP2K|            4 dftd4_v3 mctc-lib tblite
 CP2K| is freely available from                            https://www.cp2k.org/
 CP2K| Program compiled at                                   2026-05-23 22:05:08
 CP2K| Program compiled on                                            spark-c86c
 CP2K| Program compiled for                                              aarch64
 CP2K| Data directory path    /home/kuehne88/cp2k-master-tblite-20260523/install
 CP2K| Input file name                               ammonia_GFN1_mol_geoopt.inp

 GLOBAL| Force Environment number                                              1
 GLOBAL| Basis set file name                                           BASIS_SET
 GLOBAL| Potential file name                                           POTENTIAL
 GLOBAL| MM Potential file name                                     MM_POTENTIAL
 GLOBAL| Coordinate file name                                      __STD_INPUT__
 GLOBAL| Method name                                                        CP2K
 GLOBAL| Project name                                    ammonia_GFN1_mol_geoopt
 GLOBAL| Run type                                                        GEO_OPT
 GLOBAL| FFT library                                                       FFTW3
 GLOBAL| Diagonalization library                                       ScaLAPACK
 GLOBAL| Cholesky decomposition library                                ScaLAPACK
 GLOBAL| DGEMM library                                                      BLAS
 GLOBAL| Direct generalized diagonalization requested                          F
 GLOBAL| Orthonormality check for eigenvectors                          DISABLED
 GLOBAL| Matrix multiplication library                                 ScaLAPACK
 GLOBAL| All-to-all communication in single precision                          F
 GLOBAL| FFTs using library dependent lengths                                  F
 GLOBAL| Grid backend                                                       AUTO
 GLOBAL| Global print level                                                  LOW
 GLOBAL| MPI I/O enabled                                                       T
 GLOBAL| Total number of message passing processes                             1
 GLOBAL| Number of distributed systems (nodes)                                 1
 GLOBAL| Number of threads for this process                                    1
 GLOBAL| This output is from process                                           0
 GLOBAL| OpenMP stack size per thread (OMP_STACKSIZE)                    default
 GLOBAL| CPU model name                                                  UNKNOWN
 GLOBAL| CPUID                                                              2200
 GLOBAL| Compiled for CPUID                                                 2000

 *** HINT in environment.F:970 :: The compiler target flags (arm_arch64)   ***
 *** used to build this binary cannot exploit all extensions of this CPU   ***
 *** model (arm_sve256). Consider compiler target flags as part of FCFLAGS ***
 *** and CFLAGS (ARCH file).                                               ***


 MEMORY| system memory details [Kb]
 MEMORY|                        rank 0           min           max       average
 MEMORY| MemTotal            125508532     125508532     125508532     125508532
 MEMORY| MemFree             105700112     105700112     105700112     105700112
 MEMORY| Buffers                865984        865984        865984        865984
 MEMORY| Cached               13214800      13214800      13214800      13214800
 MEMORY| Slab                  1565168       1565168       1565168       1565168
 MEMORY| SReclaimable           888300        888300        888300        888300
 MEMORY| MemLikelyFree       120669196     120669196     120669196     120669196


 GENERATE|  Preliminary Number of Bonds generated:                             0
 GENERATE|  Achieved consistency in connectivity generation.


                  #####   #####        #     #   #     #       #          
                 #     # #     #      #    ##### #     #   # #####  ####  
                 #     # #           #       #   ###   #       #   #    # 
                 #     #  #####     #        #   #  #  #   #   #   ###### 
                 #   # #       #   #         #   #   # #   #   #   #      
                 #    #  #     #  #          #   #  #  # # #   #    #   # 
                  #### #  #####  #           #   ###   ##  #   #     ###  

                                   GFN1-xTB  
                                 Version 0.0                       
                            Johann V. Pototschnig                  



 TOTAL NUMBERS AND MAXIMUM NUMBERS

  Total number of            - Atomic kinds:                                   2
                             - Atoms:                                          4
                             - Shell sets:                                     8
                             - Shells:                                         8
                             - Primitive Cartesian functions:                 45
                             - Cartesian basis functions:                     10
                             - Spherical basis functions:                     10

  Maximum angular momentum of the orbital basis functions:                     1


 SCF PARAMETERS         Density guess:                                     MOPAC
                        --------------------------------------------------------
                        max_scf:                                             300
                        max_scf_history:                                       0
                        max_diis:                                              4
                        --------------------------------------------------------
                        eps_scf:                                        1.00E-09
                        eps_scf_history:                                0.00E+00
                        eps_diis:                                       1.00E-01
                        eps_eigval:                                     1.00E-05
                        --------------------------------------------------------
                        level_shift [a.u.]:                             0.000000
                        added MOs                                         6    0
                        --------------------------------------------------------
                        Mixing method:                           DIRECT_P_MIXING
                        --------------------------------------------------------
                        Smear method:                                FERMI_DIRAC
                        Electronic temperature [K]:                        300.0
                        Electronic temperature [a.u.]:                  9.50E-04
                        Accuracy threshold:                             1.00E-06
                        --------------------------------------------------------
                        No outer SCF

 BFGS| Use rational function optimization for step estimation:                NO
 BFGS| Use model Hessian for initial guess:                                  YES
 BFGS| Restart Hessian:                                                       NO
 BFGS| Trust radius:                                                       0.472

 *******************************************************************************
 ***                     STARTING GEOMETRY OPTIMIZATION                      ***
 ***                                   BFGS                                  ***
 *******************************************************************************

 Extrapolation method: initial_guess

 Number of electrons:                                                          8
 Number of occupied orbitals:                                                  4
 Number of molecular orbitals:                                                10

 Number of orbital functions:                                                 10
 Number of independent orbital functions:                                     10


 SCF WAVEFUNCTION OPTIMIZATION

  Step     Update method      Time    Convergence         Total energy    Change
  ------------------------------------------------------------------------------
     1 TBLite/Diag 0.40E+00    0.0     0.75748251        -4.8113051281 -4.81E+00
     2 TBLite/Diag 0.40E+00    0.0     0.08523504        -4.8278602069 -1.66E-02
     3 TBLite/Diag 0.40E+00    0.0     0.05678154        -4.8302391823 -2.38E-03
     4 TBLite/Diag 0.40E+00    0.0     0.01000807        -4.8303518692 -1.13E-04
     5 TBLite/Diag 0.40E+00    0.0     0.00016272        -4.8303518997 -3.05E-08
     6 TBLite/Diag 0.40E+00    0.0     0.00000023        -4.8303518997 -6.31E-14
     7 TBLite/Diag 0.40E+00    0.0     4.3850E-10        -4.8303518997  3.55E-15

  *** SCF run converged in     7 steps ***


  Core Hamiltonian energy:                                     -4.90355241912786
  Repulsive potential energy:                                   0.05307966477208
  Electrostatic energy:                                         0.02041339961752
  Self-consistent dispersion energy:                            0.00000000000000
  Non-self consistent dispersion energy:                       -0.00029254496921
  Correction for halogen bonding:                               0.00000000000000
  Electronic entropic energy:                                  -0.00000000000000
  Fermi energy:                                                -0.16450341007687

  Total energy:                                                -4.83035189970746
  Total energy (extrapolated to T->0):                         -4.83035189970746

 ENERGY| Total FORCE_EVAL ( QS ) energy [hartree]             -4.830351899707463

 OPT| **************************************************************************
 OPT| Step number                                                              0
 OPT| Optimization method                                                   BFGS
 OPT| Total energy [hartree]                                       -4.8303518997
 OPT| Used time [s]                                                        0.012
 OPT| **************************************************************************
 OPT| Estimated peak process memory [MiB]                                    166

 --------------------------
 OPTIMIZATION STEP:      1
 --------------------------

 Extrapolation method: ASPC

 Number of electrons:                                                          8
 Number of occupied orbitals:                                                  4
 Number of molecular orbitals:                                                10

 Number of orbital functions:                                                 10
 Number of independent orbital functions:                                     10


 SCF WAVEFUNCTION OPTIMIZATION

  Step     Update method      Time    Convergence         Total energy    Change
  ------------------------------------------------------------------------------
     1 TBLite/Diag 0.40E+00    0.0     0.02053410        -4.8304558921 -4.83E+00
     2 TBLite/Diag 0.40E+00    0.0     0.00050210        -4.8304565172 -6.25E-07
     3 TBLite/Diag 0.40E+00    0.0     0.00036506        -4.8304566057 -8.85E-08
     4 TBLite/Diag 0.40E+00    0.0     0.00007758        -4.8304566127 -6.97E-09
     5 TBLite/Diag 0.40E+00    0.0     0.00000004        -4.8304566127 -3.55E-15
     6 TBLite/Diag 0.40E+00    0.0     9.0384E-10        -4.8304566127 -8.88E-16

  *** SCF run converged in     6 steps ***


  Core Hamiltonian energy:                                     -4.90590805260299
  Repulsive potential energy:                                   0.05529898096583
  Electrostatic energy:                                         0.02044499479292
  Self-consistent dispersion energy:                            0.00000000000000
  Non-self consistent dispersion energy:                       -0.00029253587325
  Correction for halogen bonding:                               0.00000000000000
  Electronic entropic energy:                                  -0.00000000000000
  Fermi energy:                                                -0.16404351669898

  Total energy:                                                -4.83045661271749
  Total energy (extrapolated to T->0):                         -4.83045661271749

 ENERGY| Total FORCE_EVAL ( QS ) energy [hartree]             -4.830456612717487

 OPT| **************************************************************************
 OPT| Step number                                                              1
 OPT| Optimization method                                                   BFGS
 OPT| Total energy [hartree]                                       -4.8304566127
 OPT| Effective energy change [hartree]                            -0.0001047130
 OPT| Predicted energy change [hartree]                            -0.0000793907
 OPT| Scaling factor                                                0.0000000000
 OPT| Step size                                                     0.0134315866
 OPT| Trust radius                                                  0.4724315332
 OPT| Decrease in energy                                                     YES
 OPT| Used time [s]                                                        0.011
 OPT|
 OPT| Maximum step size                                             0.0134315866
 OPT| Convergence limit for maximum step size                       0.0030000000
 OPT| Maximum step size is converged                                          NO
 OPT|
 OPT| RMS step size                                                 0.0046936863
 OPT| Convergence limit for RMS step size                           0.0015000000
 OPT| RMS step size is converged                                              NO
 OPT|
 OPT| Maximum gradient                                              0.0020903852
 OPT| Convergence limit for maximum gradient                        0.0004500000
 OPT| Maximum gradient is converged                                           NO
 OPT|
 OPT| RMS gradient                                                  0.0010566180
 OPT| Convergence limit for RMS gradient                            0.0003000000
 OPT| RMS gradient is converged                                               NO
 OPT| **************************************************************************
 OPT| Estimated peak process memory after this step [MiB]                    166

 --------------------------
 OPTIMIZATION STEP:      2
 --------------------------

 Extrapolation method: ASPC

 Number of electrons:                                                          8
 Number of occupied orbitals:                                                  4
 Number of molecular orbitals:                                                10

 Number of orbital functions:                                                 10
 Number of independent orbital functions:                                     10


 SCF WAVEFUNCTION OPTIMIZATION

  Step     Update method      Time    Convergence         Total energy    Change
  ------------------------------------------------------------------------------
     1 TBLite/Diag 0.40E+00    0.0     0.00873583        -4.8304686375 -4.83E+00
     2 TBLite/Diag 0.40E+00    0.0     0.00021962        -4.8304687577 -1.20E-07
     3 TBLite/Diag 0.40E+00    0.0     0.00015972        -4.8304687751 -1.74E-08
     4 TBLite/Diag 0.40E+00    0.0     0.00003286        -4.8304687763 -1.25E-09
     5 TBLite/Diag 0.40E+00    0.0     4.0078E-09        -4.8304687763 -8.88E-16
     6 TBLite/Diag 0.40E+00    0.0     8.1535E-10        -4.8304687763 -5.33E-15

  *** SCF run converged in     6 steps ***


  Core Hamiltonian energy:                                     -4.90705977419987
  Repulsive potential energy:                                   0.05642735775782
  Electrostatic energy:                                         0.02045617333560
  Self-consistent dispersion energy:                            0.00000000000000
  Non-self consistent dispersion energy:                       -0.00029253320020
  Correction for halogen bonding:                               0.00000000000000
  Electronic entropic energy:                                  -0.00000000000000
  Fermi energy:                                                -0.16388085900965

  Total energy:                                                -4.83046877630665
  Total energy (extrapolated to T->0):                         -4.83046877630665

 ENERGY| Total FORCE_EVAL ( QS ) energy [hartree]             -4.830468776306653

 OPT| **************************************************************************
 OPT| Step number                                                              2
 OPT| Optimization method                                                   BFGS
 OPT| Total energy [hartree]                                       -4.8304687763
 OPT| Effective energy change [hartree]                            -0.0000121636
 OPT| Predicted energy change [hartree]                            -0.0000122869
 OPT| Scaling factor                                                0.0000000000
 OPT| Step size                                                     0.0048908402
 OPT| Trust radius                                                  0.4724315332
 OPT| Decrease in energy                                                     YES
 OPT| Used time [s]                                                        0.012
 OPT|
 OPT| Maximum step size                                             0.0048908402
 OPT| Convergence limit for maximum step size                       0.0030000000
 OPT| Maximum step size is converged                                          NO
 OPT|
 OPT| RMS step size                                                 0.0019939121
 OPT| Convergence limit for RMS step size                           0.0015000000
 OPT| RMS step size is converged                                              NO
 OPT|
 OPT| Maximum gradient                                              0.0000712471
 OPT| Convergence limit for maximum gradient                        0.0004500000
 OPT| Maximum gradient is converged                                          YES
 OPT|
 OPT| RMS gradient                                                  0.0000373757
 OPT| Convergence limit for RMS gradient                            0.0003000000
 OPT| RMS gradient is converged                                              YES
 OPT| **************************************************************************
 OPT| Estimated peak process memory after this step [MiB]                    166

 --------------------------
 OPTIMIZATION STEP:      3
 --------------------------

 Extrapolation method: ASPC

 Number of electrons:                                                          8
 Number of occupied orbitals:                                                  4
 Number of molecular orbitals:                                                10

 Number of orbital functions:                                                 10
 Number of independent orbital functions:                                     10


 SCF WAVEFUNCTION OPTIMIZATION

  Step     Update method      Time    Convergence         Total energy    Change
  ------------------------------------------------------------------------------
     1 TBLite/Diag 0.40E+00    0.0     0.00091173        -4.8304688288 -4.83E+00
     2 TBLite/Diag 0.40E+00    0.0     0.00000691        -4.8304688290 -1.18E-10
     3 TBLite/Diag 0.40E+00    0.0     0.00000547        -4.8304688290 -1.58E-11
     4 TBLite/Diag 0.40E+00    0.0     0.00000148        -4.8304688290 -2.52E-12
     5 TBLite/Diag 0.40E+00    0.0     6.4794E-10        -4.8304688290  0.00E+00

  *** SCF run converged in     5 steps ***


  Core Hamiltonian energy:                                     -4.90703819719210
  Repulsive potential energy:                                   0.05640438982900
  Electrostatic energy:                                         0.02045751106735
  Self-consistent dispersion energy:                            0.00000000000000
  Non-self consistent dispersion energy:                       -0.00029253268609
  Correction for halogen bonding:                               0.00000000000000
  Electronic entropic energy:                                  -0.00000000000000
  Fermi energy:                                                -0.16385759826633

  Total energy:                                                -4.83046882898185
  Total energy (extrapolated to T->0):                         -4.83046882898185

 ENERGY| Total FORCE_EVAL ( QS ) energy [hartree]             -4.830468828981848

 OPT| **************************************************************************
 OPT| Step number                                                              3
 OPT| Optimization method                                                   BFGS
 OPT| Total energy [hartree]                                       -4.8304688290
 OPT| Effective energy change [hartree]                            -0.0000000527
 OPT| Predicted energy change [hartree]                            -0.0000000603
 OPT| Scaling factor                                                0.0000000000
 OPT| Step size                                                     0.0006703469
 OPT| Trust radius                                                  0.4724315332
 OPT| Decrease in energy                                                     YES
 OPT| Used time [s]                                                        0.011
 OPT|
 OPT| Maximum step size                                             0.0006703469
 OPT| Convergence limit for maximum step size                       0.0030000000
 OPT| Maximum step size is converged                                         YES
 OPT|
 OPT| RMS step size                                                 0.0003080107
 OPT| Convergence limit for RMS step size                           0.0015000000
 OPT| RMS step size is converged                                             YES
 OPT|
 OPT| Maximum gradient                                              0.0000082214
 OPT| Convergence limit for maximum gradient                        0.0004500000
 OPT| Maximum gradient is converged                                          YES
 OPT|
 OPT| RMS gradient                                                  0.0000045040
 OPT| Convergence limit for RMS gradient                            0.0003000000
 OPT| RMS gradient is converged                                              YES
 OPT| **************************************************************************
 OPT| Estimated peak process memory after this step [MiB]                    166

 *******************************************************************************
 ***                    GEOMETRY OPTIMIZATION COMPLETED                      ***
 *******************************************************************************

 write_final_structure: Optimization converged, writing XYZ file gladly:
  ammonia_GFN1_mol_geoopt-FINAL-1_3.xyz

 write_final_structure: Optimization converged, writing CIF file gladly:
  ammonia_GFN1_mol_geoopt-FINAL-1_3.cif

 write_final_structure: Done!

                    Reevaluating energy at the minimum

 Extrapolation method: ASPC

 Number of electrons:                                                          8
 Number of occupied orbitals:                                                  4
 Number of molecular orbitals:                                                10

 Number of orbital functions:                                                 10
 Number of independent orbital functions:                                     10


 SCF WAVEFUNCTION OPTIMIZATION

  Step     Update method      Time    Convergence         Total energy    Change
  ------------------------------------------------------------------------------
     1 TBLite/Diag 0.40E+00    0.0     4.5272E-10        -4.8304688290 -4.83E+00

  *** SCF run converged in     1 steps ***


  Core Hamiltonian energy:                                     -4.90703819719201
  Repulsive potential energy:                                   0.05640438982900
  Electrostatic energy:                                         0.02045751106726
  Self-consistent dispersion energy:                            0.00000000000000
  Non-self consistent dispersion energy:                       -0.00029253268609
  Correction for halogen bonding:                               0.00000000000000
  Electronic entropic energy:                                  -0.00000000000000
  Fermi energy:                                                -0.16385759826628

  Total energy:                                                -4.83046882898185
  Total energy (extrapolated to T->0):                         -4.83046882898185

 ENERGY| Total FORCE_EVAL ( QS ) energy [hartree]             -4.830468828981846

 -------------------------------------------------------------------------------
 -                                                                             -
 -                                DBCSR STATISTICS                             -
 -                                                                             -
 -------------------------------------------------------------------------------
 COUNTER                                    TOTAL       BLAS       SMM       ACC
 flops     4 x    10 x     4                 3200       0.0%    100.0%      0.0%     
 flops     4 x    10 x     2                 4800       0.0%    100.0%      0.0%     
 flops     2 x    10 x     4                 4800       0.0%    100.0%      0.0%     
 flops     4 x     2 x    10                 5280       0.0%    100.0%      0.0%     
 flops     2 x    10 x     2                 7200       0.0%    100.0%      0.0%     
 flops     4 x     4 x    10                10560       0.0%    100.0%      0.0%     
 flops     2 x     4 x    10                10560       0.0%    100.0%      0.0%     
 flops     2 x     2 x    10                15840       0.0%    100.0%      0.0%     
 flops inhomo. stacks                           0       0.0%      0.0%      0.0%
 flops total                        62.240000E+03       0.0%    100.0%      0.0%
 flops max/rank                     62.240000E+03       0.0%    100.0%      0.0%
 matmuls inhomo. stacks                         0       0.0%      0.0%      0.0%
 matmuls total                                490       0.0%    100.0%      0.0%
 number of processed stacks                   172       0.0%    100.0%      0.0%
 average stack size                                     0.0       2.8       0.0
 marketing flops                    46.400000E+03
 -------------------------------------------------------------------------------
 # multiplications                             43
 max memory usage/rank              13.671047E+09
 # max total images/rank                        1
 # max 3D layers                                1
 # MPI messages exchanged                       0
 -------------------------------------------------------------------------------
 -                                                                             -
 -                      DBCSR MESSAGE PASSING PERFORMANCE                      -
 -                                                                             -
 -------------------------------------------------------------------------------
 ROUTINE             CALLS      AVE VOLUME [Bytes]
 MP_Bcast                9                     12.
 MP_Allreduce          230                     11.
 MP_Alltoall          1338                    612.
 MP_ISend              172                    108.
 MP_IRecv              172                    108.
 -------------------------------------------------------------------------------

 -------------------------------------------------------------------------------
 -                                                                             -
 -                          OFFLOAD MEMPOOL STATISTICS                         -
 -                                                                             -
 -------------------------------------------------------------------------------
 Memory consumption                Number of allocations  Used [MiB]  Size [MiB]
 Device                                                1           0           0
 Host                                                  1           0           0
 -------------------------------------------------------------------------------

 MEMORY| Estimated peak process memory [MiB]                                 166

 -------------------------------------------------------------------------------
 -                                                                             -
 -                         MESSAGE PASSING PERFORMANCE                         -
 -                                                                             -
 -------------------------------------------------------------------------------

 ROUTINE             CALLS      AVE VOLUME [Bytes]
 MP_Group                1
 MP_Bcast               61                     46.
 MP_Allreduce          532                     36.
 MP_Sync                34
 MP_comm_split          33
 -------------------------------------------------------------------------------


 -------------------------------------------------------------------------------
 -                                                                             -
 -                           R E F E R E N C E S                               -
 -                                                                             -
 -------------------------------------------------------------------------------
 
 CP2K version 2026.1 (Development Version), the CP2K developers group (2026).
 CP2K is freely available from https://www.cp2k.org/ .
 
 M. Iannuzzi, J. Wilhelm, F. Stein, A. Bussy, H. Elgabarty, D. Golze, A. Hehn, 
 M. Graml, S. Marek, B. Sertcan Gökmen, C. Schran, H. Forbert, R. Z. 
 Khaliullin, A. Kozhevnikov, M. Taillefumier, R. Meli, V. V. Rybkin, M. Brehm, 
 R. Schade, O. Schütt, J. V. Pototschnig, H. Mirhosseini, A. Knüpfer, D. Marx, 
 M. Krack, J. Hutter, T. D. Kühne.
 J. Phys. Chem. B 130, 1237-1310 (2026).
 The CP2K Program Package Made Simple.
 https://doi.org/10.1021/acs.jpcb.5c05851

 A. Katbashev, M. Stahn, T. Rose, V. Alizadeh, M. Friede, C. Plett, P. 
 Steinbach, S. Ehlert.
 J. Phys. Chem. A 129, 2667-2682 (2025).
 Overview on Building Blocks and Applications of Efficient and Robust Extended 
 Tight Binding.
 https://doi.org/10.1021/acs.jpca.4c08263

 T. D. Kühne, M. Iannuzzi, M. Del Ben, V. V. Rybkin, P. Seewald, F. Stein, T. 
 Laino, R. Z. Khaliullin, O. Schütt, F. Schiffmann, D. Golze, J. Wilhelm, S. 
 Chulkov, M. H. Bani-Hashemian, V. Weber, U. Borstnik, M. Taillefumier, A. S. 
 Jakobovits, A. Lazzaro, H. Pabst, T. Müller, R. Schade, M. Guidon, S. 
 Andermatt, N. Holmberg, G. K. Schenter, A. Hehn, A. Bussy, F. Belleflamme, G. 
 Tabacchi, A. Glöß, M. Lass, I. Bethune, C. J. Mundy, C. Plessl, M. Watkins, 
 J. VandeVondele, M. Krack, J. Hutter.
 J. Chem. Phys. 152, 194103 (2020).
 CP2K: An electronic structure and molecular dynamics software package - 
 Quickstep: Efficient and accurate electronic structure calculations.
 https://doi.org/10.1063/5.0007045

 P. Pracht, E. Caldeweyher, S. Ehlert, S. Grimme.
 ChemRxiv, (2019).
 A Robust Non-Self-Consistent Tight-Binding Quantum Chemistry Method for large 
 Molecules.
 https://doi.org/10.26434/chemrxiv.8326202.v1

 S. Grimme, C. Bannwarth, P. Shushkov.
 J. Chem. Theory Comput. 13, 1989 (2017).
 A Robust and Accurate Tight-Binding Quantum Chemical Method for Structures, 
 Vibrational Frequencies, and Noncovalent Interactions of Large Molecular 
 Systems Parametrized for All spd-Block Elements (Z = 1-86).
 https://doi.org/10.1021/acs.jctc.7b00118

 O. Schuett, P. Messmer, J. Hutter, J. VandeVondele.
 Electronic Structure Calculations on Graphics Processing Units, 173-190 (2016).
 GPU-Accelerated Sparse Matrix-Matrix Multiplication for Linear Scaling Density 
 Functional Theory.
 https://doi.org/10.1002/9781118670712.ch8

 A. Heinecke, G. Henry, M. Hutchinson, H. Pabst.
 Proceedings of Intl. Supercomputing Conference, 981-991 (2016).
 LIBXSMM: Accelerating Small Matrix Multiplications by Runtime Code Generation.
 https://doi.org/10.1109/SC.2016.83

 U. Borstnik, J. VandeVondele, V. Weber, J. Hutter.
 Parallel Comput. 40, 47-58 (2014).
 Sparse matrix multiplication: The distributed block-compressed sparse row 
 library.
 https://doi.org/10.1016/j.parco.2014.03.012

 T. D. Kühne, M. Krack, F. R. Mohamed, M. Parrinello.
 Phys. Rev. Lett. 98, 066401 (2007).
 Efficient and accurate Car-Parrinello-like approach to Born-Oppenheimer 
 molecular dynamics.
 https://doi.org/10.1103/PhysRevLett.98.066401

 M. Frigo, S. G. Johnson.
 Proc. IEEE 93, 216-231 (2005).
 The design and implementation of FFTW3.
 https://doi.org/10.1109/JPROC.2004.840301

 J. Kolafa.
 J. Comput. Chem. 25, 335-342 (2004).
 Time-reversible always stable predictor-corrector method for molecular dynamics 
 of polarizable molecules.
 https://doi.org/10.1002/jcc.10385

 N. D. Mermin.
 Phys. Rev. 137, A1441-A1443 (1965).
 Thermal Properties of the Inhomogeneous Electron Gas.
 https://doi.org/10.1103/PhysRev.137.A1441


 -------------------------------------------------------------------------------
 -                                                                             -
 -                                T I M I N G                                  -
 -                                                                             -
 -------------------------------------------------------------------------------
 SUBROUTINE                       CALLS  ASD         SELF TIME        TOTAL TIME
                                MAXIMUM       AVERAGE  MAXIMUM  AVERAGE  MAXIMUM
 CP2K                                 1  1.0    0.002    0.002    0.058    0.058
 cp_geo_opt                           1  2.0    0.000    0.000    0.049    0.049
 geoopt_bfgs                          1  3.0    0.001    0.001    0.049    0.049
 cp_eval_at                           5  4.0    0.000    0.000    0.045    0.045
 qs_energies                          5  5.8    0.000    0.000    0.043    0.043
 qs_forces                            4  5.0    0.000    0.000    0.043    0.043
 scf_env_do_scf                       5  6.8    0.000    0.000    0.030    0.030
 scf_env_do_scf_inner_loop           25  8.0    0.001    0.001    0.030    0.030
 qs_scf_new_mos                      25  9.0    0.000    0.000    0.026    0.026
 cp_dbcsr_plus_fm_fm_t               33 10.7    0.000    0.000    0.017    0.017
 calculate_dm_sparse                 29  9.9    0.000    0.000    0.015    0.015
 dbcsr_multiply_generic              43 11.9    0.001    0.001    0.014    0.014
 copy_dbcsr_to_fm                    60 10.4    0.000    0.000    0.008    0.008
 init_scf_run                         5  6.8    0.000    0.000    0.008    0.008
 make_m2s                            86 12.9    0.000    0.000    0.007    0.007
 dbcsr_complete_redistribute        136 12.1    0.003    0.003    0.007    0.007
 scf_env_initial_rho_setup            5  7.8    0.000    0.000    0.007    0.007
 wfi_extrapolate                      5  8.8    0.000    0.000    0.007    0.007
 qs_init_subsys                       1  2.0    0.002    0.002    0.006    0.006
 qs_diis_b_step                      20 10.0    0.000    0.000    0.004    0.004
 cp_fm_syevd                         33 10.3    0.000    0.000    0.004    0.004
 eigensolver                         25 10.0    0.001    0.001    0.004    0.004
 copy_fm_to_dbcsr                    76 11.7    0.000    0.000    0.004    0.004
 cp_dbcsr_sm_fm_multiply             10 10.4    0.000    0.000    0.004    0.004
 multiply_cannon                     43 12.9    0.002    0.002    0.004    0.004
 make_images                         86 13.9    0.001    0.001    0.003    0.003
 dbcsr_finalize                     557 12.8    0.001    0.001    0.003    0.003
 dbcsr_create_new                  1006 13.2    0.002    0.002    0.003    0.003
 reorthogonalize_vectors              4  9.8    0.000    0.000    0.003    0.003
 make_basis_lowdin                    4 10.8    0.000    0.000    0.003    0.003
 qs_env_setup                         1  3.0    0.000    0.000    0.002    0.002
 qs_env_rebuild_pw_env               10  6.2    0.000    0.000    0.002    0.002
 pw_env_rebuild                       1  5.0    0.000    0.000    0.002    0.002
 compute_matrix_w                     5  6.8    0.000    0.000    0.002    0.002
 calculate_w_matrix_1                 4  8.0    0.000    0.000    0.002    0.002
 cp_dbcsr_sm_fm_multiply_core        10 11.4    0.000    0.000    0.002    0.002
 build_tblite_matrices                9  7.0    0.002    0.002    0.002    0.002
 dbcsr_crop_matrix                   66 13.7    0.000    0.000    0.002    0.002
 parallel_gemm_fm_gemm               64 10.4    0.000    0.000    0.002    0.002
 dbcsr_desymmetrize_deep             60 11.4    0.001    0.001    0.002    0.002
 cp_fm_gemm                          64 11.4    0.002    0.002    0.002    0.002
 cp_fm_syevd_base                    33 11.3    0.002    0.002    0.002    0.002
 cp_fm_redistribute_start            33 11.3    0.001    0.001    0.002    0.002
 pw_grid_setup                        1  6.0    0.000    0.000    0.002    0.002
 pw_grid_setup_internal               1  7.0    0.000    0.000    0.002    0.002
 rebuild_ks_matrix                   29  9.6    0.000    0.000    0.002    0.002
 build_tblite_ks_matrix              29 10.6    0.001    0.001    0.002    0.002
 qs_energies_init_hamiltonians        5  6.8    0.000    0.000    0.002    0.002
 dbcsr_copy_submatrix                66 14.7    0.000    0.000    0.002    0.002
 write_restart                        4  4.0    0.001    0.001    0.001    0.001
 dbcsr_merge_all                    235 14.8    0.001    0.001    0.001    0.001
 scf_c_write_parameters               1  3.0    0.001    0.001    0.001    0.001
 pw_grid_sort                         1  8.0    0.001    0.001    0.001    0.001
 make_images_data                    86 14.9    0.000    0.000    0.001    0.001
 dbcsr_destroy                      952 12.6    0.001    0.001    0.001    0.001
 -------------------------------------------------------------------------------

 The number of warnings for this run is : 0
 
 -------------------------------------------------------------------------------
  **** **** ******  **  PROGRAM ENDED AT                 2026-05-23 22:46:19.716
 ***** ** ***  *** **   PROGRAM RAN ON                                spark-c86c
 **    ****   ******    PROGRAM RAN BY                                  kuehne88
 ***** **    ** ** **   PROGRAM PROCESS ID                               2222467
  **** **  *******  **  PROGRAM STOPPED IN /home/kuehne88/periodic-gfn2-benchmar
                                           ks/X23b/runs/molecule_geoopt/GFN1/amm
                                           onia_GFN1_mol_geoopt
