 DBCSR| CPU Multiplication driver                                           XSMM (U)
 DBCSR| Multrec recursion limit                                              512 (U)
 DBCSR| Multiplication stack size                                           1000 (D)
 DBCSR| Maximum elements for images                                    UNLIMITED (U)
 DBCSR| Multiplicative factor virtual images                                   1 (U)
 DBCSR| Use multiplication densification                                       T (D)
 DBCSR| Multiplication size stacks                                             3 (U)
 DBCSR| Use memory pool for CPU allocation                                     F (U)
 DBCSR| Number of 3D layers                                               SINGLE (U)
 DBCSR| Use MPI memory allocation                                              F (U)
 DBCSR| Use RMA algorithm                                                      F (U)
 DBCSR| Use Communication thread                                               T (U)
 DBCSR| Communication thread load                                             87 (D)
 DBCSR| MPI: My process id                                                     0
 DBCSR| MPI: Number of processes                                               1
 DBCSR| OMP: Current number of threads                                         1
 DBCSR| OMP: Max number of threads                                             1
 DBCSR| Split modifier for TAS multiplication algorithm                  1.0E+00 (U)


  **** **** ******  **  PROGRAM STARTED AT               2026-05-23 22:47:02.027
 ***** ** ***  *** **   PROGRAM STARTED ON                            spark-c86c
 **    ****   ******    PROGRAM STARTED BY                              kuehne88
 ***** **    ** ** **   PROGRAM PROCESS ID                               2266814
  **** **  *******  **  PROGRAM STARTED IN /home/kuehne88/periodic-gfn2-benchmar
                                           ks/X23b/runs/cellopt_gamma/GFN1/triaz
                                           ine_GFN1_gamma_cellopt

 CP2K| version string:                 CP2K version 2026.1 (Development Version)
 CP2K| source code revision number:                                   0622d442e4
 CP2K| cp2kflags: omp fftw3 libxc parallel scalapack mpi_f08 xsmm spglib libdftd
 CP2K|            4 dftd4_v3 mctc-lib tblite
 CP2K| is freely available from                            https://www.cp2k.org/
 CP2K| Program compiled at                                   2026-05-23 22:05:08
 CP2K| Program compiled on                                            spark-c86c
 CP2K| Program compiled for                                              aarch64
 CP2K| Data directory path    /home/kuehne88/cp2k-master-tblite-20260523/install
 CP2K| Input file name                           triazine_GFN1_gamma_cellopt.inp

 GLOBAL| Force Environment number                                              1
 GLOBAL| Basis set file name                                           BASIS_SET
 GLOBAL| Potential file name                                           POTENTIAL
 GLOBAL| MM Potential file name                                     MM_POTENTIAL
 GLOBAL| Coordinate file name                                      __STD_INPUT__
 GLOBAL| Method name                                                        CP2K
 GLOBAL| Project name                               triazine_GFN1_gamma_cell_opt
 GLOBAL| Run type                                                       CELL_OPT
 GLOBAL| FFT library                                                       FFTW3
 GLOBAL| Diagonalization library                                       ScaLAPACK
 GLOBAL| Cholesky decomposition library                                ScaLAPACK
 GLOBAL| DGEMM library                                                      BLAS
 GLOBAL| Direct generalized diagonalization requested                          F
 GLOBAL| Orthonormality check for eigenvectors                          DISABLED
 GLOBAL| Matrix multiplication library                                 ScaLAPACK
 GLOBAL| All-to-all communication in single precision                          F
 GLOBAL| FFTs using library dependent lengths                                  F
 GLOBAL| Grid backend                                                       AUTO
 GLOBAL| Global print level                                                  LOW
 GLOBAL| MPI I/O enabled                                                       T
 GLOBAL| Total number of message passing processes                             1
 GLOBAL| Number of distributed systems (nodes)                                 1
 GLOBAL| Number of threads for this process                                    1
 GLOBAL| This output is from process                                           0
 GLOBAL| OpenMP stack size per thread (OMP_STACKSIZE)                    default
 GLOBAL| CPU model name                                                  UNKNOWN
 GLOBAL| CPUID                                                              2200
 GLOBAL| Compiled for CPUID                                                 2000

 *** HINT in environment.F:970 :: The compiler target flags (arm_arch64)   ***
 *** used to build this binary cannot exploit all extensions of this CPU   ***
 *** model (arm_sve256). Consider compiler target flags as part of FCFLAGS ***
 *** and CFLAGS (ARCH file).                                               ***


 MEMORY| system memory details [Kb]
 MEMORY|                        rank 0           min           max       average
 MEMORY| MemTotal            125508532     125508532     125508532     125508532
 MEMORY| MemFree             103572100     103572100     103572100     103572100
 MEMORY| Buffers                867616        867616        867616        867616
 MEMORY| Cached               14020648      14020648      14020648      14020648
 MEMORY| Slab                  1592380       1592380       1592380       1592380
 MEMORY| SReclaimable           914132        914132        914132        914132
 MEMORY| MemLikelyFree       119374496     119374496     119374496     119374496


 GENERATE|  Preliminary Number of Bonds generated:                             0
 GENERATE|  Achieved consistency in connectivity generation.


                  #####   #####        #     #   #     #       #          
                 #     # #     #      #    ##### #     #   # #####  ####  
                 #     # #           #       #   ###   #       #   #    # 
                 #     #  #####     #        #   #  #  #   #   #   ###### 
                 #   # #       #   #         #   #   # #   #   #   #      
                 #    #  #     #  #          #   #  #  # # #   #    #   # 
                  #### #  #####  #           #   ###   ##  #   #     ###  

                                   GFN1-xTB  
                                 Version 0.0                       
                            Johann V. Pototschnig                  



 TOTAL NUMBERS AND MAXIMUM NUMBERS

  Total number of            - Atomic kinds:                                   3
                             - Atoms:                                         54
                             - Shell sets:                                   108
                             - Shells:                                       108
                             - Primitive Cartesian functions:                630
                             - Cartesian basis functions:                    180
                             - Spherical basis functions:                    180

  Maximum angular momentum of the orbital basis functions:                     1


 SCF PARAMETERS         Density guess:                                     MOPAC
                        --------------------------------------------------------
                        max_scf:                                             300
                        max_scf_history:                                       0
                        max_diis:                                              4
                        --------------------------------------------------------
                        eps_scf:                                        1.00E-09
                        eps_scf_history:                                0.00E+00
                        eps_diis:                                       1.00E-01
                        eps_eigval:                                     1.00E-05
                        --------------------------------------------------------
                        level_shift [a.u.]:                             0.000000
                        added MOs                                        90    0
                        --------------------------------------------------------
                        Mixing method:                           DIRECT_P_MIXING
                        --------------------------------------------------------
                        Smear method:                                FERMI_DIRAC
                        Electronic temperature [K]:                        300.0
                        Electronic temperature [a.u.]:                  9.50E-04
                        Accuracy threshold:                             1.00E-06
                        --------------------------------------------------------
                        No outer SCF

 CELL_OPT| Pressure tolerance [bar]:                                       100.0
 CELL_OPT| Keep volume of cell:                                               NO
 CELL_OPT| Keep angles between the cell vectors:                              NO
 CELL_OPT| Keep cell symmetry:                                                NO
 CELL_OPT| Constraint:                                                      NONE

 BFGS| Use rational function optimization for step estimation:                NO
 BFGS| Use model Hessian for initial guess:                                   NO
 BFGS| Restart Hessian:                                                       NO
 BFGS| Trust radius:                                                       0.472

 *******************************************************************************
 ***                     STARTING   CELL   OPTIMIZATION                      ***
 ***                                   BFGS                                  ***
 *******************************************************************************

 CELL| Volume [angstrom^3]:                                           586.821774
 CELL| Vector a [angstrom]:       9.647     0.000     0.000   |a| =     9.647000
 CELL| Vector b [angstrom]:      -4.824     8.355     0.000   |b| =     9.647000
 CELL| Vector c [angstrom]:       0.000     0.000     7.281   |c| =     7.281000
 CELL| Angle (b,c), alpha [degree]:                                    90.000000
 CELL| Angle (a,c), beta  [degree]:                                    90.000000
 CELL| Angle (a,b), gamma [degree]:                                   120.000000
 CELL| Numerically orthorhombic:                                              NO
 CELL| Periodicity                                                           XYZ

 Extrapolation method: initial_guess

 Number of electrons:                                                        180
 Number of occupied orbitals:                                                 90
 Number of molecular orbitals:                                               180

 Number of orbital functions:                                                180
 Number of independent orbital functions:                                    180


 SCF WAVEFUNCTION OPTIMIZATION

  Step     Update method      Time    Convergence         Total energy    Change
  ------------------------------------------------------------------------------
     1 TBLite/Diag 0.40E+00    0.0     1.50215216      -103.3550136291 -1.03E+02
     2 TBLite/Diag 0.40E+00    0.0     0.34451325      -104.6582686780 -1.30E+00
     3 TBLite/Diag 0.40E+00    0.0     0.02295845      -104.6620534630 -3.78E-03
     4 TBLite/Diag 0.40E+00    0.0     0.01556099      -104.6625134799 -4.60E-04
     5 TBLite/Diag 0.40E+00    0.0     0.00984299      -104.6627544733 -2.41E-04
     6 TBLite/Diag 0.40E+00    0.0     0.00407196      -104.6628924853 -1.38E-04
     7 TBLite/Diag 0.40E+00    0.0     0.00051513      -104.6628948456 -2.36E-06
     8 TBLite/Diag 0.40E+00    0.0     0.00002334      -104.6628948591 -1.35E-08
     9 TBLite/Diag 0.40E+00    0.0     0.00001560      -104.6628948616 -2.59E-09
    10 TBLite/Diag 0.40E+00    0.0     8.1285E-10      -104.6628948616  5.68E-14

  *** SCF run converged in    10 steps ***


  Core Hamiltonian energy:                                   -106.84566694758551
  Repulsive potential energy:                                   2.01278063987962
  Electrostatic energy:                                         0.27314794871230
  Self-consistent dispersion energy:                            0.00000000000000
  Non-self consistent dispersion energy:                       -0.10315650265110
  Correction for halogen bonding:                               0.00000000000000
  Electronic entropic energy:                                  -0.00000000000000
  Fermi energy:                                                -0.33823226546604

  Total energy:                                              -104.66289486164470
  Total energy (extrapolated to T->0):                       -104.66289486164470

 ENERGY| Total FORCE_EVAL ( QS ) energy [hartree]           -104.662894861644702

 OPT| **************************************************************************
 OPT| Step number                                                              0
 OPT| Optimization method                                                   BFGS
 OPT| Total energy [hartree]                                     -104.6628948616
 OPT| Internal pressure [bar]                                  185021.8279860808
 OPT| Used time [s]                                                        0.891
 OPT| **************************************************************************
 OPT| Estimated peak process memory [MiB]                                    173

 --------------------------
 OPTIMIZATION STEP:      1
 --------------------------

 CELL| Volume [angstrom^3]:                                           602.232839
 CELL| Vector a [angstrom]:       9.756     0.000     0.000   |a| =     9.756475
 CELL| Vector b [angstrom]:      -4.824     8.481     0.000   |b| =     9.756680
 CELL| Vector c [angstrom]:       0.000     0.000     7.278   |c| =     7.278243
 CELL| Angle (b,c), alpha [degree]:                                    90.000000
 CELL| Angle (a,c), beta  [degree]:                                    90.000000
 CELL| Angle (a,b), gamma [degree]:                                   119.628824
 CELL| Numerically orthorhombic:                                              NO
 CELL| Periodicity                                                           XYZ

 Extrapolation method: ASPC

 Number of electrons:                                                        180
 Number of occupied orbitals:                                                 90
 Number of molecular orbitals:                                               180

 Number of orbital functions:                                                180
 Number of independent orbital functions:                                    180


 SCF WAVEFUNCTION OPTIMIZATION

  Step     Update method      Time    Convergence         Total energy    Change
  ------------------------------------------------------------------------------
     1 TBLite/Diag 0.40E+00    0.0     0.11322364      -104.9445774883 -1.05E+02
     2 TBLite/Diag 0.40E+00    0.0     0.00985815      -104.9462212336 -1.64E-03
     3 TBLite/Diag 0.40E+00    0.0     0.00382430      -104.9463312024 -1.10E-04
     4 TBLite/Diag 0.40E+00    0.0     0.00125223      -104.9463394123 -8.21E-06
     5 TBLite/Diag 0.40E+00    0.0     0.00052359      -104.9463420909 -2.68E-06
     6 TBLite/Diag 0.40E+00    0.0     0.00003550      -104.9463421043 -1.34E-08
     7 TBLite/Diag 0.40E+00    0.0     0.00000372      -104.9463421044 -7.80E-11
     8 TBLite/Diag 0.40E+00    0.0     0.00000015      -104.9463421044 -3.98E-13
     9 TBLite/Diag 0.40E+00    0.0     0.00000005      -104.9463421044  2.84E-14
    10 TBLite/Diag 0.40E+00    0.0     0.00000001      -104.9463421044  1.14E-13
    11 TBLite/Diag 0.40E+00    0.0     7.7216E-10      -104.9463421044 -5.68E-14

  *** SCF run converged in    11 steps ***


  Core Hamiltonian energy:                                   -106.51868157394479
  Repulsive potential energy:                                   1.40209737713050
  Electrostatic energy:                                         0.26571096919268
  Self-consistent dispersion energy:                            0.00000000000000
  Non-self consistent dispersion energy:                       -0.09546887678820
  Correction for halogen bonding:                               0.00000000000000
  Electronic entropic energy:                                  -0.00000000000000
  Fermi energy:                                                -0.33698618537255

  Total energy:                                              -104.94634210440981
  Total energy (extrapolated to T->0):                       -104.94634210440981

 ENERGY| Total FORCE_EVAL ( QS ) energy [hartree]           -104.946342104409808

 OPT| **************************************************************************
 OPT| Step number                                                              1
 OPT| Optimization method                                                   BFGS
 OPT| Total energy [hartree]                                     -104.9463421044
 OPT| Internal pressure [bar]                                   70833.7563048210
 OPT| Effective energy change [hartree]                            -0.2834472428
 OPT| Predicted energy change [hartree]                            -0.4301616361
 OPT| Scaling factor                                                0.0000000000
 OPT| Step size                                                     0.2388829112
 OPT| Trust radius                                                  0.4724315332
 OPT| Decrease in energy                                                     YES
 OPT| Used time [s]                                                        0.887
 OPT|
 OPT| Maximum step size                                             0.2388829112
 OPT| Convergence limit for maximum step size                       0.0030000000
 OPT| Maximum step size is converged                                          NO
 OPT|
 OPT| RMS step size                                                 0.0715609660
 OPT| Convergence limit for RMS step size                           0.0015000000
 OPT| RMS step size is converged                                              NO
 OPT|
 OPT| Maximum gradient                                              0.0874523847
 OPT| Convergence limit for maximum gradient                        0.0004500000
 OPT| Maximum gradient is converged                                           NO
 OPT|
 OPT| RMS gradient                                                  0.0302454971
 OPT| Convergence limit for RMS gradient                            0.0003000000
 OPT| RMS gradient is converged                                               NO
 OPT|
 OPT| Pressure deviation [bar]                                  70833.7563048210
 OPT| Pressure tolerance [bar]                                    100.0000000000
 OPT| Pressure is converged                                                   NO
 OPT| **************************************************************************
 OPT| Estimated peak process memory after this step [MiB]                    175

 --------------------------
 OPTIMIZATION STEP:      2
 --------------------------

 CELL| Volume [angstrom^3]:                                           608.941073
 CELL| Vector a [angstrom]:       9.806     0.000     0.000   |a| =     9.806352
 CELL| Vector b [angstrom]:      -4.829     8.535     0.000   |b| =     9.806588
 CELL| Vector c [angstrom]:      -0.000     0.000     7.275   |c| =     7.275241
 CELL| Angle (b,c), alpha [degree]:                                    89.999156
 CELL| Angle (a,c), beta  [degree]:                                    90.000842
 CELL| Angle (a,b), gamma [degree]:                                   119.498682
 CELL| Numerically orthorhombic:                                              NO
 CELL| Periodicity                                                           XYZ

 Extrapolation method: ASPC

 Number of electrons:                                                        180
 Number of occupied orbitals:                                                 90
 Number of molecular orbitals:                                               180

 Number of orbital functions:                                                180
 Number of independent orbital functions:                                    180


 SCF WAVEFUNCTION OPTIMIZATION

  Step     Update method      Time    Convergence         Total energy    Change
  ------------------------------------------------------------------------------
     1 TBLite/Diag 0.40E+00    0.0     0.04332235      -105.0319566644 -1.05E+02
     2 TBLite/Diag 0.40E+00    0.0     0.00295436      -105.0320643628 -1.08E-04
     3 TBLite/Diag 0.40E+00    0.0     0.00094291      -105.0320753788 -1.10E-05
     4 TBLite/Diag 0.40E+00    0.0     0.00028063      -105.0320757598 -3.81E-07
     5 TBLite/Diag 0.40E+00    0.0     0.00008759      -105.0320758223 -6.25E-08
     6 TBLite/Diag 0.40E+00    0.0     0.00001253      -105.0320758235 -1.20E-09
     7 TBLite/Diag 0.40E+00    0.0     0.00000199      -105.0320758235 -4.00E-11
     8 TBLite/Diag 0.40E+00    0.0     0.00000069      -105.0320758235 -3.28E-12
     9 TBLite/Diag 0.40E+00    0.0     0.00000001      -105.0320758235 -1.14E-13
    10 TBLite/Diag 0.40E+00    0.0     1.1163E-09      -105.0320758235  7.11E-14
    11 TBLite/Diag 0.40E+00    0.0     3.3699E-11      -105.0320758235 -1.42E-14

  *** SCF run converged in    11 steps ***


  Core Hamiltonian energy:                                   -106.49987581838265
  Repulsive potential energy:                                   1.29729853038327
  Electrostatic energy:                                         0.26959764115012
  Self-consistent dispersion energy:                            0.00000000000000
  Non-self consistent dispersion energy:                       -0.09909617667583
  Correction for halogen bonding:                               0.00000000000000
  Electronic entropic energy:                                  -0.00000000000000
  Fermi energy:                                                -0.34151826873069

  Total energy:                                              -105.03207582352509
  Total energy (extrapolated to T->0):                       -105.03207582352509

 ENERGY| Total FORCE_EVAL ( QS ) energy [hartree]           -105.032075823525091

 OPT| **************************************************************************
 OPT| Step number                                                              2
 OPT| Optimization method                                                   BFGS
 OPT| Total energy [hartree]                                     -105.0320758235
 OPT| Internal pressure [bar]                                   20609.4150368861
 OPT| Effective energy change [hartree]                            -0.0857337191
 OPT| Predicted energy change [hartree]                            -0.0585022341
 OPT| Scaling factor                                                0.0000000000
 OPT| Step size                                                     0.1027490349
 OPT| Trust radius                                                  0.4724315332
 OPT| Decrease in energy                                                     YES
 OPT| Used time [s]                                                        0.891
 OPT|
 OPT| Maximum step size                                             0.1027490349
 OPT| Convergence limit for maximum step size                       0.0030000000
 OPT| Maximum step size is converged                                          NO
 OPT|
 OPT| RMS step size                                                 0.0242404972
 OPT| Convergence limit for RMS step size                           0.0015000000
 OPT| RMS step size is converged                                              NO
 OPT|
 OPT| Maximum gradient                                              0.0345672943
 OPT| Convergence limit for maximum gradient                        0.0004500000
 OPT| Maximum gradient is converged                                           NO
 OPT|
 OPT| RMS gradient                                                  0.0133580630
 OPT| Convergence limit for RMS gradient                            0.0003000000
 OPT| RMS gradient is converged                                               NO
 OPT|
 OPT| Pressure deviation [bar]                                  20609.4150368861
 OPT| Pressure tolerance [bar]                                    100.0000000000
 OPT| Pressure is converged                                                   NO
 OPT| **************************************************************************
 OPT| Estimated peak process memory after this step [MiB]                    176

 --------------------------
 OPTIMIZATION STEP:      3
 --------------------------

 CELL| Volume [angstrom^3]:                                           613.318780
 CELL| Vector a [angstrom]:       9.843     0.000     0.000   |a| =     9.842910
 CELL| Vector b [angstrom]:      -4.838     8.572     0.000   |b| =     9.843158
 CELL| Vector c [angstrom]:      -0.000     0.000     7.269   |c| =     7.268880
 CELL| Angle (b,c), alpha [degree]:                                    89.996583
 CELL| Angle (a,c), beta  [degree]:                                    90.003411
 CELL| Angle (a,b), gamma [degree]:                                   119.438363
 CELL| Numerically orthorhombic:                                              NO
 CELL| Periodicity                                                           XYZ

 Extrapolation method: ASPC

 Number of electrons:                                                        180
 Number of occupied orbitals:                                                 90
 Number of molecular orbitals:                                               180

 Number of orbital functions:                                                180
 Number of independent orbital functions:                                    180


 SCF WAVEFUNCTION OPTIMIZATION

  Step     Update method      Time    Convergence         Total energy    Change
  ------------------------------------------------------------------------------
     1 TBLite/Diag 0.40E+00    0.0     0.04505545      -105.0612591408 -1.05E+02
     2 TBLite/Diag 0.40E+00    0.0     0.00389234      -105.0613559702 -9.68E-05
     3 TBLite/Diag 0.40E+00    0.0     0.00067367      -105.0613617330 -5.76E-06
     4 TBLite/Diag 0.40E+00    0.0     0.00031260      -105.0613623721 -6.39E-07
     5 TBLite/Diag 0.40E+00    0.0     0.00011746      -105.0613624713 -9.92E-08
     6 TBLite/Diag 0.40E+00    0.0     0.00002064      -105.0613624742 -2.83E-09
     7 TBLite/Diag 0.40E+00    0.0     0.00000073      -105.0613624742 -7.92E-12
     8 TBLite/Diag 0.40E+00    0.0     0.00000040      -105.0613624742 -6.82E-13
     9 TBLite/Diag 0.40E+00    0.0     0.00000002      -105.0613624742  5.68E-14
    10 TBLite/Diag 0.40E+00    0.0     8.7894E-10      -105.0613624742 -1.42E-13

  *** SCF run converged in    10 steps ***


  Core Hamiltonian energy:                                   -106.49736609527234
  Repulsive potential energy:                                   1.26158988856614
  Electrostatic energy:                                         0.27508786768021
  Self-consistent dispersion energy:                            0.00000000000000
  Non-self consistent dispersion energy:                       -0.10067413513355
  Correction for halogen bonding:                               0.00000000000000
  Electronic entropic energy:                                  -0.00000000000000
  Fermi energy:                                                -0.34320119910438

  Total energy:                                              -105.06136247415952
  Total energy (extrapolated to T->0):                       -105.06136247415952

 ENERGY| Total FORCE_EVAL ( QS ) energy [hartree]           -105.061362474159523

 OPT| **************************************************************************
 OPT| Step number                                                              3
 OPT| Optimization method                                                   BFGS
 OPT| Total energy [hartree]                                     -105.0613624742
 OPT| Internal pressure [bar]                                   -4016.5535384083
 OPT| Effective energy change [hartree]                            -0.0292866506
 OPT| Predicted energy change [hartree]                            -0.0252399149
 OPT| Scaling factor                                                0.0000000000
 OPT| Step size                                                     0.0697828120
 OPT| Trust radius                                                  0.4724315332
 OPT| Decrease in energy                                                     YES
 OPT| Used time [s]                                                        0.872
 OPT|
 OPT| Maximum step size                                             0.0697828120
 OPT| Convergence limit for maximum step size                       0.0030000000
 OPT| Maximum step size is converged                                          NO
 OPT|
 OPT| RMS step size                                                 0.0235682217
 OPT| Convergence limit for RMS step size                           0.0015000000
 OPT| RMS step size is converged                                              NO
 OPT|
 OPT| Maximum gradient                                              0.0089658526
 OPT| Convergence limit for maximum gradient                        0.0004500000
 OPT| Maximum gradient is converged                                           NO
 OPT|
 OPT| RMS gradient                                                  0.0039987629
 OPT| Convergence limit for RMS gradient                            0.0003000000
 OPT| RMS gradient is converged                                               NO
 OPT|
 OPT| Pressure deviation [bar]                                  -4016.5535384083
 OPT| Pressure tolerance [bar]                                    100.0000000000
 OPT| Pressure is converged                                                   NO
 OPT| **************************************************************************
 OPT| Estimated peak process memory after this step [MiB]                    177

 --------------------------
 OPTIMIZATION STEP:      4
 --------------------------

 CELL| Volume [angstrom^3]:                                           613.519017
 CELL| Vector a [angstrom]:       9.849     0.000     0.000   |a| =     9.848696
 CELL| Vector b [angstrom]:      -4.843     8.576     0.000   |b| =     9.848926
 CELL| Vector c [angstrom]:      -0.001     0.000     7.264   |c| =     7.264069
 CELL| Angle (b,c), alpha [degree]:                                    89.994294
 CELL| Angle (a,c), beta  [degree]:                                    90.005694
 CELL| Angle (a,b), gamma [degree]:                                   119.457131
 CELL| Numerically orthorhombic:                                              NO
 CELL| Periodicity                                                           XYZ

 Extrapolation method: ASPC

 Number of electrons:                                                        180
 Number of occupied orbitals:                                                 90
 Number of molecular orbitals:                                               180

 Number of orbital functions:                                                180
 Number of independent orbital functions:                                    180


 SCF WAVEFUNCTION OPTIMIZATION

  Step     Update method      Time    Convergence         Total energy    Change
  ------------------------------------------------------------------------------
     1 TBLite/Diag 0.40E+00    0.0     0.01128306      -105.0638626599 -1.05E+02
     2 TBLite/Diag 0.40E+00    0.0     0.00198392      -105.0638819175 -1.93E-05
     3 TBLite/Diag 0.40E+00    0.0     0.00045190      -105.0638826522 -7.35E-07
     4 TBLite/Diag 0.40E+00    0.0     0.00010996      -105.0638827604 -1.08E-07
     5 TBLite/Diag 0.40E+00    0.0     0.00001333      -105.0638827620 -1.56E-09
     6 TBLite/Diag 0.40E+00    0.0     0.00000546      -105.0638827622 -1.77E-10
     7 TBLite/Diag 0.40E+00    0.0     0.00000054      -105.0638827622 -3.87E-12
     8 TBLite/Diag 0.40E+00    0.0     0.00000011      -105.0638827622 -2.13E-13
     9 TBLite/Diag 0.40E+00    0.0     0.00000001      -105.0638827622  2.42E-13
    10 TBLite/Diag 0.40E+00    0.0     3.9505E-10      -105.0638827622 -8.53E-14

  *** SCF run converged in    10 steps ***


  Core Hamiltonian energy:                                   -106.49927413435492
  Repulsive potential energy:                                   1.26018224211774
  Electrostatic energy:                                         0.27600569935242
  Self-consistent dispersion energy:                            0.00000000000000
  Non-self consistent dispersion energy:                       -0.10079656930161
  Correction for halogen bonding:                               0.00000000000000
  Electronic entropic energy:                                  -0.00000000000000
  Fermi energy:                                                -0.34269159487207

  Total energy:                                              -105.06388276218638
  Total energy (extrapolated to T->0):                       -105.06388276218638

 ENERGY| Total FORCE_EVAL ( QS ) energy [hartree]           -105.063882762186381

 OPT| **************************************************************************
 OPT| Step number                                                              4
 OPT| Optimization method                                                   BFGS
 OPT| Total energy [hartree]                                     -105.0638827622
 OPT| Internal pressure [bar]                                   -5000.5343407809
 OPT| Effective energy change [hartree]                            -0.0025202880
 OPT| Predicted energy change [hartree]                            -0.0017583543
 OPT| Scaling factor                                                0.0000000000
 OPT| Step size                                                     0.0143690970
 OPT| Trust radius                                                  0.4724315332
 OPT| Decrease in energy                                                     YES
 OPT| Used time [s]                                                        0.813
 OPT|
 OPT| Maximum step size                                             0.0143690970
 OPT| Convergence limit for maximum step size                       0.0030000000
 OPT| Maximum step size is converged                                          NO
 OPT|
 OPT| RMS step size                                                 0.0063041569
 OPT| Convergence limit for RMS step size                           0.0015000000
 OPT| RMS step size is converged                                              NO
 OPT|
 OPT| Maximum gradient                                              0.0069948771
 OPT| Convergence limit for maximum gradient                        0.0004500000
 OPT| Maximum gradient is converged                                           NO
 OPT|
 OPT| RMS gradient                                                  0.0022436151
 OPT| Convergence limit for RMS gradient                            0.0003000000
 OPT| RMS gradient is converged                                               NO
 OPT|
 OPT| Pressure deviation [bar]                                  -5000.5343407809
 OPT| Pressure tolerance [bar]                                    100.0000000000
 OPT| Pressure is converged                                                   NO
 OPT| **************************************************************************
 OPT| Estimated peak process memory after this step [MiB]                    177

 --------------------------
 OPTIMIZATION STEP:      5
 --------------------------

 CELL| Volume [angstrom^3]:                                           612.870722
 CELL| Vector a [angstrom]:       9.850     0.000     0.000   |a| =     9.849996
 CELL| Vector b [angstrom]:      -4.850     8.574     0.000   |b| =     9.850204
 CELL| Vector c [angstrom]:      -0.001     0.001     7.257   |c| =     7.257236
 CELL| Angle (b,c), alpha [degree]:                                    89.991053
 CELL| Angle (a,c), beta  [degree]:                                    90.008925
 CELL| Angle (a,b), gamma [degree]:                                   119.495432
 CELL| Numerically orthorhombic:                                              NO
 CELL| Periodicity                                                           XYZ

 Extrapolation method: ASPC

 Number of electrons:                                                        180
 Number of occupied orbitals:                                                 90
 Number of molecular orbitals:                                               180

 Number of orbital functions:                                                180
 Number of independent orbital functions:                                    180


 SCF WAVEFUNCTION OPTIMIZATION

  Step     Update method      Time    Convergence         Total energy    Change
  ------------------------------------------------------------------------------
     1 TBLite/Diag 0.40E+00    0.0     0.00726679      -105.0646928700 -1.05E+02
     2 TBLite/Diag 0.40E+00    0.0     0.00114479      -105.0646997794 -6.91E-06
     3 TBLite/Diag 0.40E+00    0.0     0.00029180      -105.0647000727 -2.93E-07
     4 TBLite/Diag 0.40E+00    0.0     0.00008606      -105.0647001133 -4.06E-08
     5 TBLite/Diag 0.40E+00    0.0     0.00003266      -105.0647001191 -5.82E-09
     6 TBLite/Diag 0.40E+00    0.0     0.00000982      -105.0647001196 -5.14E-10
     7 TBLite/Diag 0.40E+00    0.0     0.00000059      -105.0647001196 -5.14E-12
     8 TBLite/Diag 0.40E+00    0.0     0.00000021      -105.0647001196 -4.55E-13
     9 TBLite/Diag 0.40E+00    0.0     1.7623E-09      -105.0647001196  1.42E-14
    10 TBLite/Diag 0.40E+00    0.0     3.3734E-10      -105.0647001196  1.14E-13

  *** SCF run converged in    10 steps ***


  Core Hamiltonian energy:                                   -106.49993699513180
  Repulsive potential energy:                                   1.26000779665957
  Electrostatic energy:                                         0.27614152271079
  Self-consistent dispersion energy:                            0.00000000000000
  Non-self consistent dispersion energy:                       -0.10091244388643
  Correction for halogen bonding:                               0.00000000000000
  Electronic entropic energy:                                  -0.00000000000000
  Fermi energy:                                                -0.34217956320741

  Total energy:                                              -105.06470011964788
  Total energy (extrapolated to T->0):                       -105.06470011964788

 ENERGY| Total FORCE_EVAL ( QS ) energy [hartree]           -105.064700119647881

 OPT| **************************************************************************
 OPT| Step number                                                              5
 OPT| Optimization method                                                   BFGS
 OPT| Total energy [hartree]                                     -105.0647001196
 OPT| Internal pressure [bar]                                   -4427.4857709304
 OPT| Effective energy change [hartree]                            -0.0008173575
 OPT| Predicted energy change [hartree]                            -0.0006530397
 OPT| Scaling factor                                                0.0000000000
 OPT| Step size                                                     0.0129126753
 OPT| Trust radius                                                  0.4724315332
 OPT| Decrease in energy                                                     YES
 OPT| Used time [s]                                                        0.416
 OPT|
 OPT| Maximum step size                                             0.0129126753
 OPT| Convergence limit for maximum step size                       0.0030000000
 OPT| Maximum step size is converged                                          NO
 OPT|
 OPT| RMS step size                                                 0.0042096369
 OPT| Convergence limit for RMS step size                           0.0015000000
 OPT| RMS step size is converged                                              NO
 OPT|
 OPT| Maximum gradient                                              0.0069492594
 OPT| Convergence limit for maximum gradient                        0.0004500000
 OPT| Maximum gradient is converged                                           NO
 OPT|
 OPT| RMS gradient                                                  0.0010773964
 OPT| Convergence limit for RMS gradient                            0.0003000000
 OPT| RMS gradient is converged                                               NO
 OPT|
 OPT| Pressure deviation [bar]                                  -4427.4857709304
 OPT| Pressure tolerance [bar]                                    100.0000000000
 OPT| Pressure is converged                                                   NO
 OPT| **************************************************************************
 OPT| Estimated peak process memory after this step [MiB]                    178

 --------------------------
 OPTIMIZATION STEP:      6
 --------------------------

 CELL| Volume [angstrom^3]:                                           611.980735
 CELL| Vector a [angstrom]:       9.849     0.000     0.000   |a| =     9.848720
 CELL| Vector b [angstrom]:      -4.854     8.570     0.000   |b| =     9.848909
 CELL| Vector c [angstrom]:      -0.001     0.001     7.251   |c| =     7.251047
 CELL| Angle (b,c), alpha [degree]:                                    89.988205
 CELL| Angle (a,c), beta  [degree]:                                    90.011762
 CELL| Angle (a,b), gamma [degree]:                                   119.529749
 CELL| Numerically orthorhombic:                                              NO
 CELL| Periodicity                                                           XYZ

 Extrapolation method: ASPC

 Number of electrons:                                                        180
 Number of occupied orbitals:                                                 90
 Number of molecular orbitals:                                               180

 Number of orbital functions:                                                180
 Number of independent orbital functions:                                    180


 SCF WAVEFUNCTION OPTIMIZATION

  Step     Update method      Time    Convergence         Total energy    Change
  ------------------------------------------------------------------------------
     1 TBLite/Diag 0.40E+00    0.0     0.00171487      -105.0649473454 -1.05E+02
     2 TBLite/Diag 0.40E+00    0.0     0.00019489      -105.0649476226 -2.77E-07
     3 TBLite/Diag 0.40E+00    0.0     0.00005373      -105.0649476363 -1.37E-08
     4 TBLite/Diag 0.40E+00    0.0     0.00002068      -105.0649476382 -1.87E-09
     5 TBLite/Diag 0.40E+00    0.0     0.00000890      -105.0649476388 -5.68E-10
     6 TBLite/Diag 0.40E+00    0.0     0.00000459      -105.0649476389 -1.16E-10
     7 TBLite/Diag 0.40E+00    0.0     0.00000032      -105.0649476389 -7.53E-13
     8 TBLite/Diag 0.40E+00    0.0     5.2008E-09      -105.0649476389 -4.26E-14
     9 TBLite/Diag 0.40E+00    0.0     1.4486E-10      -105.0649476389  1.42E-14

  *** SCF run converged in     9 steps ***


  Core Hamiltonian energy:                                   -106.49867556708978
  Repulsive potential energy:                                   1.25879265319197
  Electrostatic energy:                                         0.27599206634338
  Self-consistent dispersion energy:                            0.00000000000000
  Non-self consistent dispersion energy:                       -0.10105679134483
  Correction for halogen bonding:                               0.00000000000000
  Electronic entropic energy:                                  -0.00000000000000
  Fermi energy:                                                -0.34210049011472

  Total energy:                                              -105.06494763889926
  Total energy (extrapolated to T->0):                       -105.06494763889926

 ENERGY| Total FORCE_EVAL ( QS ) energy [hartree]           -105.064947638899255

 OPT| **************************************************************************
 OPT| Step number                                                              6
 OPT| Optimization method                                                   BFGS
 OPT| Total energy [hartree]                                     -105.0649476389
 OPT| Internal pressure [bar]                                   -4364.2857111238
 OPT| Effective energy change [hartree]                            -0.0002475193
 OPT| Predicted energy change [hartree]                            -0.0001494617
 OPT| Scaling factor                                                0.0000000000
 OPT| Step size                                                     0.0116960269
 OPT| Trust radius                                                  0.4724315332
 OPT| Decrease in energy                                                     YES
 OPT| Used time [s]                                                        0.408
 OPT|
 OPT| Maximum step size                                             0.0116960269
 OPT| Convergence limit for maximum step size                       0.0030000000
 OPT| Maximum step size is converged                                          NO
 OPT|
 OPT| RMS step size                                                 0.0019335114
 OPT| Convergence limit for RMS step size                           0.0015000000
 OPT| RMS step size is converged                                              NO
 OPT|
 OPT| Maximum gradient                                              0.0068833217
 OPT| Convergence limit for maximum gradient                        0.0004500000
 OPT| Maximum gradient is converged                                           NO
 OPT|
 OPT| RMS gradient                                                  0.0010190425
 OPT| Convergence limit for RMS gradient                            0.0003000000
 OPT| RMS gradient is converged                                               NO
 OPT|
 OPT| Pressure deviation [bar]                                  -4364.2857111238
 OPT| Pressure tolerance [bar]                                    100.0000000000
 OPT| Pressure is converged                                                   NO
 OPT| **************************************************************************
 OPT| Estimated peak process memory after this step [MiB]                    178

 --------------------------
 OPTIMIZATION STEP:      7
 --------------------------

 CELL| Volume [angstrom^3]:                                           609.097042
 CELL| Vector a [angstrom]:       9.843     0.000     0.000   |a| =     9.843194
 CELL| Vector b [angstrom]:      -4.866     8.557     0.000   |b| =     9.843351
 CELL| Vector c [angstrom]:      -0.003     0.002     7.232   |c| =     7.231890
 CELL| Angle (b,c), alpha [degree]:                                    89.979545
 CELL| Angle (a,c), beta  [degree]:                                    90.020383
 CELL| Angle (a,b), gamma [degree]:                                   119.625851
 CELL| Numerically orthorhombic:                                              NO
 CELL| Periodicity                                                           XYZ

 Extrapolation method: ASPC

 Number of electrons:                                                        180
 Number of occupied orbitals:                                                 90
 Number of molecular orbitals:                                               180

 Number of orbital functions:                                                180
 Number of independent orbital functions:                                    180


 SCF WAVEFUNCTION OPTIMIZATION

  Step     Update method      Time    Convergence         Total energy    Change
  ------------------------------------------------------------------------------
     1 TBLite/Diag 0.40E+00    0.0     0.00418257      -105.0654232079 -1.05E+02
     2 TBLite/Diag 0.40E+00    0.0     0.00084826      -105.0654266078 -3.40E-06
     3 TBLite/Diag 0.40E+00    0.0     0.00013464      -105.0654267506 -1.43E-07
     4 TBLite/Diag 0.40E+00    0.0     0.00005745      -105.0654267565 -5.98E-09
     5 TBLite/Diag 0.40E+00    0.0     0.00001139      -105.0654267581 -1.51E-09
     6 TBLite/Diag 0.40E+00    0.0     0.00000718      -105.0654267583 -2.91E-10
     7 TBLite/Diag 0.40E+00    0.0     0.00000097      -105.0654267584 -1.15E-11
     8 TBLite/Diag 0.40E+00    0.0     0.00000029      -105.0654267584 -5.83E-13
     9 TBLite/Diag 0.40E+00    0.0     4.5035E-10      -105.0654267584  5.68E-14

  *** SCF run converged in     9 steps ***


  Core Hamiltonian energy:                                   -106.49456944568749
  Repulsive potential energy:                                   1.25513927640899
  Electrostatic energy:                                         0.27556572660116
  Self-consistent dispersion energy:                            0.00000000000000
  Non-self consistent dispersion energy:                       -0.10156231568000
  Correction for halogen bonding:                               0.00000000000000
  Electronic entropic energy:                                  -0.00000000000000
  Fermi energy:                                                -0.34215489805975

  Total energy:                                              -105.06542675835735
  Total energy (extrapolated to T->0):                       -105.06542675835735

 ENERGY| Total FORCE_EVAL ( QS ) energy [hartree]           -105.065426758357347

 OPT| **************************************************************************
 OPT| Step number                                                              7
 OPT| Optimization method                                                   BFGS
 OPT| Total energy [hartree]                                     -105.0654267584
 OPT| Internal pressure [bar]                                   -4607.9905126957
 OPT| Effective energy change [hartree]                            -0.0004791195
 OPT| Predicted energy change [hartree]                            -0.0003390360
 OPT| Scaling factor                                                0.0000000000
 OPT| Step size                                                     0.0362016753
 OPT| Trust radius                                                  0.4724315332
 OPT| Decrease in energy                                                     YES
 OPT| Used time [s]                                                        0.404
 OPT|
 OPT| Maximum step size                                             0.0362016753
 OPT| Convergence limit for maximum step size                       0.0030000000
 OPT| Maximum step size is converged                                          NO
 OPT|
 OPT| RMS step size                                                 0.0051064637
 OPT| Convergence limit for RMS step size                           0.0015000000
 OPT| RMS step size is converged                                              NO
 OPT|
 OPT| Maximum gradient                                              0.0066442607
 OPT| Convergence limit for maximum gradient                        0.0004500000
 OPT| Maximum gradient is converged                                           NO
 OPT|
 OPT| RMS gradient                                                  0.0012503601
 OPT| Convergence limit for RMS gradient                            0.0003000000
 OPT| RMS gradient is converged                                               NO
 OPT|
 OPT| Pressure deviation [bar]                                  -4607.9905126957
 OPT| Pressure tolerance [bar]                                    100.0000000000
 OPT| Pressure is converged                                                   NO
 OPT| **************************************************************************
 OPT| Estimated peak process memory after this step [MiB]                    178

 --------------------------
 OPTIMIZATION STEP:      8
 --------------------------

 CELL| Volume [angstrom^3]:                                           605.822369
 CELL| Vector a [angstrom]:       9.836     0.000     0.000   |a| =     9.835667
 CELL| Vector b [angstrom]:      -4.876     8.542     0.000   |b| =     9.835820
 CELL| Vector c [angstrom]:      -0.004     0.002     7.210   |c| =     7.210491
 CELL| Angle (b,c), alpha [degree]:                                    89.970112
 CELL| Angle (a,c), beta  [degree]:                                    90.029760
 CELL| Angle (a,b), gamma [degree]:                                   119.716051
 CELL| Numerically orthorhombic:                                              NO
 CELL| Periodicity                                                           XYZ

 Extrapolation method: ASPC

 Number of electrons:                                                        180
 Number of occupied orbitals:                                                 90
 Number of molecular orbitals:                                               180

 Number of orbital functions:                                                180
 Number of independent orbital functions:                                    180


 SCF WAVEFUNCTION OPTIMIZATION

  Step     Update method      Time    Convergence         Total energy    Change
  ------------------------------------------------------------------------------
     1 TBLite/Diag 0.40E+00    0.0     0.00358999      -105.0657872909 -1.05E+02
     2 TBLite/Diag 0.40E+00    0.0     0.00111700      -105.0657936503 -6.36E-06
     3 TBLite/Diag 0.40E+00    0.0     0.00019553      -105.0657939276 -2.77E-07
     4 TBLite/Diag 0.40E+00    0.0     0.00003100      -105.0657939308 -3.24E-09
     5 TBLite/Diag 0.40E+00    0.0     0.00001072      -105.0657939317 -8.94E-10
     6 TBLite/Diag 0.40E+00    0.0     0.00000405      -105.0657939318 -9.72E-11
     7 TBLite/Diag 0.40E+00    0.0     0.00000082      -105.0657939318 -8.37E-12
     8 TBLite/Diag 0.40E+00    0.0     1.9866E-09      -105.0657939318 -8.53E-14
     9 TBLite/Diag 0.40E+00    0.0     9.3308E-10      -105.0657939318 -2.42E-13

  *** SCF run converged in     9 steps ***


  Core Hamiltonian energy:                                   -106.49132597753325
  Repulsive potential energy:                                   1.25251790501854
  Electrostatic energy:                                         0.27518367733913
  Self-consistent dispersion energy:                            0.00000000000000
  Non-self consistent dispersion energy:                       -0.10216953663924
  Correction for halogen bonding:                               0.00000000000000
  Electronic entropic energy:                                  -0.00000000000000
  Fermi energy:                                                -0.34236211141188

  Total energy:                                              -105.06579393181481
  Total energy (extrapolated to T->0):                       -105.06579393181481

 ENERGY| Total FORCE_EVAL ( QS ) energy [hartree]           -105.065793931814810

 OPT| **************************************************************************
 OPT| Step number                                                              8
 OPT| Optimization method                                                   BFGS
 OPT| Total energy [hartree]                                     -105.0657939318
 OPT| Internal pressure [bar]                                   -4814.5550045104
 OPT| Effective energy change [hartree]                            -0.0003671735
 OPT| Predicted energy change [hartree]                            -0.0002458830
 OPT| Scaling factor                                                0.0000000000
 OPT| Step size                                                     0.0404409761
 OPT| Trust radius                                                  0.4724315332
 OPT| Decrease in energy                                                     YES
 OPT| Used time [s]                                                        0.403
 OPT|
 OPT| Maximum step size                                             0.0404409761
 OPT| Convergence limit for maximum step size                       0.0030000000
 OPT| Maximum step size is converged                                          NO
 OPT|
 OPT| RMS step size                                                 0.0050744345
 OPT| Convergence limit for RMS step size                           0.0015000000
 OPT| RMS step size is converged                                              NO
 OPT|
 OPT| Maximum gradient                                              0.0063589997
 OPT| Convergence limit for maximum gradient                        0.0004500000
 OPT| Maximum gradient is converged                                           NO
 OPT|
 OPT| RMS gradient                                                  0.0012570079
 OPT| Convergence limit for RMS gradient                            0.0003000000
 OPT| RMS gradient is converged                                               NO
 OPT|
 OPT| Pressure deviation [bar]                                  -4814.5550045104
 OPT| Pressure tolerance [bar]                                    100.0000000000
 OPT| Pressure is converged                                                   NO
 OPT| **************************************************************************
 OPT| Estimated peak process memory after this step [MiB]                    178

 --------------------------
 OPTIMIZATION STEP:      9
 --------------------------

 CELL| Volume [angstrom^3]:                                           601.559340
 CELL| Vector a [angstrom]:       9.825     0.000     0.000   |a| =     9.824609
 CELL| Vector b [angstrom]:      -4.884     8.525     0.000   |b| =     9.824790
 CELL| Vector c [angstrom]:      -0.005     0.003     7.182   |c| =     7.182369
 CELL| Angle (b,c), alpha [degree]:                                    89.958144
 CELL| Angle (a,c), beta  [degree]:                                    90.041643
 CELL| Angle (a,b), gamma [degree]:                                   119.806907
 CELL| Numerically orthorhombic:                                              NO
 CELL| Periodicity                                                           XYZ

 Extrapolation method: ASPC

 Number of electrons:                                                        180
 Number of occupied orbitals:                                                 90
 Number of molecular orbitals:                                               180

 Number of orbital functions:                                                180
 Number of independent orbital functions:                                    180


 SCF WAVEFUNCTION OPTIMIZATION

  Step     Update method      Time    Convergence         Total energy    Change
  ------------------------------------------------------------------------------
     1 TBLite/Diag 0.40E+00    0.0     0.00283872      -105.0661697338 -1.05E+02
     2 TBLite/Diag 0.40E+00    0.0     0.00142936      -105.0661818354 -1.21E-05
     3 TBLite/Diag 0.40E+00    0.0     0.00026596      -105.0661824008 -5.65E-07
     4 TBLite/Diag 0.40E+00    0.0     0.00003423      -105.0661824043 -3.49E-09
     5 TBLite/Diag 0.40E+00    0.0     0.00001496      -105.0661824054 -1.12E-09
     6 TBLite/Diag 0.40E+00    0.0     0.00000391      -105.0661824056 -1.77E-10
     7 TBLite/Diag 0.40E+00    0.0     0.00000055      -105.0661824056 -5.29E-12
     8 TBLite/Diag 0.40E+00    0.0     0.00000028      -105.0661824056  0.00E+00
     9 TBLite/Diag 0.40E+00    0.0     1.4477E-09      -105.0661824056  1.56E-13
    10 TBLite/Diag 0.40E+00    0.0     2.3141E-10      -105.0661824056 -1.42E-13

  *** SCF run converged in    10 steps ***


  Core Hamiltonian energy:                                   -106.48919010328119
  Repulsive potential energy:                                   1.25122574247567
  Electrostatic energy:                                         0.27476843798680
  Self-consistent dispersion energy:                            0.00000000000000
  Non-self consistent dispersion energy:                       -0.10298648273816
  Correction for halogen bonding:                               0.00000000000000
  Electronic entropic energy:                                  -0.00000000000000
  Fermi energy:                                                -0.34266464395753

  Total energy:                                              -105.06618240555689
  Total energy (extrapolated to T->0):                       -105.06618240555689

 ENERGY| Total FORCE_EVAL ( QS ) energy [hartree]           -105.066182405556887

 OPT| **************************************************************************
 OPT| Step number                                                              9
 OPT| Optimization method                                                   BFGS
 OPT| Total energy [hartree]                                     -105.0661824056
 OPT| Internal pressure [bar]                                   -4713.6536140689
 OPT| Effective energy change [hartree]                            -0.0003884737
 OPT| Predicted energy change [hartree]                            -0.0002618752
 OPT| Scaling factor                                                0.0000000000
 OPT| Step size                                                     0.0531447080
 OPT| Trust radius                                                  0.4724315332
 OPT| Decrease in energy                                                     YES
 OPT| Used time [s]                                                        0.417
 OPT|
 OPT| Maximum step size                                             0.0531447080
 OPT| Convergence limit for maximum step size                       0.0030000000
 OPT| Maximum step size is converged                                          NO
 OPT|
 OPT| RMS step size                                                 0.0060715011
 OPT| Convergence limit for RMS step size                           0.0015000000
 OPT| RMS step size is converged                                              NO
 OPT|
 OPT| Maximum gradient                                              0.0059865341
 OPT| Convergence limit for maximum gradient                        0.0004500000
 OPT| Maximum gradient is converged                                           NO
 OPT|
 OPT| RMS gradient                                                  0.0011609927
 OPT| Convergence limit for RMS gradient                            0.0003000000
 OPT| RMS gradient is converged                                               NO
 OPT|
 OPT| Pressure deviation [bar]                                  -4713.6536140689
 OPT| Pressure tolerance [bar]                                    100.0000000000
 OPT| Pressure is converged                                                   NO
 OPT| **************************************************************************
 OPT| Estimated peak process memory after this step [MiB]                    178

 --------------------------
 OPTIMIZATION STEP:     10
 --------------------------

 CELL| Volume [angstrom^3]:                                           596.366784
 CELL| Vector a [angstrom]:       9.810     0.000     0.000   |a| =     9.810132
 CELL| Vector b [angstrom]:      -4.888     8.506     0.000   |b| =     9.810369
 CELL| Vector c [angstrom]:      -0.007     0.004     7.147   |c| =     7.147002
 CELL| Angle (b,c), alpha [degree]:                                    89.943735
 CELL| Angle (a,c), beta  [degree]:                                    90.055938
 CELL| Angle (a,b), gamma [degree]:                                   119.885712
 CELL| Numerically orthorhombic:                                              NO
 CELL| Periodicity                                                           XYZ

 Extrapolation method: ASPC

 Number of electrons:                                                        180
 Number of occupied orbitals:                                                 90
 Number of molecular orbitals:                                               180

 Number of orbital functions:                                                180
 Number of independent orbital functions:                                    180


 SCF WAVEFUNCTION OPTIMIZATION

  Step     Update method      Time    Convergence         Total energy    Change
  ------------------------------------------------------------------------------
     1 TBLite/Diag 0.40E+00    0.0     0.00248925      -105.0666033681 -1.05E+02
     2 TBLite/Diag 0.40E+00    0.0     0.00159196      -105.0666210390 -1.77E-05
     3 TBLite/Diag 0.40E+00    0.0     0.00031506      -105.0666219036 -8.65E-07
     4 TBLite/Diag 0.40E+00    0.0     0.00003290      -105.0666219066 -3.01E-09
     5 TBLite/Diag 0.40E+00    0.0     0.00001639      -105.0666219075 -8.34E-10
     6 TBLite/Diag 0.40E+00    0.0     0.00000475      -105.0666219077 -2.43E-10
     7 TBLite/Diag 0.40E+00    0.0     0.00000036      -105.0666219077 -7.67E-13
     8 TBLite/Diag 0.40E+00    0.0     0.00000005      -105.0666219077 -1.56E-13
     9 TBLite/Diag 0.40E+00    0.0     3.2214E-09      -105.0666219077 -8.53E-14
    10 TBLite/Diag 0.40E+00    0.0     1.2937E-10      -105.0666219077  1.28E-13

  *** SCF run converged in    10 steps ***


  Core Hamiltonian energy:                                   -106.48837605057159
  Repulsive potential energy:                                   1.25146505263622
  Electrostatic energy:                                         0.27428739519405
  Self-consistent dispersion energy:                            0.00000000000000
  Non-self consistent dispersion energy:                       -0.10399830495724
  Correction for halogen bonding:                               0.00000000000000
  Electronic entropic energy:                                  -0.00000000000000
  Fermi energy:                                                -0.34297215091611

  Total energy:                                              -105.06662190769856
  Total energy (extrapolated to T->0):                       -105.06662190769856

 ENERGY| Total FORCE_EVAL ( QS ) energy [hartree]           -105.066621907698561

 OPT| **************************************************************************
 OPT| Step number                                                             10
 OPT| Optimization method                                                   BFGS
 OPT| Total energy [hartree]                                     -105.0666219077
 OPT| Internal pressure [bar]                                   -4132.2216340708
 OPT| Effective energy change [hartree]                            -0.0004395021
 OPT| Predicted energy change [hartree]                            -0.0002819297
 OPT| Scaling factor                                                0.0000000000
 OPT| Step size                                                     0.0668371829
 OPT| Trust radius                                                  0.4724315332
 OPT| Decrease in energy                                                     YES
 OPT| Used time [s]                                                        0.416
 OPT|
 OPT| Maximum step size                                             0.0668371829
 OPT| Convergence limit for maximum step size                       0.0030000000
 OPT| Maximum step size is converged                                          NO
 OPT|
 OPT| RMS step size                                                 0.0071493501
 OPT| Convergence limit for RMS step size                           0.0015000000
 OPT| RMS step size is converged                                              NO
 OPT|
 OPT| Maximum gradient                                              0.0070361147
 OPT| Convergence limit for maximum gradient                        0.0004500000
 OPT| Maximum gradient is converged                                           NO
 OPT|
 OPT| RMS gradient                                                  0.0013182281
 OPT| Convergence limit for RMS gradient                            0.0003000000
 OPT| RMS gradient is converged                                               NO
 OPT|
 OPT| Pressure deviation [bar]                                  -4132.2216340708
 OPT| Pressure tolerance [bar]                                    100.0000000000
 OPT| Pressure is converged                                                   NO
 OPT| **************************************************************************
 OPT| Estimated peak process memory after this step [MiB]                    178

 --------------------------
 OPTIMIZATION STEP:     11
 --------------------------

 CELL| Volume [angstrom^3]:                                           587.926503
 CELL| Vector a [angstrom]:       9.786     0.000     0.000   |a| =     9.785991
 CELL| Vector b [angstrom]:      -4.890     8.477     0.000   |b| =     9.786339
 CELL| Vector c [angstrom]:      -0.010     0.006     7.087   |c| =     7.087109
 CELL| Angle (b,c), alpha [degree]:                                    89.920096
 CELL| Angle (a,c), beta  [degree]:                                    90.079366
 CELL| Angle (a,b), gamma [degree]:                                   119.977420
 CELL| Numerically orthorhombic:                                              NO
 CELL| Periodicity                                                           XYZ

 Extrapolation method: ASPC

 Number of electrons:                                                        180
 Number of occupied orbitals:                                                 90
 Number of molecular orbitals:                                               180

 Number of orbital functions:                                                180
 Number of independent orbital functions:                                    180


 SCF WAVEFUNCTION OPTIMIZATION

  Step     Update method      Time    Convergence         Total energy    Change
  ------------------------------------------------------------------------------
     1 TBLite/Diag 0.40E+00    0.0     0.00302737      -105.0672532262 -1.05E+02
     2 TBLite/Diag 0.40E+00    0.0     0.00288900      -105.0673012841 -4.81E-05
     3 TBLite/Diag 0.40E+00    0.0     0.00052319      -105.0673037671 -2.48E-06
     4 TBLite/Diag 0.40E+00    0.0     0.00003280      -105.0673037709 -3.86E-09
     5 TBLite/Diag 0.40E+00    0.0     0.00001711      -105.0673037717 -8.16E-10
     6 TBLite/Diag 0.40E+00    0.0     0.00000552      -105.0673037721 -3.41E-10
     7 TBLite/Diag 0.40E+00    0.0     0.00000035      -105.0673037721 -1.48E-12
     8 TBLite/Diag 0.40E+00    0.0     0.00000002      -105.0673037721 -4.26E-14
     9 TBLite/Diag 0.40E+00    0.0     0.00000001      -105.0673037721 -5.68E-14
    10 TBLite/Diag 0.40E+00    0.0     1.5535E-10      -105.0673037721  1.85E-13

  *** SCF run converged in    10 steps ***


  Core Hamiltonian energy:                                   -106.48767349639019
  Repulsive potential energy:                                   1.25260906161886
  Electrostatic energy:                                         0.27342276134937
  Self-consistent dispersion energy:                            0.00000000000000
  Non-self consistent dispersion energy:                       -0.10566209866094
  Correction for halogen bonding:                               0.00000000000000
  Electronic entropic energy:                                  -0.00000000000000
  Fermi energy:                                                -0.34334301555680

  Total energy:                                              -105.06730377208289
  Total energy (extrapolated to T->0):                       -105.06730377208289

 ENERGY| Total FORCE_EVAL ( QS ) energy [hartree]           -105.067303772082894

 OPT| **************************************************************************
 OPT| Step number                                                             11
 OPT| Optimization method                                                   BFGS
 OPT| Total energy [hartree]                                     -105.0673037721
 OPT| Internal pressure [bar]                                   -2881.1513295932
 OPT| Effective energy change [hartree]                            -0.0006818644
 OPT| Predicted energy change [hartree]                            -0.0004459533
 OPT| Scaling factor                                                0.0000000000
 OPT| Step size                                                     0.1131895906
 OPT| Trust radius                                                  0.4724315332
 OPT| Decrease in energy                                                     YES
 OPT| Used time [s]                                                        0.419
 OPT|
 OPT| Maximum step size                                             0.1131895906
 OPT| Convergence limit for maximum step size                       0.0030000000
 OPT| Maximum step size is converged                                          NO
 OPT|
 OPT| RMS step size                                                 0.0117613612
 OPT| Convergence limit for RMS step size                           0.0015000000
 OPT| RMS step size is converged                                              NO
 OPT|
 OPT| Maximum gradient                                              0.0069136810
 OPT| Convergence limit for maximum gradient                        0.0004500000
 OPT| Maximum gradient is converged                                           NO
 OPT|
 OPT| RMS gradient                                                  0.0017338769
 OPT| Convergence limit for RMS gradient                            0.0003000000
 OPT| RMS gradient is converged                                               NO
 OPT|
 OPT| Pressure deviation [bar]                                  -2881.1513295932
 OPT| Pressure tolerance [bar]                                    100.0000000000
 OPT| Pressure is converged                                                   NO
 OPT| **************************************************************************
 OPT| Estimated peak process memory after this step [MiB]                    178

 --------------------------
 OPTIMIZATION STEP:     12
 --------------------------

 CELL| Volume [angstrom^3]:                                           576.633860
 CELL| Vector a [angstrom]:       9.754     0.000     0.000   |a| =     9.753627
 CELL| Vector b [angstrom]:      -4.887     8.442     0.000   |b| =     9.754124
 CELL| Vector c [angstrom]:      -0.014     0.008     7.003   |c| =     7.003310
 CELL| Angle (b,c), alpha [degree]:                                    89.887743
 CELL| Angle (a,c), beta  [degree]:                                    90.111394
 CELL| Angle (a,b), gamma [degree]:                                   120.065523
 CELL| Numerically orthorhombic:                                              NO
 CELL| Periodicity                                                           XYZ

 Extrapolation method: ASPC

 Number of electrons:                                                        180
 Number of occupied orbitals:                                                 90
 Number of molecular orbitals:                                               180

 Number of orbital functions:                                                180
 Number of independent orbital functions:                                    180


 SCF WAVEFUNCTION OPTIMIZATION

  Step     Update method      Time    Convergence         Total energy    Change
  ------------------------------------------------------------------------------
     1 TBLite/Diag 0.40E+00    0.0     0.00475564      -105.0680475877 -1.05E+02
     2 TBLite/Diag 0.40E+00    0.0     0.00434309      -105.0681417043 -9.41E-05
     3 TBLite/Diag 0.40E+00    0.0     0.00077360      -105.0681469467 -5.24E-06
     4 TBLite/Diag 0.40E+00    0.0     0.00003485      -105.0681469493 -2.59E-09
     5 TBLite/Diag 0.40E+00    0.0     0.00001359      -105.0681469505 -1.17E-09
     6 TBLite/Diag 0.40E+00    0.0     0.00000606      -105.0681469507 -2.49E-10
     7 TBLite/Diag 0.40E+00    0.0     0.00000130      -105.0681469507 -8.85E-12
     8 TBLite/Diag 0.40E+00    0.0     0.00000014      -105.0681469507 -2.27E-13
     9 TBLite/Diag 0.40E+00    0.0     0.00000002      -105.0681469507 -1.99E-13
    10 TBLite/Diag 0.40E+00    0.0     2.1883E-10      -105.0681469507  1.99E-13

  *** SCF run converged in    10 steps ***


  Core Hamiltonian energy:                                   -106.48570975734485
  Repulsive potential energy:                                   1.25341497706806
  Electrostatic energy:                                         0.27207097449397
  Self-consistent dispersion energy:                            0.00000000000000
  Non-self consistent dispersion energy:                       -0.10792314494742
  Correction for halogen bonding:                               0.00000000000000
  Electronic entropic energy:                                  -0.00000000000000
  Fermi energy:                                                -0.34369191248089

  Total energy:                                              -105.06814695073024
  Total energy (extrapolated to T->0):                       -105.06814695073024

 ENERGY| Total FORCE_EVAL ( QS ) energy [hartree]           -105.068146950730238

 OPT| **************************************************************************
 OPT| Step number                                                             12
 OPT| Optimization method                                                   BFGS
 OPT| Total energy [hartree]                                     -105.0681469507
 OPT| Internal pressure [bar]                                   -1282.6264925129
 OPT| Effective energy change [hartree]                            -0.0008431786
 OPT| Predicted energy change [hartree]                            -0.0005726534
 OPT| Scaling factor                                                0.0000000000
 OPT| Step size                                                     0.1583750694
 OPT| Trust radius                                                  0.4724315332
 OPT| Decrease in energy                                                     YES
 OPT| Used time [s]                                                        0.421
 OPT|
 OPT| Maximum step size                                             0.1583750694
 OPT| Convergence limit for maximum step size                       0.0030000000
 OPT| Maximum step size is converged                                          NO
 OPT|
 OPT| RMS step size                                                 0.0162387316
[...]
 CELL| Numerically orthorhombic:                                              NO
 CELL| Periodicity                                                           XYZ

 Extrapolation method: ASPC

 Number of electrons:                                                        180
 Number of occupied orbitals:                                                 90
 Number of molecular orbitals:                                               180

 Number of orbital functions:                                                180
 Number of independent orbital functions:                                    180


 SCF WAVEFUNCTION OPTIMIZATION

  Step     Update method      Time    Convergence         Total energy    Change
  ------------------------------------------------------------------------------
     1 TBLite/Diag 0.40E+00    0.0     0.00027957      -105.0710765711 -1.05E+02
     2 TBLite/Diag 0.40E+00    0.0     0.00003102      -105.0710765757 -4.59E-09
     3 TBLite/Diag 0.40E+00    0.0     0.00000637      -105.0710765758 -1.54E-10
     4 TBLite/Diag 0.40E+00    0.0     0.00000269      -105.0710765759 -4.87E-11
     5 TBLite/Diag 0.40E+00    0.0     0.00000063      -105.0710765759 -4.32E-12
     6 TBLite/Diag 0.40E+00    0.0     0.00000032      -105.0710765759 -5.26E-13
     7 TBLite/Diag 0.40E+00    0.0     0.00000002      -105.0710765759  0.00E+00
     8 TBLite/Diag 0.40E+00    0.0     2.8500E-10      -105.0710765759 -7.11E-14

  *** SCF run converged in     8 steps ***


  Core Hamiltonian energy:                                   -106.48414593642772
  Repulsive potential energy:                                   1.25208587774989
  Electrostatic energy:                                         0.27400590470053
  Self-consistent dispersion energy:                            0.00000000000000
  Non-self consistent dispersion energy:                       -0.11302242189052
  Correction for halogen bonding:                               0.00000000000000
  Electronic entropic energy:                                  -0.00000000000000
  Fermi energy:                                                -0.34569249152514

  Total energy:                                              -105.07107657586782
  Total energy (extrapolated to T->0):                       -105.07107657586782

 ENERGY| Total FORCE_EVAL ( QS ) energy [hartree]           -105.071076575867821

 OPT| **************************************************************************
 OPT| Step number                                                             36
 OPT| Optimization method                                                   BFGS
 OPT| Total energy [hartree]                                     -105.0710765759
 OPT| Internal pressure [bar]                                      14.4833409120
 OPT| Effective energy change [hartree]                            -0.0000011610
 OPT| Predicted energy change [hartree]                            -0.0000008754
 OPT| Scaling factor                                                0.0000000000
 OPT| Step size                                                     0.0025621519
 OPT| Trust radius                                                  0.4724315332
 OPT| Decrease in energy                                                     YES
 OPT| Used time [s]                                                        0.414
 OPT|
 OPT| Maximum step size                                             0.0025621519
 OPT| Convergence limit for maximum step size                       0.0030000000
 OPT| Maximum step size is converged                                         YES
 OPT|
 OPT| RMS step size                                                 0.0003222975
 OPT| Convergence limit for RMS step size                           0.0015000000
 OPT| RMS step size is converged                                             YES
 OPT|
 OPT| Maximum gradient                                              0.0001686091
 OPT| Convergence limit for maximum gradient                        0.0004500000
 OPT| Maximum gradient is converged                                          YES
 OPT|
 OPT| RMS gradient                                                  0.0000492134
 OPT| Convergence limit for RMS gradient                            0.0003000000
 OPT| RMS gradient is converged                                              YES
 OPT|
 OPT| Pressure deviation [bar]                                     14.4833409120
 OPT| Pressure tolerance [bar]                                    100.0000000000
 OPT| Pressure is converged                                                  YES
 OPT| **************************************************************************
 OPT| Estimated peak process memory after this step [MiB]                    178

 *******************************************************************************
 ***                    GEOMETRY OPTIMIZATION COMPLETED                      ***
 *******************************************************************************

 write_final_structure: Optimization converged, writing XYZ file gladly:
  triazine_GFN1_gamma_cell_opt-FINAL-1_36.xyz

 write_final_structure: Optimization converged, writing CIF file gladly:
  triazine_GFN1_gamma_cell_opt-FINAL-1_36.cif

 write_final_structure: Done!

                    Reevaluating energy at the minimum

 CELL| Volume [angstrom^3]:                                           551.251281
 CELL| Vector a [angstrom]:       9.857     0.000     0.000   |a| =     9.856609
 CELL| Vector b [angstrom]:      -4.902     8.552     0.000   |b| =     9.857246
 CELL| Vector c [angstrom]:      -0.011     0.007     6.540   |c| =     6.539648
 CELL| Angle (b,c), alpha [degree]:                                    89.899200
 CELL| Angle (a,c), beta  [degree]:                                    90.098131
 CELL| Angle (a,b), gamma [degree]:                                   119.820574
 CELL| Numerically orthorhombic:                                              NO
 CELL| Periodicity                                                           XYZ

 Extrapolation method: ASPC

 Number of electrons:                                                        180
 Number of occupied orbitals:                                                 90
 Number of molecular orbitals:                                               180

 Number of orbital functions:                                                180
 Number of independent orbital functions:                                    180


 SCF WAVEFUNCTION OPTIMIZATION

  Step     Update method      Time    Convergence         Total energy    Change
  ------------------------------------------------------------------------------
     1 TBLite/Diag 0.40E+00    0.0     5.4112E-10      -105.0710765759 -1.05E+02

  *** SCF run converged in     1 steps ***


  Core Hamiltonian energy:                                   -106.48414593643882
  Repulsive potential energy:                                   1.25208587774989
  Electrostatic energy:                                         0.27400590471173
  Self-consistent dispersion energy:                            0.00000000000000
  Non-self consistent dispersion energy:                       -0.11302242189052
  Correction for halogen bonding:                               0.00000000000000
  Electronic entropic energy:                                  -0.00000000000000
  Fermi energy:                                                -0.34569249152700

  Total energy:                                              -105.07107657586772
  Total energy (extrapolated to T->0):                       -105.07107657586772

 ENERGY| Total FORCE_EVAL ( QS ) energy [hartree]           -105.071076575867721

 -------------------------------------------------------------------------------
 -                                                                             -
 -                                DBCSR STATISTICS                             -
 -                                                                             -
 -------------------------------------------------------------------------------
 COUNTER                                    TOTAL       BLAS       SMM       ACC
 flops     2 x    20 x     2              9072000       0.0%    100.0%      0.0%     
 flops     2 x    20 x     4             36288000       0.0%    100.0%      0.0%     
 flops     4 x    20 x     2             36288000       0.0%    100.0%      0.0%     
 flops     2 x    32 x     2             72576000       0.0%    100.0%      0.0%     
 flops     2 x     2 x   180            104405760       0.0%    100.0%      0.0%     
 flops     4 x    20 x     4            145152000       0.0%    100.0%      0.0%     
 flops     2 x    32 x     4            290304000       0.0%    100.0%      0.0%     
 flops     4 x    32 x     2            290304000       0.0%    100.0%      0.0%     
 flops     2 x     4 x   180            395642880       0.0%    100.0%      0.0%     
 flops     4 x     2 x   180            395642880       0.0%    100.0%      0.0%     
 flops     4 x    32 x     4           1161216000       0.0%    100.0%      0.0%     
 flops     4 x     4 x   180           1626531840       0.0%    100.0%      0.0%     
 flops inhomo. stacks                           0       0.0%      0.0%      0.0%
 flops total                         4.563423E+09       0.0%    100.0%      0.0%
 flops max/rank                      4.563423E+09       0.0%    100.0%      0.0%
 matmuls inhomo. stacks                         0       0.0%      0.0%      0.0%
 matmuls total                            3691440       0.0%    100.0%      0.0%
 number of processed stacks                  5546       0.0%    100.0%      0.0%
 average stack size                                     0.0     665.6       0.0
 marketing flops                     4.513945E+09
 -------------------------------------------------------------------------------
 # multiplications                            599
 max memory usage/rank              13.682041E+09
 # max total images/rank                        1
 # max 3D layers                                1
 # MPI messages exchanged                       0
 -------------------------------------------------------------------------------
 -                                                                             -
 -                      DBCSR MESSAGE PASSING PERFORMANCE                      -
 -                                                                             -
 -------------------------------------------------------------------------------
 ROUTINE             CALLS      AVE VOLUME [Bytes]
 MP_Bcast               13                     12.
 MP_Allreduce         2688                      8.
 MP_Alltoall         18859                 169550.
 MP_ISend             2396                  14053.
 MP_IRecv             2396                  14053.
 -------------------------------------------------------------------------------

 -------------------------------------------------------------------------------
 -                                                                             -
 -                          OFFLOAD MEMPOOL STATISTICS                         -
 -                                                                             -
 -------------------------------------------------------------------------------
 Memory consumption                Number of allocations  Used [MiB]  Size [MiB]
 Device                                                1           0           0
 Host                                                  1           0           0
 -------------------------------------------------------------------------------

 MEMORY| Estimated peak process memory [MiB]                                 178

 -------------------------------------------------------------------------------
 -                                                                             -
 -                         MESSAGE PASSING PERFORMANCE                         -
 -                                                                             -
 -------------------------------------------------------------------------------

 ROUTINE             CALLS      AVE VOLUME [Bytes]
 MP_Group               37
 MP_Bcast              846                    718.
 MP_Allreduce         7103                    365.
 MP_Sync               460
 MP_comm_split         423
 -------------------------------------------------------------------------------


 -------------------------------------------------------------------------------
 -                                                                             -
 -                           R E F E R E N C E S                               -
 -                                                                             -
 -------------------------------------------------------------------------------
 
 CP2K version 2026.1 (Development Version), the CP2K developers group (2026).
 CP2K is freely available from https://www.cp2k.org/ .
 
 M. Iannuzzi, J. Wilhelm, F. Stein, A. Bussy, H. Elgabarty, D. Golze, A. Hehn, 
 M. Graml, S. Marek, B. Sertcan Gökmen, C. Schran, H. Forbert, R. Z. 
 Khaliullin, A. Kozhevnikov, M. Taillefumier, R. Meli, V. V. Rybkin, M. Brehm, 
 R. Schade, O. Schütt, J. V. Pototschnig, H. Mirhosseini, A. Knüpfer, D. Marx, 
 M. Krack, J. Hutter, T. D. Kühne.
 J. Phys. Chem. B 130, 1237-1310 (2026).
 The CP2K Program Package Made Simple.
 https://doi.org/10.1021/acs.jpcb.5c05851

 A. Katbashev, M. Stahn, T. Rose, V. Alizadeh, M. Friede, C. Plett, P. 
 Steinbach, S. Ehlert.
 J. Phys. Chem. A 129, 2667-2682 (2025).
 Overview on Building Blocks and Applications of Efficient and Robust Extended 
 Tight Binding.
 https://doi.org/10.1021/acs.jpca.4c08263

 T. D. Kühne, M. Iannuzzi, M. Del Ben, V. V. Rybkin, P. Seewald, F. Stein, T. 
 Laino, R. Z. Khaliullin, O. Schütt, F. Schiffmann, D. Golze, J. Wilhelm, S. 
 Chulkov, M. H. Bani-Hashemian, V. Weber, U. Borstnik, M. Taillefumier, A. S. 
 Jakobovits, A. Lazzaro, H. Pabst, T. Müller, R. Schade, M. Guidon, S. 
 Andermatt, N. Holmberg, G. K. Schenter, A. Hehn, A. Bussy, F. Belleflamme, G. 
 Tabacchi, A. Glöß, M. Lass, I. Bethune, C. J. Mundy, C. Plessl, M. Watkins, 
 J. VandeVondele, M. Krack, J. Hutter.
 J. Chem. Phys. 152, 194103 (2020).
 CP2K: An electronic structure and molecular dynamics software package - 
 Quickstep: Efficient and accurate electronic structure calculations.
 https://doi.org/10.1063/5.0007045

 P. Pracht, E. Caldeweyher, S. Ehlert, S. Grimme.
 ChemRxiv, (2019).
 A Robust Non-Self-Consistent Tight-Binding Quantum Chemistry Method for large 
 Molecules.
 https://doi.org/10.26434/chemrxiv.8326202.v1

 S. Grimme, C. Bannwarth, P. Shushkov.
 J. Chem. Theory Comput. 13, 1989 (2017).
 A Robust and Accurate Tight-Binding Quantum Chemical Method for Structures, 
 Vibrational Frequencies, and Noncovalent Interactions of Large Molecular 
 Systems Parametrized for All spd-Block Elements (Z = 1-86).
 https://doi.org/10.1021/acs.jctc.7b00118

 O. Schuett, P. Messmer, J. Hutter, J. VandeVondele.
 Electronic Structure Calculations on Graphics Processing Units, 173-190 (2016).
 GPU-Accelerated Sparse Matrix-Matrix Multiplication for Linear Scaling Density 
 Functional Theory.
 https://doi.org/10.1002/9781118670712.ch8

 A. Heinecke, G. Henry, M. Hutchinson, H. Pabst.
 Proceedings of Intl. Supercomputing Conference, 981-991 (2016).
 LIBXSMM: Accelerating Small Matrix Multiplications by Runtime Code Generation.
 https://doi.org/10.1109/SC.2016.83

 U. Borstnik, J. VandeVondele, V. Weber, J. Hutter.
 Parallel Comput. 40, 47-58 (2014).
 Sparse matrix multiplication: The distributed block-compressed sparse row 
 library.
 https://doi.org/10.1016/j.parco.2014.03.012

 T. D. Kühne, M. Krack, F. R. Mohamed, M. Parrinello.
 Phys. Rev. Lett. 98, 066401 (2007).
 Efficient and accurate Car-Parrinello-like approach to Born-Oppenheimer 
 molecular dynamics.
 https://doi.org/10.1103/PhysRevLett.98.066401

 M. Frigo, S. G. Johnson.
 Proc. IEEE 93, 216-231 (2005).
 The design and implementation of FFTW3.
 https://doi.org/10.1109/JPROC.2004.840301

 J. Kolafa.
 J. Comput. Chem. 25, 335-342 (2004).
 Time-reversible always stable predictor-corrector method for molecular dynamics 
 of polarizable molecules.
 https://doi.org/10.1002/jcc.10385

 N. D. Mermin.
 Phys. Rev. 137, A1441-A1443 (1965).
 Thermal Properties of the Inhomogeneous Electron Gas.
 https://doi.org/10.1103/PhysRev.137.A1441


 -------------------------------------------------------------------------------
 -                                                                             -
 -                                T I M I N G                                  -
 -                                                                             -
 -------------------------------------------------------------------------------
 SUBROUTINE                       CALLS  ASD         SELF TIME        TOTAL TIME
                                MAXIMUM       AVERAGE  MAXIMUM  AVERAGE  MAXIMUM
 CP2K                                 1  1.0    0.002    0.002   17.828   17.828
 cp_cell_opt                          1  2.0    0.000    0.000   17.819   17.819
 geoopt_bfgs                          1  3.0    0.004    0.004   17.819   17.819
 cp_eval_at                          38  4.0    0.004    0.004   17.720   17.720
 qs_forces                           37  5.0    0.002    0.002   17.623   17.623
 rebuild_ks_matrix                  387  9.7    0.000    0.000    7.258    7.258
 build_tblite_ks_matrix             387 10.7    7.252    7.252    7.257    7.257
 build_tblite_matrices               75  7.0    7.070    7.070    7.135    7.135
 qs_ks_update_qs_env_forces          37  6.0    0.000    0.000    7.085    7.085
 qs_energies                         38  6.0    0.001    0.001    6.578    6.578
 qs_energies_init_hamiltonians       38  7.0    0.000    0.000    3.175    3.175
 scf_env_do_scf                      38  7.0    0.000    0.000    2.729    2.729
 scf_env_do_scf_inner_loop          350  8.0    0.049    0.049    2.725    2.725
 qs_scf_new_mos                     350  9.0    0.002    0.002    2.375    2.375
 eigensolver                        350 10.0    0.005    0.005    1.094    1.094
 cp_fm_syevd                        423 10.6    0.001    0.001    1.001    1.001
 cp_fm_syevd_base                   423 11.6    0.967    0.967    0.967    0.967
 cp_dbcsr_plus_fm_fm_t              424 10.8    0.002    0.002    0.681    0.681
 dbcsr_multiply_generic             599 12.0    0.014    0.014    0.650    0.650
 calculate_dm_sparse                387 10.0    0.002    0.002    0.629    0.629
 init_scf_run                        38  7.0    0.000    0.000    0.589    0.589
 dbcsr_complete_redistribute       1898 12.2    0.474    0.474    0.571    0.571
 scf_env_initial_rho_setup           38  8.0    0.000    0.000    0.556    0.556
 wfi_extrapolate                     38  9.0    0.001    0.001    0.555    0.555
 copy_dbcsr_to_fm                   875 10.5    0.004    0.004    0.516    0.516
 qs_diis_b_step                     312 10.0    0.002    0.002    0.440    0.440
 -------------------------------------------------------------------------------

 The number of warnings for this run is : 0
 
 -------------------------------------------------------------------------------
  **** **** ******  **  PROGRAM ENDED AT                 2026-05-23 22:47:20.199
 ***** ** ***  *** **   PROGRAM RAN ON                                spark-c86c
 **    ****   ******    PROGRAM RAN BY                                  kuehne88
 ***** **    ** ** **   PROGRAM PROCESS ID                               2266814
  **** **  *******  **  PROGRAM STOPPED IN /home/kuehne88/periodic-gfn2-benchmar
                                           ks/X23b/runs/cellopt_gamma/GFN1/triaz
                                           ine_GFN1_gamma_cellopt
