 DBCSR| CPU Multiplication driver                                           BLAS (U)
 DBCSR| Multrec recursion limit                                              512 (U)
 DBCSR| Multiplication stack size                                           1000 (D)
 DBCSR| Maximum elements for images                                    UNLIMITED (U)
 DBCSR| Multiplicative factor virtual images                                   1 (U)
 DBCSR| Use multiplication densification                                       T (D)
 DBCSR| Multiplication size stacks                                             3 (U)
 DBCSR| Use memory pool for CPU allocation                                     F (U)
 DBCSR| Number of 3D layers                                               SINGLE (U)
 DBCSR| Use MPI memory allocation                                              F (U)
 DBCSR| Use RMA algorithm                                                      F (U)
 DBCSR| Use Communication thread                                               T (U)
 DBCSR| Communication thread load                                             87 (D)
 DBCSR| MPI: My process id                                                     0
 DBCSR| MPI: Number of processes                                               1
 DBCSR| OMP: Current number of threads                                         1
 DBCSR| OMP: Max number of threads                                             1
 DBCSR| Split modifier for TAS multiplication algorithm                  1.0E+00 (U)


  **** **** ******  **  PROGRAM STARTED AT               2026-07-21 17:59:40.253
 ***** ** ***  *** **   PROGRAM STARTED ON                                 terok
 **    ****   ******    PROGRAM STARTED BY                              kuehne88
 ***** **    ** ** **   PROGRAM PROCESS ID                               1575551
  **** **  *******  **  PROGRAM STARTED IN /home/kuehne88/work/h2o-molecular-lim
                                           it-fix-20260721/stress/raw/H2O_stress
                                           _L20

 CP2K| version string:                 CP2K version 2026.2 (Development Version)
 CP2K| source code revision number:                                    8520b2e59
 CP2K| cp2kflags: omp parallel scalapack spglib s_dftd3 mctc-lib tblite tblite_g
 CP2K|            xtb
 CP2K| is freely available from                            https://www.cp2k.org/
 CP2K| Program compiled at                                   2026-07-18 23:48:15
 CP2K| Program compiled on                                                 terok
 CP2K| Program compiled for                                               x86_64
 CP2K| Data directory path                            /usr/local/share/cp2k/data
 CP2K| Input file name        /home/kuehne88/work/h2o-molecular-limit-fix-202607

 GLOBAL| Force Environment number                                              1
 GLOBAL| Basis set file name                                           BASIS_SET
 GLOBAL| Potential file name                                           POTENTIAL
 GLOBAL| MM Potential file name                                     MM_POTENTIAL
 GLOBAL| Coordinate file name                                      __STD_INPUT__
 GLOBAL| Method name                                                        CP2K
 GLOBAL| Project name                                             H2O_stress_L20
 GLOBAL| Run type                                                          DEBUG
 GLOBAL| FFT library                                                       FFTW3
 GLOBAL| Diagonalization library                                       ScaLAPACK
 GLOBAL| Cholesky decomposition library                                ScaLAPACK
 GLOBAL| DGEMM library                                                      BLAS
 GLOBAL| Direct generalized diagonalization requested                          F
 GLOBAL| Orthonormality check for eigenvectors                          DISABLED
 GLOBAL| Matrix multiplication library                                 ScaLAPACK
 GLOBAL| All-to-all communication in single precision                          F
 GLOBAL| FFTs using library dependent lengths                                  F
 GLOBAL| Grid backend                                                       AUTO
 GLOBAL| Global print level                                               MEDIUM
 GLOBAL| MPI I/O enabled                                                       T
 GLOBAL| Total number of message passing processes                             1
 GLOBAL| Number of distributed systems (nodes)                                 1
 GLOBAL| Number of threads for this process                                    1
 GLOBAL| This output is from process                                           0
 GLOBAL| OpenMP stack size per thread (OMP_STACKSIZE)                    default
 GLOBAL| CPU model name                                       AMD EPYC Processor
 GLOBAL| CPUID                                                              1002

 MEMORY| system memory details [Kb]
 MEMORY|                        rank 0           min           max       average
 MEMORY| MemTotal            528104804     528104804     528104804     528104804
 MEMORY| MemFree             507954244     507954244     507954244     507954244
 MEMORY| Buffers                    20            20            20            20
 MEMORY| Cached               15189252      15189252      15189252      15189252
 MEMORY| Slab                  2493900       2493900       2493900       2493900
 MEMORY| SReclaimable          1120016       1120016       1120016       1120016
 MEMORY| MemLikelyFree       524263532     524263532     524263532     524263532


 *** WARNING in environment.F:1098 :: FFT library FFTW3 is not available. ***
 *** Trying FFT library FFTSG.                                            ***


 *** Fundamental physical constants (SI units) ***

 *** Literature: B. J. Mohr and B. N. Taylor,
 ***             CODATA recommended values of the fundamental physical
 ***             constants: 2006, Web Version 5.1
 ***             http://physics.nist.gov/constants

 Speed of light in vacuum [m/s]                             2.99792458000000E+08
 Magnetic constant or permeability of vacuum [N/A**2]       1.25663706143592E-06
 Electric constant or permittivity of vacuum [F/m]          8.85418781762039E-12
 Planck constant (h) [J*s]                                  6.62606896000000E-34
 Planck constant (h-bar) [J*s]                              1.05457162825177E-34
 Elementary charge [C]                                      1.60217648700000E-19
 Electron mass [kg]                                         9.10938215000000E-31
 Electron g factor [ ]                                     -2.00231930436220E+00
 Proton mass [kg]                                           1.67262163700000E-27
 Fine-structure constant                                    7.29735253760000E-03
 Rydberg constant [1/m]                                     1.09737315685270E+07
 Avogadro constant [1/mol]                                  6.02214179000000E+23
 Boltzmann constant [J/K]                                   1.38065040000000E-23
 Atomic mass unit [kg]                                      1.66053878200000E-27
 Bohr radius [m]                                            5.29177208590000E-11

 *** Conversion factors ***

 [u] -> [a.u.]                                              1.82288848426455E+03
 [Angstrom] -> [Bohr] = [a.u.]                              1.88972613288564E+00
 [a.u.] = [Bohr] -> [Angstrom]                              5.29177208590000E-01
 [a.u.] -> [s]                                              2.41888432650478E-17
 [a.u.] -> [fs]                                             2.41888432650478E-02
 [a.u.] -> [J]                                              4.35974393937059E-18
 [a.u.] -> [N]                                              8.23872205491840E-08
 [a.u.] -> [K]                                              3.15774647902944E+05
 [a.u.] -> [kJ/mol]                                         2.62549961709828E+03
 [a.u.] -> [kcal/mol]                                       6.27509468713739E+02
 [a.u.] -> [Pa]                                             2.94210107994716E+13
 [a.u.] -> [bar]                                            2.94210107994716E+08
 [a.u.] -> [atm]                                            2.90362800883016E+08
 [a.u.] -> [eV]                                             2.72113838565563E+01
 [a.u.] -> [Hz]                                             6.57968392072181E+15
 [a.u.] -> [1/cm] (wave numbers)                            2.19474631370540E+05
 [a.u./Bohr**2] -> [1/cm]                                   5.14048714338585E+03
 

 CELL| Volume [angstrom^3]:                                          8000.000000
 CELL| Vector a [angstrom]:      20.000     0.000     0.000   |a| =    20.000000
 CELL| Vector b [angstrom]:       0.000    20.000     0.000   |b| =    20.000000
 CELL| Vector c [angstrom]:       0.000     0.000    20.000   |c| =    20.000000
 CELL| Angle (b,c), alpha [degree]:                                    90.000000
 CELL| Angle (a,c), beta  [degree]:                                    90.000000
 CELL| Angle (a,b), gamma [degree]:                                    90.000000
 CELL| Numerically orthorhombic:                                             YES
 CELL| Periodicity                                                           XYZ

 CELL_REF| Volume [angstrom^3]:                                      8000.000000
 CELL_REF| Vector a [angstrom    20.000     0.000     0.000   |a| =    20.000000
 CELL_REF| Vector b [angstrom     0.000    20.000     0.000   |b| =    20.000000
 CELL_REF| Vector c [angstrom     0.000     0.000    20.000   |c| =    20.000000
 CELL_REF| Angle (b,c), alpha [degree]:                                90.000000
 CELL_REF| Angle (a,c), beta  [degree]:                                90.000000
 CELL_REF| Angle (a,b), gamma [degree]:                                90.000000
 CELL_REF| Numerically orthorhombic:                                         YES
 CELL_REF| Periodicity                                                       XYZ

 GENERATE|  Preliminary Number of Bonds generated:                             0
 GENERATE|  Achieved consistency in connectivity generation.


                  #####   #####        #     #   #     #       #          
                 #     # #     #      #    ##### #     #   # #####  ####  
                 #     # #           #       #   ###   #       #   #    # 
                 #     #  #####     #        #   #  #  #   #   #   ###### 
                 #   # #       #   #         #   #   # #   #   #   #      
                 #    #  #     #  #          #   #  #  # # #   #    #   # 
                  #### #  #####  #           #   ###   ##  #   #     ###  

                                     g-xTB   
                                 Version 0.0                       
                            Johann V. Pototschnig                  

                tblite provider: SAVE
                tblite source revision: 15915c9435644eb257178ca8f8bf7220c38b1a84
                g-xTB support: enabled

 xTB| Parameter file                                             xTB1_parameters
 xTB| Basis expansion STO-NG                                                   6
 xTB| Basis expansion STO-NG for Hydrogen                                      4
 xTB| Repulsive pair potential accuracy                               0.1000E-09
 xTB| Repulsive enhancement factor                                      0.000000
 xTB| Halogen interaction potential                                            T
 xTB| Halogen interaction potential cutoff radius                         20.000
 xTB| Nonbonded interactions                                                   F
 xTB| vdW potential type:                                              DFTD3(BJ)
 xTB| D3 Dispersion: Parameter                                         dftd3.dat
 xTB| Huckel constants ks kp kd                        1.850     2.250     2.000
 xTB| Huckel constants ksp k2sh                                  2.080     2.850
 xTB| Mataga-Nishimoto exponent                                            2.000
 xTB| Repulsion potential exponent                                         1.500
 xTB| Coordination number scaling kcn(s) kcn(p) kc     0.006    -0.003    -0.005
 xTB| Electronegativity scaling                                           -0.007
 xTB| Halogen potential scaling kxr kx2                          1.300     0.440
 xTB| SCC mixer:                                                       TBLITE
 xTB| tblite accuracy:                                                 1.000E-01
 xTB| tblite SCC mixer damping:                                            0.400
 xTB| tblite SCC mixer iterations:                                           300
 xTB| tblite SCC mixer memory:                                               300
 xTB| tblite SCC mixer solver:                                         GVD
 xTB| tblite SCC mixer omega0:                                         1.000E-02
 xTB| tblite SCC mixer min weight:                                     1.000E+00
 xTB| tblite SCC mixer max weight:                                     1.000E+05
 xTB| tblite SCC mixer weight factor:                                  1.000E-02




 ATOMIC KIND INFORMATION

  1. Atomic kind: H                                     Number of atoms:       2

     Orbital Basis Set                                                 H _STO-8G

       Number of orbital shell sets:                                           1
       Number of orbital shells:                                               1
       Number of primitive Cartesian functions:                                8
       Number of Cartesian basis functions:                                    1
       Number of spherical basis functions:                                    1
       Norm type:                                                              3

       Normalised Cartesian orbitals:

                        Set   Shell   Orbital            Exponent    Coefficient

                          1       1    1s              337.005012       0.037374
                                                        53.310531       0.063272
                                                        12.208253       0.115774
                                                         3.418827       0.175156
                                                         1.108790       0.218995
                                                         0.478718       0.126311
                                                         0.212137       0.088533
                                                         0.069058       0.001978

     AE Potential information for                                       Hydrogen

       Description:                                       Bare Coulomb Potential
                                                              Full atomic charge

       Gaussian exponent of the core charge distribution:              12.500000
       Electronic configuration (s p d ...):                       1   0   0   0

  2. Atomic kind: O                                     Number of atoms:       1

     Orbital Basis Set                                                 O _STO-6G

       Number of orbital shell sets:                                           2
       Number of orbital shells:                                               2
       Number of primitive Cartesian functions:                               12
       Number of Cartesian basis functions:                                    4
       Number of spherical basis functions:                                    4
       Norm type:                                                              3

       Normalised Cartesian orbitals:

                        Set   Shell   Orbital            Exponent    Coefficient

                          1       1    1s                3.483595      -1.312778
                                                         2.859866       1.114640
                                                         0.740681       0.294469
                                                         0.344927       0.081374
                                                         0.261979       0.039450
                                                         0.094616       0.012404

                          2       1    2px              37.641471       1.473846
                                                         9.713089       1.793230
                                                         3.137177       1.302657
                                                         1.121381       0.632971
                                                         0.398078       0.183037
                                                         0.123048       0.019201
                          2       1    2py              37.641471       1.473846
                                                         9.713089       1.793230
                                                         3.137177       1.302657
                                                         1.121381       0.632971
                                                         0.398078       0.183037
                                                         0.123048       0.019201
                          2       1    2pz              37.641471       1.473846
                                                         9.713089       1.793230
                                                         3.137177       1.302657
                                                         1.121381       0.632971
                                                         0.398078       0.183037
                                                         0.123048       0.019201

     AE Potential information for                                         Oxygen

       Description:                                       Bare Coulomb Potential
                                                             Valence charge only

       Gaussian exponent of the core charge distribution:               3.753049
       Electronic configuration (s p d ...):                       2   4   0   0


 MOLECULE KIND INFORMATION


 All atoms are their own molecule, skipping detailed information


 TOTAL NUMBERS AND MAXIMUM NUMBERS

  Total number of            - Atomic kinds:                                   2
                             - Atoms:                                          3
                             - Shell sets:                                     4
                             - Shells:                                         4
                             - Primitive Cartesian functions:                 28
                             - Cartesian basis functions:                      6
                             - Spherical basis functions:                      6

  Maximum angular momentum of the orbital basis functions:                     1


 MODULE QUICKSTEP: ATOMIC COORDINATES IN ANGSTROM

   Atom Kind Element         X             Y             Z       Z(eff)     Mass
      1    1 H     1     -0.012165      0.000000     -0.932352   1.0000   1.0079
      2    1 H     1      0.875098      0.000000      0.321998   1.0000   1.0079
      3    2 O     8     -0.054364      0.000000      0.038451   6.0000  15.9994



 SCF PARAMETERS         Density guess:                                     MOPAC
                        --------------------------------------------------------
                        max_scf:                                             300
                        max_scf_history:                                       0
                        max_diis:                                              4
                        --------------------------------------------------------
                        eps_scf:                                        1.00E-10
                        eps_scf_history:                                0.00E+00
                        eps_diis:                                       1.00E-01
                        eps_eigval:                                     1.00E-05
                        --------------------------------------------------------
                        level_shift [a.u.]:                             0.000000
                        added MOs                                         2    0
                        --------------------------------------------------------
                        Mixing method:                           DIRECT_P_MIXING
                        --------------------------------------------------------
                        No outer SCF

 PW_GRID| Information for grid number                                          1
 PW_GRID| Cutoff [a.u.]                                                      1.0
 PW_GRID| spherical cutoff:                                                   NO
 PW_GRID|   Bounds   1             -9       8                Points:          18
 PW_GRID|   Bounds   2             -9       8                Points:          18
 PW_GRID|   Bounds   3             -9       8                Points:          18
 PW_GRID| Volume element (a.u.^3)   9.257         Volume (a.u.^3)     53986.6767
 PW_GRID| Grid span                                                    FULLSPACE

 POISSON| Solver                                                        PERIODIC
 POISSON| Periodicity                                                        XYZ

 RS_GRID| Information for grid number                                          1
 RS_GRID|   Bounds   1             -9       8                Points:          18
 RS_GRID|   Bounds   2             -9       8                Points:          18
 RS_GRID|   Bounds   3             -9       8                Points:          18

 Extrapolation method: initial_guess

 Number of electrons:                                                          8
 Number of occupied orbitals:                                                  4
 Number of molecular orbitals:                                                 6

 Number of orbital functions:                                                  6
 Number of independent orbital functions:                                      6


 SCF WAVEFUNCTION OPTIMIZATION

  Step     Update method      Time    Convergence         Total energy    Change
  ------------------------------------------------------------------------------
     1 GXTB-Raw    0.10E+01    0.0     0.73346336       -76.4128960137 -7.64E+01
     2 GXTB-Simple 0.20E+00    0.0     0.05399092       -76.4262442090 -1.33E-02
     3 GXTB-Simple 0.20E+00    0.0     0.03729605       -76.4329647683 -6.72E-03
     4 GXTB-FDIIS  0.10E+01    0.0     0.07334515       -76.4398055852 -6.84E-03
     5 GXTB-FDIIS  0.10E+01    0.0     0.00610623       -76.4398553518 -4.98E-05
     6 GXTB-FDIIS  0.10E+01    0.0     0.00108235       -76.4398558947 -5.43E-07
     7 GXTB-FDIIS  0.10E+01    0.0     0.00005990       -76.4398558966 -1.87E-09
     8 GXTB-FDIIS  0.10E+01    0.0     0.00000390       -76.4398558966 -9.29E-12
     9 GXTB-FDIIS  0.10E+01    0.0     0.00000005       -76.4398558966  0.00E+00
    10 GXTB-FDIIS  0.10E+01    0.0     0.00000024       -76.4398558966 -2.84E-14
    11 GXTB-FDIIS  0.10E+01    0.0     8.5393E-11       -76.4398558966  0.00E+00

  *** SCF run converged in    11 steps ***


  Core Hamiltonian energy:                                     -6.22767267187350
  Repulsive potential energy:                                   0.31826523066830
  Electrostatic energy:                                         0.14284026707474
  Self-consistent dispersion energy:                           -0.00004474399072
  Non-self consistent dispersion energy:                        0.00000029898137
  Correction for halogen bonding:                               0.00000000000000

  Total energy:                                               -76.43985589661881


 MULLIKEN POPULATION ANALYSIS

  # Atom   Element   Kind        Atomic population                    Net charge
       1     H          1                 0.684739                      0.315261
       2     H          1                 0.684741                      0.315259
       3     O          2                 6.630520                     -0.630520
 # Total charge                           8.000000                      0.000000


 tblite reference CLI check
 Executable: tblite
 Method:     gxtb
 Guess:      auto
 Solver:     gvd
 Spin-pol.:  F
 Grad file:  H2O_stress_L20_cli.grad
 JSON file:  H2O_stress_L20_cli.json
 Log file:   H2O_stress_L20_cli.log
 Energy CP2K/CLI/absdiff:   -7.643985589662E+01   -7.643985589684E+01    2.167155344068E-10
 Gradient diff sum/max:    1.305332789472E-07    3.638633147215E-08
 Virial diff sum/max:    1.134428082987E-07    5.454172197911E-08

 ENERGY| Total FORCE_EVAL ( QS ) energy [hartree]            -76.439855896618809

 -------------------------------------------------------------------------------
 ----                             MULTIGRID INFO                            ----
 -------------------------------------------------------------------------------
 total grid count     :           420              cutoff [a.u.]            1.00

 PW_GRID| Information for grid number                                          2
 PW_GRID| Cutoff [a.u.]                                                      1.0
 PW_GRID| spherical cutoff:                                                   NO
 PW_GRID|   Bounds   1             -9       8                Points:          18
 PW_GRID|   Bounds   2             -9       8                Points:          18
 PW_GRID|   Bounds   3             -9       8                Points:          18
 PW_GRID| Volume element (a.u.^3)   9.257         Volume (a.u.^3)     53986.8195
 PW_GRID| Grid span                                                    FULLSPACE

 POISSON| Solver                                                        PERIODIC
 POISSON| Periodicity                                                        XYZ

 RS_GRID| Information for grid number                                          2
 RS_GRID|   Bounds   1             -9       8                Points:          18
 RS_GRID|   Bounds   2             -9       8                Points:          18
 RS_GRID|   Bounds   3             -9       8                Points:          18

 Parameters for the always stable predictor-corrector (ASPC) method:

  ASPC order: 0

  B(1) =   1.000000

 Extrapolation method: ASPC

 Number of electrons:                                                          8
 Number of occupied orbitals:                                                  4
 Number of molecular orbitals:                                                 6

 Number of orbital functions:                                                  6
 Number of independent orbital functions:                                      6


 SCF WAVEFUNCTION OPTIMIZATION

  Step     Update method      Time    Convergence         Total energy    Change
  ------------------------------------------------------------------------------
     1 GXTB-Raw    0.10E+01    0.0     0.00000092       -76.4398558384 -7.64E+01
     2 GXTB-Simple 0.20E+00    0.0     0.00000019       -76.4398558384 -1.28E-13
     3 GXTB-Simple 0.20E+00    0.0     0.00000016       -76.4398558384 -8.53E-14
     4 GXTB-FDIIS  0.10E+01    0.0     0.00000073       -76.4398558384 -1.56E-13
     5 GXTB-FDIIS  0.10E+01    0.0     0.00000003       -76.4398558384 -1.42E-14
     6 GXTB-FDIIS  0.10E+01    0.0     0.00000002       -76.4398558384  1.42E-14
     7 GXTB-FDIIS  0.10E+01    0.0     5.9915E-10       -76.4398558384  0.00E+00
     8 GXTB-FDIIS  0.10E+01    0.0     6.6554E-11       -76.4398558384  0.00E+00

  *** SCF run converged in     8 steps ***


  Core Hamiltonian energy:                                     -6.22767099800784
  Repulsive potential energy:                                   0.31826363926928
  Electrostatic energy:                                         0.14284027188402
  Self-consistent dispersion energy:                           -0.00004474413168
  Non-self consistent dispersion energy:                        0.00000029898357
  Correction for halogen bonding:                               0.00000000000000

  Total energy:                                               -76.43985583836877


 MULLIKEN POPULATION ANALYSIS

  # Atom   Element   Kind        Atomic population                    Net charge
       1     H          1                 0.684739                      0.315261
       2     H          1                 0.684741                      0.315259
       3     O          2                 6.630520                     -0.630520
 # Total charge                           8.000000                      0.000000


 tblite reference CLI check
 Executable: tblite
 Method:     gxtb
 Guess:      auto
 Solver:     gvd
 Spin-pol.:  F
 Grad file:  H2O_stress_L20_cli.grad
 JSON file:  H2O_stress_L20_cli.json
 Log file:   H2O_stress_L20_cli.log
 Energy CP2K/CLI/absdiff:   -7.643985583837E+01   -7.643985583859E+01    2.167155344068E-10
 Gradient diff sum/max:    4.921057192020E-06    1.867259519882E-06
 Virial diff sum/max:    5.061588962120E-02    2.201693162482E-02
 tblite reference CLI deviation exceeded ERROR_LIMIT =   1.0000E-05

 ENERGY| Total FORCE_EVAL ( QS ) energy [hartree]            -76.439855838368771

 -------------------------------------------------------------------------------
 ----                             MULTIGRID INFO                            ----
 -------------------------------------------------------------------------------
 total grid count     :           420              cutoff [a.u.]            1.00

 PW_GRID| Information for grid number                                          3
 PW_GRID| Cutoff [a.u.]                                                      1.0
 PW_GRID| spherical cutoff:                                                   NO
 PW_GRID|   Bounds   1             -9       8                Points:          18
 PW_GRID|   Bounds   2             -9       8                Points:          18
 PW_GRID|   Bounds   3             -9       8                Points:          18
 PW_GRID| Volume element (a.u.^3)   9.257         Volume (a.u.^3)     53986.5338
 PW_GRID| Grid span                                                    FULLSPACE

 POISSON| Solver                                                        PERIODIC
 POISSON| Periodicity                                                        XYZ

 RS_GRID| Information for grid number                                          3
 RS_GRID|   Bounds   1             -9       8                Points:          18
 RS_GRID|   Bounds   2             -9       8                Points:          18
 RS_GRID|   Bounds   3             -9       8                Points:          18

 Parameters for the always stable predictor-corrector (ASPC) method:

  ASPC order: 0

  B(1) =   2.000000
  B(2) =  -1.000000

 Extrapolation method: ASPC

 Number of electrons:                                                          8
 Number of occupied orbitals:                                                  4
 Number of molecular orbitals:                                                 6

 Number of orbital functions:                                                  6
 Number of independent orbital functions:                                      6


 SCF WAVEFUNCTION OPTIMIZATION

  Step     Update method      Time    Convergence         Total energy    Change
  ------------------------------------------------------------------------------
     1 GXTB-Raw    0.10E+01    0.0     0.00000185       -76.4398559549 -7.64E+01
     2 GXTB-Simple 0.20E+00    0.0     0.00000038       -76.4398559549 -4.97E-13
     3 GXTB-Simple 0.20E+00    0.0     0.00000031       -76.4398559549 -3.27E-13
     4 GXTB-FDIIS  0.10E+01    0.0     0.00000147       -76.4398559549 -6.68E-13
     5 GXTB-FDIIS  0.10E+01    0.0     0.00000006       -76.4398559549 -1.42E-14
     6 GXTB-FDIIS  0.10E+01    0.0     0.00000004       -76.4398559549  0.00E+00
     7 GXTB-FDIIS  0.10E+01    0.0     1.1983E-09       -76.4398559549  0.00E+00
     8 GXTB-FDIIS  0.10E+01    0.0     1.3311E-10       -76.4398559549  0.00E+00
     9 GXTB-FDIIS  0.10E+01    0.0     1.4401E-12       -76.4398559549  0.00E+00

  *** SCF run converged in     9 steps ***


  Core Hamiltonian energy:                                     -6.22767434575064
  Repulsive potential energy:                                   0.31826682208146
  Electrostatic energy:                                         0.14284026226995
  Self-consistent dispersion energy:                           -0.00004474384976
  Non-self consistent dispersion energy:                        0.00000029897918
  Correction for halogen bonding:                               0.00000000000000

  Total energy:                                               -76.43985595486036


 MULLIKEN POPULATION ANALYSIS

  # Atom   Element   Kind        Atomic population                    Net charge
       1     H          1                 0.684739                      0.315261
       2     H          1                 0.684741                      0.315259
       3     O          2                 6.630521                     -0.630521
 # Total charge                           8.000000                      0.000000


 tblite reference CLI check
 Executable: tblite
 Method:     gxtb
 Guess:      auto
 Solver:     gvd
 Spin-pol.:  F
 Grad file:  H2O_stress_L20_cli.grad
 JSON file:  H2O_stress_L20_cli.json
 Log file:   H2O_stress_L20_cli.log
 Energy CP2K/CLI/absdiff:   -7.643985595486E+01   -7.643985595508E+01    2.166871126974E-10
 Gradient diff sum/max:    5.012576221263E-06    1.940057866769E-06
 Virial diff sum/max:    5.061272939561E-02    2.201040242606E-02
 tblite reference CLI deviation exceeded ERROR_LIMIT =   1.0000E-05

 ENERGY| Total FORCE_EVAL ( QS ) energy [hartree]            -76.439855954860363

 -------------------------------------------------------------------------------
 ----                             MULTIGRID INFO                            ----
 -------------------------------------------------------------------------------
 total grid count     :           420              cutoff [a.u.]            1.00

 PW_GRID| Information for grid number                                          4
 PW_GRID| Cutoff [a.u.]                                                      1.0
 PW_GRID| spherical cutoff:                                                   NO
 PW_GRID|   Bounds   1             -9       8                Points:          18
 PW_GRID|   Bounds   2             -9       8                Points:          18
 PW_GRID|   Bounds   3             -9       8                Points:          18
 PW_GRID| Volume element (a.u.^3)   9.257         Volume (a.u.^3)     53986.6767
 PW_GRID| Grid span                                                    FULLSPACE

 POISSON| Solver                                                        PERIODIC
 POISSON| Periodicity                                                        XYZ

 RS_GRID| Information for grid number                                          4
 RS_GRID|   Bounds   1             -9       8                Points:          18
 RS_GRID|   Bounds   2             -9       8                Points:          18
 RS_GRID|   Bounds   3             -9       8                Points:          18

 Parameters for the always stable predictor-corrector (ASPC) method:

  ASPC order: 1

  B(1) =   2.500000
  B(2) =  -2.000000
  B(3) =   0.500000

 Extrapolation method: ASPC

 Number of electrons:                                                          8
 Number of occupied orbitals:                                                  4
 Number of molecular orbitals:                                                 6

 Number of orbital functions:                                                  6
 Number of independent orbital functions:                                      6


 SCF WAVEFUNCTION OPTIMIZATION

  Step     Update method      Time    Convergence         Total energy    Change
  ------------------------------------------------------------------------------
     1 GXTB-Raw    0.10E+01    0.0     0.00000092       -76.4398558966 -7.64E+01
     2 GXTB-Simple 0.20E+00    0.0     0.00000019       -76.4398558966 -1.28E-13
     3 GXTB-Simple 0.20E+00    0.0     0.00000016       -76.4398558966 -8.53E-14
     4 GXTB-FDIIS  0.10E+01    0.0     0.00000073       -76.4398558966 -1.71E-13
     5 GXTB-FDIIS  0.10E+01    0.0     0.00000003       -76.4398558966  0.00E+00
     6 GXTB-FDIIS  0.10E+01    0.0     0.00000002       -76.4398558966  0.00E+00
     7 GXTB-FDIIS  0.10E+01    0.0     5.9915E-10       -76.4398558966  1.42E-14
     8 GXTB-FDIIS  0.10E+01    0.0     6.6553E-11       -76.4398558966 -1.42E-14

  *** SCF run converged in     8 steps ***


  Core Hamiltonian energy:                                     -6.22767267187690
  Repulsive potential energy:                                   0.31826523066828
  Electrostatic energy:                                         0.14284026707675
  Self-consistent dispersion energy:                           -0.00004474399072
  Non-self consistent dispersion energy:                        0.00000029898137
  Correction for halogen bonding:                               0.00000000000000

  Total energy:                                               -76.43985589661879


 MULLIKEN POPULATION ANALYSIS

  # Atom   Element   Kind        Atomic population                    Net charge
       1     H          1                 0.684739                      0.315261
       2     H          1                 0.684741                      0.315259
       3     O          2                 6.630520                     -0.630520
 # Total charge                           8.000000                      0.000000


 tblite reference CLI check
 Executable: tblite
 Method:     gxtb
 Guess:      auto
 Solver:     gvd
 Spin-pol.:  F
 Grad file:  H2O_stress_L20_cli.grad
 JSON file:  H2O_stress_L20_cli.json
 Log file:   H2O_stress_L20_cli.log
 Energy CP2K/CLI/absdiff:   -7.643985589662E+01   -7.643985589684E+01    2.167013235521E-10
 Gradient diff sum/max:    1.306290136810E-07    3.638633498670E-08
 Virial diff sum/max:    5.061434101796E-02    2.201366703837E-02
 tblite reference CLI deviation exceeded ERROR_LIMIT =   1.0000E-05

 ENERGY| Total FORCE_EVAL ( QS ) energy [hartree]            -76.439855896618795

 -------------------------------------------------------------------------------
 ----                             MULTIGRID INFO                            ----
 -------------------------------------------------------------------------------
 total grid count     :           420              cutoff [a.u.]            1.00

 PW_GRID| Information for grid number                                          5
 PW_GRID| Cutoff [a.u.]                                                      1.0
 PW_GRID| spherical cutoff:                                                   NO
 PW_GRID|   Bounds   1             -9       8                Points:          18
 PW_GRID|   Bounds   2             -9       8                Points:          18
 PW_GRID|   Bounds   3             -9       8                Points:          18
 PW_GRID| Volume element (a.u.^3)   9.257         Volume (a.u.^3)     53986.6767
 PW_GRID| Grid span                                                    FULLSPACE

 POISSON| Solver                                                        PERIODIC
 POISSON| Periodicity                                                        XYZ

 RS_GRID| Information for grid number                                          5
 RS_GRID|   Bounds   1             -9       8                Points:          18
 RS_GRID|   Bounds   2             -9       8                Points:          18
 RS_GRID|   Bounds   3             -9       8                Points:          18

 Parameters for the always stable predictor-corrector (ASPC) method:

  ASPC order: 2

  B(1) =   2.800000
  B(2) =  -2.800000
  B(3) =   1.200000
  B(4) =  -0.200000

 Extrapolation method: ASPC

 Number of electrons:                                                          8
 Number of occupied orbitals:                                                  4
 Number of molecular orbitals:                                                 6

 Number of orbital functions:                                                  6
 Number of independent orbital functions:                                      6


 SCF WAVEFUNCTION OPTIMIZATION

  Step     Update method      Time    Convergence         Total energy    Change
  ------------------------------------------------------------------------------
     1 GXTB-Raw    0.10E+01    0.0     8.2431E-11       -76.4398558966 -7.64E+01

  *** SCF run converged in     1 steps ***


  Core Hamiltonian energy:                                     -6.22767267187693
  Repulsive potential energy:                                   0.31826523066828
  Electrostatic energy:                                         0.14284026707678
  Self-consistent dispersion energy:                           -0.00004474399072
  Non-self consistent dispersion energy:                        0.00000029898137
  Correction for halogen bonding:                               0.00000000000000

  Total energy:                                               -76.43985589661879


 MULLIKEN POPULATION ANALYSIS

  # Atom   Element   Kind        Atomic population                    Net charge
       1     H          1                 0.684739                      0.315261
       2     H          1                 0.684741                      0.315259
       3     O          2                 6.630520                     -0.630520
 # Total charge                           8.000000                      0.000000


 tblite reference CLI check
 Executable: tblite
 Method:     gxtb
 Guess:      auto
 Solver:     gvd
 Spin-pol.:  F
 Grad file:  H2O_stress_L20_cli.grad
 JSON file:  H2O_stress_L20_cli.json
 Log file:   H2O_stress_L20_cli.log
 Energy CP2K/CLI/absdiff:   -7.643985589662E+01   -7.643985589684E+01    2.167013235521E-10
 Gradient diff sum/max:    1.306290133147E-07    3.638633498670E-08
 Virial diff sum/max:    5.061434101796E-02    2.201366703837E-02
 tblite reference CLI deviation exceeded ERROR_LIMIT =   1.0000E-05

 ENERGY| Total FORCE_EVAL ( QS ) energy [hartree]            -76.439855896618795

 -------------------------------------------------------------------------------
 ----                             MULTIGRID INFO                            ----
 -------------------------------------------------------------------------------
 total grid count     :           420              cutoff [a.u.]            1.00

 PW_GRID| Information for grid number                                          6
 PW_GRID| Cutoff [a.u.]                                                      1.0
 PW_GRID| spherical cutoff:                                                   NO
 PW_GRID|   Bounds   1             -9       8                Points:          18
 PW_GRID|   Bounds   2             -9       8                Points:          18
 PW_GRID|   Bounds   3             -9       8                Points:          18
 PW_GRID| Volume element (a.u.^3)   9.257         Volume (a.u.^3)     53986.6767
 PW_GRID| Grid span                                                    FULLSPACE

 POISSON| Solver                                                        PERIODIC
 POISSON| Periodicity                                                        XYZ

 RS_GRID| Information for grid number                                          6
 RS_GRID|   Bounds   1             -9       8                Points:          18
 RS_GRID|   Bounds   2             -9       8                Points:          18
 RS_GRID|   Bounds   3             -9       8                Points:          18

 Parameters for the always stable predictor-corrector (ASPC) method:

  ASPC order: 3

  B(1) =   3.000000
  B(2) =  -3.428571
  B(3) =   1.928571
  B(4) =  -0.571429
  B(5) =   0.071429

 Extrapolation method: ASPC

 Number of electrons:                                                          8
 Number of occupied orbitals:                                                  4
 Number of molecular orbitals:                                                 6

 Number of orbital functions:                                                  6
 Number of independent orbital functions:                                      6


 SCF WAVEFUNCTION OPTIMIZATION

  Step     Update method      Time    Convergence         Total energy    Change
  ------------------------------------------------------------------------------
     1 GXTB-Raw    0.10E+01    0.0     0.00000040       -76.4398558980 -7.64E+01
     2 GXTB-Simple 0.20E+00    0.0     0.00000014       -76.4398558980 -8.53E-14
     3 GXTB-Simple 0.20E+00    0.0     0.00000012       -76.4398558980 -4.26E-14
     4 GXTB-FDIIS  0.10E+01    0.0     0.00000059       -76.4398558980 -1.28E-13
     5 GXTB-FDIIS  0.10E+01    0.0     0.00000002       -76.4398558980  0.00E+00
     6 GXTB-FDIIS  0.10E+01    0.0     3.5221E-09       -76.4398558980 -1.42E-14
     7 GXTB-FDIIS  0.10E+01    0.0     4.5234E-10       -76.4398558980  0.00E+00
     8 GXTB-FDIIS  0.10E+01    0.0     4.3188E-11       -76.4398558980  0.00E+00

  *** SCF run converged in     8 steps ***


  Core Hamiltonian energy:                                     -6.22767240718145
  Repulsive potential energy:                                   0.31826480199230
  Electrostatic energy:                                         0.14284032333703
  Self-consistent dispersion energy:                           -0.00004474407682
  Non-self consistent dispersion energy:                        0.00000029897933
  Correction for halogen bonding:                               0.00000000000000

  Total energy:                                               -76.43985589803066


 MULLIKEN POPULATION ANALYSIS

  # Atom   Element   Kind        Atomic population                    Net charge
       1     H          1                 0.684739                      0.315261
       2     H          1                 0.684741                      0.315259
       3     O          2                 6.630520                     -0.630520
 # Total charge                           8.000000                      0.000000


 tblite reference CLI check
 Executable: tblite
 Method:     gxtb
 Guess:      auto
 Solver:     gvd
 Spin-pol.:  F
 Grad file:  H2O_stress_L20_cli.grad
 JSON file:  H2O_stress_L20_cli.json
 Log file:   H2O_stress_L20_cli.log
 Energy CP2K/CLI/absdiff:   -7.643985589803E+01   -7.643985589825E+01    2.167013235521E-10
 Gradient diff sum/max:    1.975033168549E-06    5.434812362995E-07
 Virial diff sum/max:    5.061395281201E-02    2.201465338610E-02
 tblite reference CLI deviation exceeded ERROR_LIMIT =   1.0000E-05

 ENERGY| Total FORCE_EVAL ( QS ) energy [hartree]            -76.439855898030657

 -------------------------------------------------------------------------------
 ----                             MULTIGRID INFO                            ----
 -------------------------------------------------------------------------------
 total grid count     :           420              cutoff [a.u.]            1.00

 PW_GRID| Information for grid number                                          7
 PW_GRID| Cutoff [a.u.]                                                      1.0
 PW_GRID| spherical cutoff:                                                   NO
 PW_GRID|   Bounds   1             -9       8                Points:          18
 PW_GRID|   Bounds   2             -9       8                Points:          18
 PW_GRID|   Bounds   3             -9       8                Points:          18
 PW_GRID| Volume element (a.u.^3)   9.257         Volume (a.u.^3)     53986.6767
 PW_GRID| Grid span                                                    FULLSPACE

 POISSON| Solver                                                        PERIODIC
 POISSON| Periodicity                                                        XYZ

 RS_GRID| Information for grid number                                          7
 RS_GRID|   Bounds   1             -9       8                Points:          18
 RS_GRID|   Bounds   2             -9       8                Points:          18
 RS_GRID|   Bounds   3             -9       8                Points:          18

 Parameters for the always stable predictor-corrector (ASPC) method:

  ASPC order: 3

  B(1) =   3.000000
  B(2) =  -3.428571
  B(3) =   1.928571
  B(4) =  -0.571429
  B(5) =   0.071429

 Extrapolation method: ASPC

 Number of electrons:                                                          8
 Number of occupied orbitals:                                                  4
 Number of molecular orbitals:                                                 6

 Number of orbital functions:                                                  6
 Number of independent orbital functions:                                      6


 SCF WAVEFUNCTION OPTIMIZATION

  Step     Update method      Time    Convergence         Total energy    Change
  ------------------------------------------------------------------------------
     1 GXTB-Raw    0.10E+01    0.0     0.00000081       -76.4398558952 -7.64E+01
     2 GXTB-Simple 0.20E+00    0.0     0.00000029       -76.4398558952 -3.41E-13
     3 GXTB-Simple 0.20E+00    0.0     0.00000024       -76.4398558952 -2.13E-13
     4 GXTB-FDIIS  0.10E+01    0.0     0.00000118       -76.4398558952 -5.26E-13
     5 GXTB-FDIIS  0.10E+01    0.0     0.00000005       -76.4398558952  0.00E+00
     6 GXTB-FDIIS  0.10E+01    0.0     7.0440E-09       -76.4398558952  0.00E+00
     7 GXTB-FDIIS  0.10E+01    0.0     9.0469E-10       -76.4398558952  0.00E+00
     8 GXTB-FDIIS  0.10E+01    0.0     8.6379E-11       -76.4398558952  0.00E+00

  *** SCF run converged in     8 steps ***


  Core Hamiltonian energy:                                     -6.22767293656803
  Repulsive potential energy:                                   0.31826565934124
  Electrostatic energy:                                         0.14284021081728
  Self-consistent dispersion energy:                           -0.00004474390462
  Non-self consistent dispersion energy:                        0.00000029898341
  Correction for halogen bonding:                               0.00000000000000

  Total energy:                                               -76.43985589520494


 MULLIKEN POPULATION ANALYSIS

  # Atom   Element   Kind        Atomic population                    Net charge
       1     H          1                 0.684739                      0.315261
       2     H          1                 0.684741                      0.315259
       3     O          2                 6.630520                     -0.630520
 # Total charge                           8.000000                      0.000000


 tblite reference CLI check
 Executable: tblite
 Method:     gxtb
 Guess:      auto
 Solver:     gvd
 Spin-pol.:  F
 Grad file:  H2O_stress_L20_cli.grad
 JSON file:  H2O_stress_L20_cli.json
 Log file:   H2O_stress_L20_cli.log
 Energy CP2K/CLI/absdiff:   -7.643985589520E+01   -7.643985589542E+01    2.167013235521E-10
 Gradient diff sum/max:    2.018206232618E-06    6.025193604216E-07
 Virial diff sum/max:    5.061466621946E-02    2.201268069040E-02
 tblite reference CLI deviation exceeded ERROR_LIMIT =   1.0000E-05

 ENERGY| Total FORCE_EVAL ( QS ) energy [hartree]            -76.439855895204943

 -------------------------------------------------------------------------------
 ----                             MULTIGRID INFO                            ----
 -------------------------------------------------------------------------------
 total grid count     :           420              cutoff [a.u.]            1.00

 PW_GRID| Information for grid number                                          8
 PW_GRID| Cutoff [a.u.]                                                      1.0
 PW_GRID| spherical cutoff:                                                   NO
 PW_GRID|   Bounds   1             -9       8                Points:          18
 PW_GRID|   Bounds   2             -9       8                Points:          18
 PW_GRID|   Bounds   3             -9       8                Points:          18
 PW_GRID| Volume element (a.u.^3)   9.257         Volume (a.u.^3)     53986.6767
 PW_GRID| Grid span                                                    FULLSPACE

 POISSON| Solver                                                        PERIODIC
 POISSON| Periodicity                                                        XYZ

 RS_GRID| Information for grid number                                          8
 RS_GRID|   Bounds   1             -9       8                Points:          18
 RS_GRID|   Bounds   2             -9       8                Points:          18
 RS_GRID|   Bounds   3             -9       8                Points:          18

 Parameters for the always stable predictor-corrector (ASPC) method:

  ASPC order: 3

  B(1) =   3.000000
  B(2) =  -3.428571
  B(3) =   1.928571
  B(4) =  -0.571429
  B(5) =   0.071429

 Extrapolation method: ASPC

 Number of electrons:                                                          8
 Number of occupied orbitals:                                                  4
 Number of molecular orbitals:                                                 6

 Number of orbital functions:                                                  6
 Number of independent orbital functions:                                      6


 SCF WAVEFUNCTION OPTIMIZATION

  Step     Update method      Time    Convergence         Total energy    Change
  ------------------------------------------------------------------------------
     1 GXTB-Raw    0.10E+01    0.0     0.00000058       -76.4398558966 -7.64E+01
     2 GXTB-Simple 0.20E+00    0.0     0.00000023       -76.4398558966 -1.99E-13
     3 GXTB-Simple 0.20E+00    0.0     0.00000020       -76.4398558966 -1.42E-13
     4 GXTB-FDIIS  0.10E+01    0.0     0.00000101       -76.4398558966 -3.41E-13
     5 GXTB-FDIIS  0.10E+01    0.0     0.00000005       -76.4398558966  0.00E+00
     6 GXTB-FDIIS  0.10E+01    0.0     3.8289E-09       -76.4398558966  1.42E-14
     7 GXTB-FDIIS  0.10E+01    0.0     4.0417E-10       -76.4398558966 -1.42E-14
     8 GXTB-FDIIS  0.10E+01    0.0     1.3518E-10       -76.4398558966  0.00E+00
     9 GXTB-FDIIS  0.10E+01    0.0     1.4924E-11       -76.4398558966  0.00E+00

  *** SCF run converged in     9 steps ***


  Core Hamiltonian energy:                                     -6.22767267187471
  Repulsive potential energy:                                   0.31826523066617
  Electrostatic energy:                                         0.14284026707679
  Self-consistent dispersion energy:                           -0.00004474399072
  Non-self consistent dispersion energy:                        0.00000029898137
  Correction for halogen bonding:                               0.00000000000000

  Total energy:                                               -76.43985589661874


 MULLIKEN POPULATION ANALYSIS

  # Atom   Element   Kind        Atomic population                    Net charge
       1     H          1                 0.684739                      0.315261
       2     H          1                 0.684741                      0.315259
       3     O          2                 6.630520                     -0.630520
 # Total charge                           8.000000                      0.000000


 tblite reference CLI check
 Executable: tblite
 Method:     gxtb
 Guess:      auto
 Solver:     gvd
 Spin-pol.:  F
 Grad file:  H2O_stress_L20_cli.grad
 JSON file:  H2O_stress_L20_cli.json
 Log file:   H2O_stress_L20_cli.log
 Energy CP2K/CLI/absdiff:   -7.643985589662E+01   -7.643985589684E+01    2.167013235521E-10
 Gradient diff sum/max:    1.931923497589E-07    3.638385182025E-08
 Virial diff sum/max:    5.061442857618E-02    2.201366704250E-02
 tblite reference CLI deviation exceeded ERROR_LIMIT =   1.0000E-05

 ENERGY| Total FORCE_EVAL ( QS ) energy [hartree]            -76.439855896618738

 -------------------------------------------------------------------------------
 ----                             MULTIGRID INFO                            ----
 -------------------------------------------------------------------------------
 total grid count     :           420              cutoff [a.u.]            1.00

 PW_GRID| Information for grid number                                          9
 PW_GRID| Cutoff [a.u.]                                                      1.0
 PW_GRID| spherical cutoff:                                                   NO
 PW_GRID|   Bounds   1             -9       8                Points:          18
 PW_GRID|   Bounds   2             -9       8                Points:          18
 PW_GRID|   Bounds   3             -9       8                Points:          18
 PW_GRID| Volume element (a.u.^3)   9.257         Volume (a.u.^3)     53986.6767
 PW_GRID| Grid span                                                    FULLSPACE

 POISSON| Solver                                                        PERIODIC
 POISSON| Periodicity                                                        XYZ

 RS_GRID| Information for grid number                                          9
 RS_GRID|   Bounds   1             -9       8                Points:          18
 RS_GRID|   Bounds   2             -9       8                Points:          18
 RS_GRID|   Bounds   3             -9       8                Points:          18

 Parameters for the always stable predictor-corrector (ASPC) method:

  ASPC order: 3

  B(1) =   3.000000
  B(2) =  -3.428571
  B(3) =   1.928571
  B(4) =  -0.571429
  B(5) =   0.071429

 Extrapolation method: ASPC

 Number of electrons:                                                          8
 Number of occupied orbitals:                                                  4
 Number of molecular orbitals:                                                 6

 Number of orbital functions:                                                  6
 Number of independent orbital functions:                                      6


 SCF WAVEFUNCTION OPTIMIZATION

  Step     Update method      Time    Convergence         Total energy    Change
  ------------------------------------------------------------------------------
     1 GXTB-Raw    0.10E+01    0.0     0.00000116       -76.4398558966 -7.64E+01
     2 GXTB-Simple 0.20E+00    0.0     0.00000046       -76.4398558966 -4.55E-13
     3 GXTB-Simple 0.20E+00    0.0     0.00000039       -76.4398558966 -3.41E-13
     4 GXTB-FDIIS  0.10E+01    0.0     0.00000204       -76.4398558966 -8.24E-13
     5 GXTB-FDIIS  0.10E+01    0.0     0.00000008       -76.4398558966  0.00E+00
     6 GXTB-FDIIS  0.10E+01    0.0     1.8703E-09       -76.4398558966  0.00E+00
     7 GXTB-FDIIS  0.10E+01    0.0     2.7311E-13       -76.4398558966  1.42E-14

  *** SCF run converged in     7 steps ***


  Core Hamiltonian energy:                                     -6.22767267187473
  Repulsive potential energy:                                   0.31826523066617
  Electrostatic energy:                                         0.14284026707678
  Self-consistent dispersion energy:                           -0.00004474399072
  Non-self consistent dispersion energy:                        0.00000029898137
  Correction for halogen bonding:                               0.00000000000000

  Total energy:                                               -76.43985589661872


 MULLIKEN POPULATION ANALYSIS

  # Atom   Element   Kind        Atomic population                    Net charge
       1     H          1                 0.684739                      0.315261
       2     H          1                 0.684741                      0.315259
       3     O          2                 6.630520                     -0.630520
 # Total charge                           8.000000                     -0.000000


 tblite reference CLI check
 Executable: tblite
 Method:     gxtb
 Guess:      auto
 Solver:     gvd
 Spin-pol.:  F
 Grad file:  H2O_stress_L20_cli.grad
 JSON file:  H2O_stress_L20_cli.json
 Log file:   H2O_stress_L20_cli.log
 Energy CP2K/CLI/absdiff:   -7.643985589662E+01   -7.643985589684E+01    2.167155344068E-10
 Gradient diff sum/max:    1.931923501252E-07    3.638385182025E-08
 Virial diff sum/max:    5.061442857618E-02    2.201366704250E-02
 tblite reference CLI deviation exceeded ERROR_LIMIT =   1.0000E-05

 ENERGY| Total FORCE_EVAL ( QS ) energy [hartree]            -76.439855896618724

 -------------------------------------------------------------------------------
 ----                             MULTIGRID INFO                            ----
 -------------------------------------------------------------------------------
 total grid count     :           420              cutoff [a.u.]            1.00

 PW_GRID| Information for grid number                                         10
 PW_GRID| Cutoff [a.u.]                                                      1.0
 PW_GRID| spherical cutoff:                                                   NO
 PW_GRID|   Bounds   1             -9       8                Points:          18
 PW_GRID|   Bounds   2             -9       8                Points:          18
 PW_GRID|   Bounds   3             -9       8                Points:          18
 PW_GRID| Volume element (a.u.^3)   9.257         Volume (a.u.^3)     53986.8195
 PW_GRID| Grid span                                                    FULLSPACE

 POISSON| Solver                                                        PERIODIC
 POISSON| Periodicity                                                        XYZ

 RS_GRID| Information for grid number                                         10
 RS_GRID|   Bounds   1             -9       8                Points:          18
 RS_GRID|   Bounds   2             -9       8                Points:          18
 RS_GRID|   Bounds   3             -9       8                Points:          18

 Parameters for the always stable predictor-corrector (ASPC) method:

  ASPC order: 3

  B(1) =   3.000000
  B(2) =  -3.428571
  B(3) =   1.928571
  B(4) =  -0.571429
  B(5) =   0.071429

 Extrapolation method: ASPC

 Number of electrons:                                                          8
 Number of occupied orbitals:                                                  4
 Number of molecular orbitals:                                                 6

 Number of orbital functions:                                                  6
 Number of independent orbital functions:                                      6


 SCF WAVEFUNCTION OPTIMIZATION

  Step     Update method      Time    Convergence         Total energy    Change
  ------------------------------------------------------------------------------
     1 GXTB-Raw    0.10E+01    0.0     0.00000058       -76.4398558808 -7.64E+01
     2 GXTB-Simple 0.20E+00    0.0     0.00000023       -76.4398558808 -1.14E-13
     3 GXTB-Simple 0.20E+00    0.0     0.00000020       -76.4398558808 -9.95E-14
     4 GXTB-FDIIS  0.10E+01    0.0     0.00000102       -76.4398558808 -1.85E-13
     5 GXTB-FDIIS  0.10E+01    0.0     0.00000004       -76.4398558808 -1.42E-14
     6 GXTB-FDIIS  0.10E+01    0.0     9.7176E-10       -76.4398558808  1.42E-14
     7 GXTB-FDIIS  0.10E+01    0.0     4.4156E-10       -76.4398558808 -1.42E-14
     8 GXTB-FDIIS  0.10E+01    0.0     3.7215E-13       -76.4398558808  0.00E+00

  *** SCF run converged in     8 steps ***


  Core Hamiltonian energy:                                     -6.22767266773247
  Repulsive potential energy:                                   0.31826523071015
  Electrostatic energy:                                         0.14284026401887
  Self-consistent dispersion energy:                           -0.00004474399121
  Non-self consistent dispersion energy:                        0.00000029898137
  Correction for halogen bonding:                               0.00000000000000

  Total energy:                                               -76.43985588077310


 MULLIKEN POPULATION ANALYSIS

  # Atom   Element   Kind        Atomic population                    Net charge
       1     H          1                 0.684739                      0.315261
       2     H          1                 0.684741                      0.315259
       3     O          2                 6.630520                     -0.630520
 # Total charge                           8.000000                     -0.000000


 tblite reference CLI check
 Executable: tblite
 Method:     gxtb
 Guess:      auto
 Solver:     gvd
 Spin-pol.:  F
 Grad file:  H2O_stress_L20_cli.grad
 JSON file:  H2O_stress_L20_cli.json
 Log file:   H2O_stress_L20_cli.log
 Energy CP2K/CLI/absdiff:   -7.643985588077E+01   -7.643985588099E+01    2.167013235521E-10
 Gradient diff sum/max:    1.338975982107E-07    3.763038186784E-08
 Virial diff sum/max:    5.061420911366E-02    2.201366581167E-02
 tblite reference CLI deviation exceeded ERROR_LIMIT =   1.0000E-05

 ENERGY| Total FORCE_EVAL ( QS ) energy [hartree]            -76.439855880773095

 -------------------------------------------------------------------------------
 ----                             MULTIGRID INFO                            ----
 -------------------------------------------------------------------------------
 total grid count     :           420              cutoff [a.u.]            1.00

 PW_GRID| Information for grid number                                         11
 PW_GRID| Cutoff [a.u.]                                                      1.0
 PW_GRID| spherical cutoff:                                                   NO
 PW_GRID|   Bounds   1             -9       8                Points:          18
 PW_GRID|   Bounds   2             -9       8                Points:          18
 PW_GRID|   Bounds   3             -9       8                Points:          18
 PW_GRID| Volume element (a.u.^3)   9.257         Volume (a.u.^3)     53986.5338
 PW_GRID| Grid span                                                    FULLSPACE

 POISSON| Solver                                                        PERIODIC
 POISSON| Periodicity                                                        XYZ

 RS_GRID| Information for grid number                                         11
 RS_GRID|   Bounds   1             -9       8                Points:          18
 RS_GRID|   Bounds   2             -9       8                Points:          18
 RS_GRID|   Bounds   3             -9       8                Points:          18

 Parameters for the always stable predictor-corrector (ASPC) method:

  ASPC order: 3

  B(1) =   3.000000
  B(2) =  -3.428571
  B(3) =   1.928571
  B(4) =  -0.571429
  B(5) =   0.071429

 Extrapolation method: ASPC

 Number of electrons:                                                          8
 Number of occupied orbitals:                                                  4
 Number of molecular orbitals:                                                 6

 Number of orbital functions:                                                  6
 Number of independent orbital functions:                                      6


 SCF WAVEFUNCTION OPTIMIZATION

  Step     Update method      Time    Convergence         Total energy    Change
  ------------------------------------------------------------------------------
     1 GXTB-Raw    0.10E+01    0.0     3.5715E-10       -76.4398559125 -7.64E+01
     2 GXTB-Simple 0.20E+00    0.0     3.6521E-09       -76.4398559125  0.00E+00
     3 GXTB-Simple 0.20E+00    0.0     2.6365E-09       -76.4398559125  0.00E+00
     4 GXTB-FDIIS  0.10E+01    0.0     7.8370E-09       -76.4398559125  1.42E-14
     5 GXTB-FDIIS  0.10E+01    0.0     8.1151E-10       -76.4398559125 -1.42E-14
     6 GXTB-FDIIS  0.10E+01    0.0     1.0495E-10       -76.4398559125  0.00E+00
     7 GXTB-FDIIS  0.10E+01    0.0     2.7173E-12       -76.4398559125  0.00E+00

  *** SCF run converged in     7 steps ***


  Core Hamiltonian energy:                                     -6.22767267602150
  Repulsive potential energy:                                   0.31826523062640
  Electrostatic energy:                                         0.14284027013474
  Self-consistent dispersion energy:                           -0.00004474399023
  Non-self consistent dispersion energy:                        0.00000029898137
  Correction for halogen bonding:                               0.00000000000000

  Total energy:                                               -76.43985591246484


 MULLIKEN POPULATION ANALYSIS

  # Atom   Element   Kind        Atomic population                    Net charge
       1     H          1                 0.684739                      0.315261
       2     H          1                 0.684741                      0.315259
       3     O          2                 6.630520                     -0.630520
 # Total charge                           8.000000                     -0.000000


 tblite reference CLI check
 Executable: tblite
 Method:     gxtb
 Guess:      auto
 Solver:     gvd
 Spin-pol.:  F
 Grad file:  H2O_stress_L20_cli.grad
 JSON file:  H2O_stress_L20_cli.json
 Log file:   H2O_stress_L20_cli.log
 Energy CP2K/CLI/absdiff:   -7.643985591246E+01   -7.643985591268E+01    2.167013235521E-10
 Gradient diff sum/max:    1.271688992794E-07    3.514225946528E-08
 Virial diff sum/max:    5.061440990861E-02    2.201366826129E-02
 tblite reference CLI deviation exceeded ERROR_LIMIT =   1.0000E-05

 ENERGY| Total FORCE_EVAL ( QS ) energy [hartree]            -76.439855912464836

 -------------------------------------------------------------------------------
 ----                             MULTIGRID INFO                            ----
 -------------------------------------------------------------------------------
 total grid count     :           420              cutoff [a.u.]            1.00

 PW_GRID| Information for grid number                                         12
 PW_GRID| Cutoff [a.u.]                                                      1.0
 PW_GRID| spherical cutoff:                                                   NO
 PW_GRID|   Bounds   1             -9       8                Points:          18
 PW_GRID|   Bounds   2             -9       8                Points:          18
 PW_GRID|   Bounds   3             -9       8                Points:          18
 PW_GRID| Volume element (a.u.^3)   9.257         Volume (a.u.^3)     53986.6767
 PW_GRID| Grid span                                                    FULLSPACE

 POISSON| Solver                                                        PERIODIC
 POISSON| Periodicity                                                        XYZ

 RS_GRID| Information for grid number                                         12
 RS_GRID|   Bounds   1             -9       8                Points:          18
 RS_GRID|   Bounds   2             -9       8                Points:          18
 RS_GRID|   Bounds   3             -9       8                Points:          18

 Parameters for the always stable predictor-corrector (ASPC) method:

  ASPC order: 3

  B(1) =   3.000000
  B(2) =  -3.428571
  B(3) =   1.928571
  B(4) =  -0.571429
  B(5) =   0.071429

 Extrapolation method: ASPC

 Number of electrons:                                                          8
 Number of occupied orbitals:                                                  4
 Number of molecular orbitals:                                                 6

 Number of orbital functions:                                                  6
 Number of independent orbital functions:                                      6


 SCF WAVEFUNCTION OPTIMIZATION

  Step     Update method      Time    Convergence         Total energy    Change
  ------------------------------------------------------------------------------
     1 GXTB-Raw    0.10E+01    0.0     0.00000060       -76.4398558966 -7.64E+01
     2 GXTB-Simple 0.20E+00    0.0     0.00000024       -76.4398558966 -1.42E-13
     3 GXTB-Simple 0.20E+00    0.0     0.00000021       -76.4398558966 -9.95E-14
     4 GXTB-FDIIS  0.10E+01    0.0     0.00000108       -76.4398558966 -2.56E-13
     5 GXTB-FDIIS  0.10E+01    0.0     0.00000005       -76.4398558966  0.00E+00
     6 GXTB-FDIIS  0.10E+01    0.0     9.8632E-10       -76.4398558966  0.00E+00
     7 GXTB-FDIIS  0.10E+01    0.0     3.6595E-10       -76.4398558966  0.00E+00
     8 GXTB-FDIIS  0.10E+01    0.0     3.7437E-13       -76.4398558966  0.00E+00

  *** SCF run converged in     8 steps ***


  Core Hamiltonian energy:                                     -6.22767267187448
  Repulsive potential energy:                                   0.31826523066577
  Electrostatic energy:                                         0.14284026707683
  Self-consistent dispersion energy:                           -0.00004474399072
  Non-self consistent dispersion energy:                        0.00000029898137
  Correction for halogen bonding:                               0.00000000000000

  Total energy:                                               -76.43985589661874


 MULLIKEN POPULATION ANALYSIS

  # Atom   Element   Kind        Atomic population                    Net charge
       1     H          1                 0.684739                      0.315261
       2     H          1                 0.684741                      0.315259
       3     O          2                 6.630520                     -0.630520
 # Total charge                           8.000000                     -0.000000


 tblite reference CLI check
 Executable: tblite
 Method:     gxtb
 Guess:      auto
 Solver:     gvd
 Spin-pol.:  F
 Grad file:  H2O_stress_L20_cli.grad
 JSON file:  H2O_stress_L20_cli.json
 Log file:   H2O_stress_L20_cli.log
 Energy CP2K/CLI/absdiff:   -7.643985589662E+01   -7.643985589684E+01    2.167013235521E-10
 Gradient diff sum/max:    1.751391037997E-07    3.638617843485E-08
 Virial diff sum/max:    5.061442621295E-02    2.201366703872E-02
 tblite reference CLI deviation exceeded ERROR_LIMIT =   1.0000E-05

 ENERGY| Total FORCE_EVAL ( QS ) energy [hartree]            -76.439855896618738

 -------------------------------------------------------------------------------
 ----                             MULTIGRID INFO                            ----
 -------------------------------------------------------------------------------
 total grid count     :           420              cutoff [a.u.]            1.00

 PW_GRID| Information for grid number                                         13
 PW_GRID| Cutoff [a.u.]                                                      1.0
 PW_GRID| spherical cutoff:                                                   NO
 PW_GRID|   Bounds   1             -9       8                Points:          18
 PW_GRID|   Bounds   2             -9       8                Points:          18
 PW_GRID|   Bounds   3             -9       8                Points:          18
 PW_GRID| Volume element (a.u.^3)   9.257         Volume (a.u.^3)     53986.6767
 PW_GRID| Grid span                                                    FULLSPACE

 POISSON| Solver                                                        PERIODIC
 POISSON| Periodicity                                                        XYZ

 RS_GRID| Information for grid number                                         13
 RS_GRID|   Bounds   1             -9       8                Points:          18
 RS_GRID|   Bounds   2             -9       8                Points:          18
 RS_GRID|   Bounds   3             -9       8                Points:          18

 Parameters for the always stable predictor-corrector (ASPC) method:

  ASPC order: 3

  B(1) =   3.000000
  B(2) =  -3.428571
  B(3) =   1.928571
  B(4) =  -0.571429
  B(5) =   0.071429

 Extrapolation method: ASPC

 Number of electrons:                                                          8
 Number of occupied orbitals:                                                  4
 Number of molecular orbitals:                                                 6

 Number of orbital functions:                                                  6
 Number of independent orbital functions:                                      6


 SCF WAVEFUNCTION OPTIMIZATION

  Step     Update method      Time    Convergence         Total energy    Change
  ------------------------------------------------------------------------------
     1 GXTB-Raw    0.10E+01    0.0     0.00000119       -76.4398558966 -7.64E+01
     2 GXTB-Simple 0.20E+00    0.0     0.00000049       -76.4398558966 -5.40E-13
     3 GXTB-Simple 0.20E+00    0.0     0.00000041       -76.4398558966 -3.98E-13
     4 GXTB-FDIIS  0.10E+01    0.0     0.00000216       -76.4398558966 -1.01E-12
     5 GXTB-FDIIS  0.10E+01    0.0     0.00000009       -76.4398558966  0.00E+00
     6 GXTB-FDIIS  0.10E+01    0.0     1.5570E-09       -76.4398558966  0.00E+00
     7 GXTB-FDIIS  0.10E+01    0.0     3.5305E-13       -76.4398558966  0.00E+00

  *** SCF run converged in     7 steps ***


  Core Hamiltonian energy:                                     -6.22767267187448
  Repulsive potential energy:                                   0.31826523066577
  Electrostatic energy:                                         0.14284026707683
  Self-consistent dispersion energy:                           -0.00004474399072
  Non-self consistent dispersion energy:                        0.00000029898137
  Correction for halogen bonding:                               0.00000000000000

  Total energy:                                               -76.43985589661874


 MULLIKEN POPULATION ANALYSIS

  # Atom   Element   Kind        Atomic population                    Net charge
       1     H          1                 0.684739                      0.315261
       2     H          1                 0.684741                      0.315259
       3     O          2                 6.630520                     -0.630520
 # Total charge                           8.000000                     -0.000000


 tblite reference CLI check
 Executable: tblite
 Method:     gxtb
 Guess:      auto
 Solver:     gvd
 Spin-pol.:  F
 Grad file:  H2O_stress_L20_cli.grad
 JSON file:  H2O_stress_L20_cli.json
 Log file:   H2O_stress_L20_cli.log
 Energy CP2K/CLI/absdiff:   -7.643985589662E+01   -7.643985589684E+01    2.167013235521E-10
 Gradient diff sum/max:    1.751391031817E-07    3.638617843485E-08
 Virial diff sum/max:    5.061442621295E-02    2.201366703872E-02
 tblite reference CLI deviation exceeded ERROR_LIMIT =   1.0000E-05

 ENERGY| Total FORCE_EVAL ( QS ) energy [hartree]            -76.439855896618738

 -------------------------------------------------------------------------------
 ----                             MULTIGRID INFO                            ----
 -------------------------------------------------------------------------------
 total grid count     :           420              cutoff [a.u.]            1.00

 PW_GRID| Information for grid number                                         14
 PW_GRID| Cutoff [a.u.]                                                      1.0
 PW_GRID| spherical cutoff:                                                   NO
 PW_GRID|   Bounds   1             -9       8                Points:          18
[...]

  *** SCF run converged in     9 steps ***


  Core Hamiltonian energy:                                     -6.22767453250461
  Repulsive potential energy:                                   0.31826712506402
  Electrostatic energy:                                         0.14284022242129
  Self-consistent dispersion energy:                           -0.00004474378901
  Non-self consistent dispersion energy:                        0.00000029898062
  Correction for halogen bonding:                               0.00000000000000

  Total energy:                                               -76.43985595361606


 MULLIKEN POPULATION ANALYSIS

  # Atom   Element   Kind        Atomic population                    Net charge
       1     H          1                 0.684739                      0.315261
       2     H          1                 0.684741                      0.315259
       3     O          2                 6.630520                     -0.630520
 # Total charge                           8.000000                     -0.000000


 tblite reference CLI check
 Executable: tblite
 Method:     gxtb
 Guess:      auto
 Solver:     gvd
 Spin-pol.:  F
 Grad file:  H2O_stress_L20_cli.grad
 JSON file:  H2O_stress_L20_cli.json
 Log file:   H2O_stress_L20_cli.log
 Energy CP2K/CLI/absdiff:   -7.643985595362E+01   -7.643985595383E+01    2.166871126974E-10
 Gradient diff sum/max:    4.861156000697E-06    2.231831324645E-06
 Virial diff sum/max:    5.061029824239E-02    2.201337478018E-02
 tblite reference CLI deviation exceeded ERROR_LIMIT =   1.0000E-05

 ENERGY| Total FORCE_EVAL ( QS ) energy [hartree]            -76.439855953616060

 -------------------------------------------------------------------------------
 ----                             MULTIGRID INFO                            ----
 -------------------------------------------------------------------------------
 total grid count     :           420              cutoff [a.u.]            1.00

 PW_GRID| Information for grid number                                         20
 PW_GRID| Cutoff [a.u.]                                                      1.0
 PW_GRID| spherical cutoff:                                                   NO
 PW_GRID|   Bounds   1             -9       8                Points:          18
 PW_GRID|   Bounds   2             -9       8                Points:          18
 PW_GRID|   Bounds   3             -9       8                Points:          18
 PW_GRID| Volume element (a.u.^3)   9.257         Volume (a.u.^3)     53986.6767
 PW_GRID| Grid span                                                    FULLSPACE

 POISSON| Solver                                                        PERIODIC
 POISSON| Periodicity                                                        XYZ

 RS_GRID| Information for grid number                                         20
 RS_GRID|   Bounds   1             -9       8                Points:          18
 RS_GRID|   Bounds   2             -9       8                Points:          18
 RS_GRID|   Bounds   3             -9       8                Points:          18

 Parameters for the always stable predictor-corrector (ASPC) method:

  ASPC order: 3

  B(1) =   3.000000
  B(2) =  -3.428571
  B(3) =   1.928571
  B(4) =  -0.571429
  B(5) =   0.071429

 Extrapolation method: ASPC

 Number of electrons:                                                          8
 Number of occupied orbitals:                                                  4
 Number of molecular orbitals:                                                 6

 Number of orbital functions:                                                  6
 Number of independent orbital functions:                                      6


 SCF WAVEFUNCTION OPTIMIZATION

  Step     Update method      Time    Convergence         Total energy    Change
  ------------------------------------------------------------------------------
     1 GXTB-Raw    0.10E+01    0.0     0.00000121       -76.4398558966 -7.64E+01
     2 GXTB-Simple 0.20E+00    0.0     0.00000018       -76.4398558966 -1.28E-13
     3 GXTB-Simple 0.20E+00    0.0     0.00000015       -76.4398558966 -8.53E-14
     4 GXTB-FDIIS  0.10E+01    0.0     0.00000070       -76.4398558966 -1.56E-13
     5 GXTB-FDIIS  0.10E+01    0.0     0.00000002       -76.4398558966  0.00E+00
     6 GXTB-FDIIS  0.10E+01    0.0     0.00000002       -76.4398558966  0.00E+00
     7 GXTB-FDIIS  0.10E+01    0.0     5.6428E-10       -76.4398558966  0.00E+00
     8 GXTB-FDIIS  0.10E+01    0.0     8.9156E-11       -76.4398558966  0.00E+00

  *** SCF run converged in     8 steps ***


  Core Hamiltonian energy:                                     -6.22767267187690
  Repulsive potential energy:                                   0.31826523066828
  Electrostatic energy:                                         0.14284026707676
  Self-consistent dispersion energy:                           -0.00004474399072
  Non-self consistent dispersion energy:                        0.00000029898137
  Correction for halogen bonding:                               0.00000000000000

  Total energy:                                               -76.43985589661881


 MULLIKEN POPULATION ANALYSIS

  # Atom   Element   Kind        Atomic population                    Net charge
       1     H          1                 0.684739                      0.315261
       2     H          1                 0.684741                      0.315259
       3     O          2                 6.630520                     -0.630520
 # Total charge                           8.000000                      0.000000


 tblite reference CLI check
 Executable: tblite
 Method:     gxtb
 Guess:      auto
 Solver:     gvd
 Spin-pol.:  F
 Grad file:  H2O_stress_L20_cli.grad
 JSON file:  H2O_stress_L20_cli.json
 Log file:   H2O_stress_L20_cli.log
 Energy CP2K/CLI/absdiff:   -7.643985589662E+01   -7.643985589684E+01    2.167155344068E-10
 Gradient diff sum/max:    1.305332789472E-07    3.638633147215E-08
 Virial diff sum/max:    5.061430951040E-02    2.201366703834E-02
 tblite reference CLI deviation exceeded ERROR_LIMIT =   1.0000E-05

 ENERGY| Total FORCE_EVAL ( QS ) energy [hartree]            -76.439855896618809
 DEBUG| Numerical pv_virial [a.u.]
 DEBUG|                  -0.022013720469      0.000000001343      0.000533982705
 DEBUG|                   0.000000001343     -0.005988871076      0.000000001343
 DEBUG|                   0.000533982705      0.000000001343     -0.021543855863

 DEBUG| Analytical pv_virial [a.u.]
 DEBUG|                  -0.022013719298      0.000000000000      0.000533981460
 DEBUG|                   0.000000000000     -0.005988872066      0.000000000000
 DEBUG|                   0.000533981460      0.000000000000     -0.021543855385

 DEBUG| Difference pv_virial [a.u.]
 DEBUG|                  -0.000000001171      0.000000001343      0.000000001245
 DEBUG|                   0.000000001343      0.000000000990      0.000000001343
 DEBUG|                   0.000000001245      0.000000001343     -0.000000000478
 DEBUG| Sum of differences                                        0.000000010500

 DEBUG| Relative error pv_virial
 DEBUG| Threshold value for error check [a.u.]                    1.00000000E-05
 DEBUG|                           0.00 %                 - %              0.00 %
 DEBUG|                              - %             -0.00 %                 - %
 DEBUG|                           0.00 %                 - %              0.00 %
 DEBUG| Maximum accepted error                                            0.20 %

 -------------------------------------------------------------------------------
 -                                                                             -
 -                                DBCSR STATISTICS                             -
 -                                                                             -
 -------------------------------------------------------------------------------
 COUNTER                                    TOTAL       BLAS       SMM       ACC
 flops     1 x     6 x     1                 3168     100.0%      0.0%      0.0%     
 flops     1 x     1 x     6                 6084     100.0%      0.0%      0.0%     
 flops     4 x     6 x     1                 6336     100.0%      0.0%      0.0%     
 flops     1 x     6 x     4                 6336     100.0%      0.0%      0.0%     
 flops     4 x     1 x     6                 8112     100.0%      0.0%      0.0%     
 flops     1 x     4 x     6                 8112     100.0%      0.0%      0.0%     
 flops     4 x     6 x     4                12672     100.0%      0.0%      0.0%     
 flops     4 x     4 x     6                32448     100.0%      0.0%      0.0%     
 flops inhomo. stacks                           0       0.0%      0.0%      0.0%
 flops total                        83.268000E+03     100.0%      0.0%      0.0%
 flops max/rank                     83.268000E+03     100.0%      0.0%      0.0%
 matmuls inhomo. stacks                         0       0.0%      0.0%      0.0%
 matmuls total                               1608     100.0%      0.0%      0.0%
 number of processed stacks                   940     100.0%      0.0%      0.0%
 average stack size                                     1.7       0.0       0.0
 marketing flops                    77.184000E+03
 -------------------------------------------------------------------------------
 # multiplications                            235
 max memory usage/rank               9.876652E+09
 # max total images/rank                        1
 # max 3D layers                                1
 # MPI messages exchanged                       0
 -------------------------------------------------------------------------------
 -                                                                             -
 -                      DBCSR MESSAGE PASSING PERFORMANCE                      -
 -                                                                             -
 -------------------------------------------------------------------------------
 ROUTINE             CALLS      AVE VOLUME [Bytes]
 MP_Bcast                9                     12.
 MP_Allreduce         1078                      9.
 MP_Alltoall          6118                    293.
 MP_ISend              940                     77.
 MP_IRecv              940                     77.
 -------------------------------------------------------------------------------

 -------------------------------------------------------------------------------
 -                                                                             -
 -                          OFFLOAD MEMPOOL STATISTICS                         -
 -                                                                             -
 -------------------------------------------------------------------------------
 Memory consumption                Number of allocations  Used [MiB]  Size [MiB]
 Host                                                  1           0           0
 -------------------------------------------------------------------------------

 MEMORY| Estimated peak process memory [MiB]                                 117

 -------------------------------------------------------------------------------
 ----                             MULTIGRID INFO                            ----
 -------------------------------------------------------------------------------
 total grid count     :           420              cutoff [a.u.]            1.00

 -------------------------------------------------------------------------------
 -                                                                             -
 -                         MESSAGE PASSING PERFORMANCE                         -
 -                                                                             -
 -------------------------------------------------------------------------------

 ROUTINE             CALLS      AVE VOLUME [Bytes]
 MP_Group               20
 MP_Bcast              298                     26.
 MP_Allreduce         4846                     50.
 MP_Sync               169
 MP_comm_split         149
 -------------------------------------------------------------------------------


 -------------------------------------------------------------------------------
 -                                                                             -
 -                           R E F E R E N C E S                               -
 -                                                                             -
 -------------------------------------------------------------------------------
 
 CP2K version 2026.2 (Development Version), the CP2K developers group (2026).
 CP2K is freely available from https://www.cp2k.org/ .
 
 M. Iannuzzi, J. Wilhelm, F. Stein, A. Bussy, H. Elgabarty, D. Golze, A. Hehn, 
 M. Graml, S. Marek, B. Sertcan Gökmen, C. Schran, H. Forbert, R. Z. 
 Khaliullin, A. Kozhevnikov, M. Taillefumier, R. Meli, V. V. Rybkin, M. Brehm, 
 R. Schade, O. Schütt, J. V. Pototschnig, H. Mirhosseini, A. Knüpfer, D. Marx, 
 M. Krack, J. Hutter, T. D. Kühne.
 J. Phys. Chem. B 130, 1237-1310 (2026).
 The CP2K Program Package Made Simple.
 https://doi.org/10.1021/acs.jpcb.5c05851

 A. Katbashev, M. Stahn, T. Rose, V. Alizadeh, M. Friede, C. Plett, P. 
 Steinbach, S. Ehlert.
 J. Phys. Chem. A 129, 2667-2682 (2025).
 Overview on Building Blocks and Applications of Efficient and Robust Extended 
 Tight Binding.
 https://doi.org/10.1021/acs.jpca.4c08263

 T. D. Kühne, M. Iannuzzi, M. Del Ben, V. V. Rybkin, P. Seewald, F. Stein, T. 
 Laino, R. Z. Khaliullin, O. Schütt, F. Schiffmann, D. Golze, J. Wilhelm, S. 
 Chulkov, M. H. Bani-Hashemian, V. Weber, U. Borstnik, M. Taillefumier, A. S. 
 Jakobovits, A. Lazzaro, H. Pabst, T. Müller, R. Schade, M. Guidon, S. 
 Andermatt, N. Holmberg, G. K. Schenter, A. Hehn, A. Bussy, F. Belleflamme, G. 
 Tabacchi, A. Glöß, M. Lass, I. Bethune, C. J. Mundy, C. Plessl, M. Watkins, 
 J. VandeVondele, M. Krack, J. Hutter.
 J. Chem. Phys. 152, 194103 (2020).
 CP2K: An electronic structure and molecular dynamics software package - 
 Quickstep: Efficient and accurate electronic structure calculations.
 https://doi.org/10.1063/5.0007045

 P. Pracht, E. Caldeweyher, S. Ehlert, S. Grimme.
 ChemRxiv, (2019).
 A Robust Non-Self-Consistent Tight-Binding Quantum Chemistry Method for large 
 Molecules.
 https://doi.org/10.26434/chemrxiv.8326202.v1

 S. Grimme, C. Bannwarth, P. Shushkov.
 J. Chem. Theory Comput. 13, 1989 (2017).
 A Robust and Accurate Tight-Binding Quantum Chemical Method for Structures, 
 Vibrational Frequencies, and Noncovalent Interactions of Large Molecular 
 Systems Parametrized for All spd-Block Elements (Z = 1-86).
 https://doi.org/10.1021/acs.jctc.7b00118

 O. Schuett, P. Messmer, J. Hutter, J. VandeVondele.
 Electronic Structure Calculations on Graphics Processing Units, 173-190 (2016).
 GPU-Accelerated Sparse Matrix-Matrix Multiplication for Linear Scaling Density 
 Functional Theory.
 https://doi.org/10.1002/9781118670712.ch8

 U. Borstnik, J. VandeVondele, V. Weber, J. Hutter.
 Parallel Comput. 40, 47-58 (2014).
 Sparse matrix multiplication: The distributed block-compressed sparse row 
 library.
 https://doi.org/10.1016/j.parco.2014.03.012

 T. D. Kühne, M. Krack, F. R. Mohamed, M. Parrinello.
 Phys. Rev. Lett. 98, 066401 (2007).
 Efficient and accurate Car-Parrinello-like approach to Born-Oppenheimer 
 molecular dynamics.
 https://doi.org/10.1103/PhysRevLett.98.066401

 M. Frigo, S. G. Johnson.
 Proc. IEEE 93, 216-231 (2005).
 The design and implementation of FFTW3.
 https://doi.org/10.1109/JPROC.2004.840301

 J. Kolafa.
 J. Comput. Chem. 25, 335-342 (2004).
 Time-reversible always stable predictor-corrector method for molecular dynamics 
 of polarizable molecules.
 https://doi.org/10.1002/jcc.10385


 -------------------------------------------------------------------------------
 -                                                                             -
 -                                T I M I N G                                  -
 -                                                                             -
 -------------------------------------------------------------------------------
 SUBROUTINE                       CALLS  ASD         SELF TIME        TOTAL TIME
                                MAXIMUM       AVERAGE  MAXIMUM  AVERAGE  MAXIMUM
 CP2K                                 1  1.0    0.008    0.008    0.762    0.762
 qs_energies                         20  2.0    0.001    0.001    0.711    0.711
 tb_reference_cli_compare            20  3.0    0.368    0.368    0.368    0.368
 scf_env_do_scf                      20  3.0    0.000    0.000    0.213    0.213
 scf_env_do_scf_inner_loop          149  4.1    0.024    0.024    0.213    0.213
 qs_scf_new_mos                     149  5.1    0.003    0.003    0.151    0.151
 calculate_dm_sparse                168  6.1    0.001    0.001    0.106    0.106
 cp_dbcsr_plus_fm_fm_t              169  7.1    0.002    0.002    0.106    0.106
 dbcsr_multiply_generic             235  8.0    0.006    0.006    0.096    0.096
 init_scf_run                        20  3.0    0.000    0.000    0.061    0.061
 build_tblite_matrices               21  4.0    0.050    0.050    0.058    0.058
 qs_energies_init_hamiltonians       20  3.0    0.000    0.000    0.057    0.057
 scf_env_initial_rho_setup           20  4.0    0.000    0.000    0.057    0.057
 wfi_extrapolate                     20  5.0    0.001    0.001    0.056    0.056
 qs_forces                            1  2.0    0.000    0.000    0.055    0.055
 make_m2s                           470  9.0    0.003    0.003    0.051    0.051
 dbcsr_complete_redistribute        639  8.3    0.018    0.018    0.042    0.042
 copy_dbcsr_to_fm                   235  6.2    0.002    0.002    0.038    0.038
 cp_dbcsr_sm_fm_multiply             66  6.0    0.001    0.001    0.037    0.037
 rebuild_ks_matrix                  169  5.8    0.000    0.000    0.033    0.033
 build_tblite_ks_matrix             169  6.8    0.027    0.027    0.033    0.033
 qs_ks_update_qs_env                168  4.8    0.001    0.001    0.031    0.031
 copy_fm_to_dbcsr                   404  7.9    0.001    0.001    0.030    0.030
 eigensolver                        149  6.1    0.007    0.007    0.029    0.029
 qs_env_rebuild_pw_env               22  3.1    0.000    0.000    0.028    0.028
 pw_env_rebuild                      20  4.0    0.003    0.003    0.028    0.028
 make_images                        470 10.0    0.006    0.006    0.023    0.023
 multiply_cannon                    235  9.0    0.014    0.014    0.023    0.023
 cp_fm_syevd                        149  7.1    0.000    0.000    0.019    0.019
 cp_dbcsr_sm_fm_multiply_core        66  7.0    0.000    0.000    0.018    0.018
 dbcsr_finalize                    3503  8.8    0.005    0.005    0.018    0.018
 pw_grid_setup                       20  5.0    0.000    0.000    0.018    0.018
 pw_grid_setup_internal              20  6.0    0.001    0.001    0.018    0.018
 dbcsr_create_new                  5330  9.4    0.013    0.013    0.017    0.017
 -------------------------------------------------------------------------------

 The number of warnings for this run is : 1
 
 -------------------------------------------------------------------------------
  **** **** ******  **  PROGRAM ENDED AT                 2026-07-21 17:59:43.158
 ***** ** ***  *** **   PROGRAM RAN ON                                     terok
 **    ****   ******    PROGRAM RAN BY                                  kuehne88
 ***** **    ** ** **   PROGRAM PROCESS ID                               1575551
  **** **  *******  **  PROGRAM STOPPED IN /home/kuehne88/work/h2o-molecular-lim
                                           it-fix-20260721/stress/raw/H2O_stress
                                           _L20
