 DBCSR| CPU Multiplication driver                                           XSMM (U)
 DBCSR| Multrec recursion limit                                              512 (U)
 DBCSR| Multiplication stack size                                           1000 (D)
 DBCSR| Maximum elements for images                                    UNLIMITED (U)
 DBCSR| Multiplicative factor virtual images                                   1 (U)
 DBCSR| Use multiplication densification                                       T (D)
 DBCSR| Multiplication size stacks                                             3 (U)
 DBCSR| Use memory pool for CPU allocation                                     F (U)
 DBCSR| Number of 3D layers                                               SINGLE (U)
 DBCSR| Use MPI memory allocation                                              F (U)
 DBCSR| Use RMA algorithm                                                      F (U)
 DBCSR| Use Communication thread                                               T (U)
 DBCSR| Communication thread load                                             87 (D)
 DBCSR| MPI: My process id                                                     0
 DBCSR| MPI: Number of processes                                               1
 DBCSR| OMP: Current number of threads                                         1
 DBCSR| OMP: Max number of threads                                             1
 DBCSR| Split modifier for TAS multiplication algorithm                  1.0E+00 (U)


  **** **** ******  **  PROGRAM STARTED AT               2026-05-23 22:46:18.305
 ***** ** ***  *** **   PROGRAM STARTED ON                            spark-c86c
 **    ****   ******    PROGRAM STARTED BY                              kuehne88
 ***** **    ** ** **   PROGRAM PROCESS ID                               2222422
  **** **  *******  **  PROGRAM STARTED IN /home/kuehne88/periodic-gfn2-benchmar
                                           ks/X23b/runs/molecule_geoopt/GFN1/cya
                                           namide_GFN1_mol_geoopt

 CP2K| version string:                 CP2K version 2026.1 (Development Version)
 CP2K| source code revision number:                                   0622d442e4
 CP2K| cp2kflags: omp fftw3 libxc parallel scalapack mpi_f08 xsmm spglib libdftd
 CP2K|            4 dftd4_v3 mctc-lib tblite
 CP2K| is freely available from                            https://www.cp2k.org/
 CP2K| Program compiled at                                   2026-05-23 22:05:08
 CP2K| Program compiled on                                            spark-c86c
 CP2K| Program compiled for                                              aarch64
 CP2K| Data directory path    /home/kuehne88/cp2k-master-tblite-20260523/install
 CP2K| Input file name                             cyanamide_GFN1_mol_geoopt.inp

 GLOBAL| Force Environment number                                              1
 GLOBAL| Basis set file name                                           BASIS_SET
 GLOBAL| Potential file name                                           POTENTIAL
 GLOBAL| MM Potential file name                                     MM_POTENTIAL
 GLOBAL| Coordinate file name                                      __STD_INPUT__
 GLOBAL| Method name                                                        CP2K
 GLOBAL| Project name                                  cyanamide_GFN1_mol_geoopt
 GLOBAL| Run type                                                        GEO_OPT
 GLOBAL| FFT library                                                       FFTW3
 GLOBAL| Diagonalization library                                       ScaLAPACK
 GLOBAL| Cholesky decomposition library                                ScaLAPACK
 GLOBAL| DGEMM library                                                      BLAS
 GLOBAL| Direct generalized diagonalization requested                          F
 GLOBAL| Orthonormality check for eigenvectors                          DISABLED
 GLOBAL| Matrix multiplication library                                 ScaLAPACK
 GLOBAL| All-to-all communication in single precision                          F
 GLOBAL| FFTs using library dependent lengths                                  F
 GLOBAL| Grid backend                                                       AUTO
 GLOBAL| Global print level                                                  LOW
 GLOBAL| MPI I/O enabled                                                       T
 GLOBAL| Total number of message passing processes                             1
 GLOBAL| Number of distributed systems (nodes)                                 1
 GLOBAL| Number of threads for this process                                    1
 GLOBAL| This output is from process                                           0
 GLOBAL| OpenMP stack size per thread (OMP_STACKSIZE)                    default
 GLOBAL| CPU model name                                                  UNKNOWN
 GLOBAL| CPUID                                                              2200
 GLOBAL| Compiled for CPUID                                                 2000

 *** HINT in environment.F:970 :: The compiler target flags (arm_arch64)   ***
 *** used to build this binary cannot exploit all extensions of this CPU   ***
 *** model (arm_sve256). Consider compiler target flags as part of FCFLAGS ***
 *** and CFLAGS (ARCH file).                                               ***


 MEMORY| system memory details [Kb]
 MEMORY|                        rank 0           min           max       average
 MEMORY| MemTotal            125508532     125508532     125508532     125508532
 MEMORY| MemFree             105601992     105601992     105601992     105601992
 MEMORY| Buffers                865984        865984        865984        865984
 MEMORY| Cached               13214800      13214800      13214800      13214800
 MEMORY| Slab                  1565168       1565168       1565168       1565168
 MEMORY| SReclaimable           888300        888300        888300        888300
 MEMORY| MemLikelyFree       120571076     120571076     120571076     120571076


 GENERATE|  Preliminary Number of Bonds generated:                             0
 GENERATE|  Achieved consistency in connectivity generation.


                  #####   #####        #     #   #     #       #          
                 #     # #     #      #    ##### #     #   # #####  ####  
                 #     # #           #       #   ###   #       #   #    # 
                 #     #  #####     #        #   #  #  #   #   #   ###### 
                 #   # #       #   #         #   #   # #   #   #   #      
                 #    #  #     #  #          #   #  #  # # #   #    #   # 
                  #### #  #####  #           #   ###   ##  #   #     ###  

                                   GFN1-xTB  
                                 Version 0.0                       
                            Johann V. Pototschnig                  



 TOTAL NUMBERS AND MAXIMUM NUMBERS

  Total number of            - Atomic kinds:                                   3
                             - Atoms:                                          5
                             - Shell sets:                                    10
                             - Shells:                                        10
                             - Primitive Cartesian functions:                 58
                             - Cartesian basis functions:                     16
                             - Spherical basis functions:                     16

  Maximum angular momentum of the orbital basis functions:                     1


 SCF PARAMETERS         Density guess:                                     MOPAC
                        --------------------------------------------------------
                        max_scf:                                             300
                        max_scf_history:                                       0
                        max_diis:                                              4
                        --------------------------------------------------------
                        eps_scf:                                        1.00E-09
                        eps_scf_history:                                0.00E+00
                        eps_diis:                                       1.00E-01
                        eps_eigval:                                     1.00E-05
                        --------------------------------------------------------
                        level_shift [a.u.]:                             0.000000
                        added MOs                                         8    0
                        --------------------------------------------------------
                        Mixing method:                           DIRECT_P_MIXING
                        --------------------------------------------------------
                        Smear method:                                FERMI_DIRAC
                        Electronic temperature [K]:                        300.0
                        Electronic temperature [a.u.]:                  9.50E-04
                        Accuracy threshold:                             1.00E-06
                        --------------------------------------------------------
                        No outer SCF

 BFGS| Use rational function optimization for step estimation:                NO
 BFGS| Use model Hessian for initial guess:                                  YES
 BFGS| Restart Hessian:                                                       NO
 BFGS| Trust radius:                                                       0.472

 *******************************************************************************
 ***                     STARTING GEOMETRY OPTIMIZATION                      ***
 ***                                   BFGS                                  ***
 *******************************************************************************

 Extrapolation method: initial_guess

 Number of electrons:                                                         16
 Number of occupied orbitals:                                                  8
 Number of molecular orbitals:                                                16

 Number of orbital functions:                                                 16
 Number of independent orbital functions:                                     16


 SCF WAVEFUNCTION OPTIMIZATION

  Step     Update method      Time    Convergence         Total energy    Change
  ------------------------------------------------------------------------------
     1 TBLite/Diag 0.40E+00    0.0     1.48000116        -9.3463257337 -9.35E+00
     2 TBLite/Diag 0.40E+00    0.0     0.60342984        -9.4885847240 -1.42E-01
     3 TBLite/Diag 0.40E+00    0.0     0.29771624        -9.5379332089 -4.93E-02
     4 TBLite/Diag 0.40E+00    0.0     0.13718526        -9.5451203381 -7.19E-03
     5 TBLite/Diag 0.40E+00    0.0     0.06003024        -9.5472728983 -2.15E-03
     6 TBLite/Diag 0.40E+00    0.0     0.01711294        -9.5475433302 -2.70E-04
     7 TBLite/Diag 0.40E+00    0.0     0.00276913        -9.5475523137 -8.98E-06
     8 TBLite/Diag 0.40E+00    0.0     0.00001833        -9.5475523117  1.97E-09
     9 TBLite/Diag 0.40E+00    0.0     0.00005767        -9.5475523152 -3.56E-09
    10 TBLite/Diag 0.40E+00    0.0     0.00000358        -9.5475523153 -1.55E-11
    11 TBLite/Diag 0.40E+00    0.0     6.3956E-09        -9.5475523153 -7.11E-15
    12 TBLite/Diag 0.40E+00    0.0     3.1426E-09        -9.5475523153 -3.55E-15
    13 TBLite/Diag 0.40E+00    0.0     2.4131E-11        -9.5475523153  0.00E+00

  *** SCF run converged in    13 steps ***


  Core Hamiltonian energy:                                     -9.72280022017712
  Repulsive potential energy:                                   0.14441000407472
  Electrostatic energy:                                         0.03171123914706
  Self-consistent dispersion energy:                            0.00000000000000
  Non-self consistent dispersion energy:                       -0.00087333830301
  Correction for halogen bonding:                               0.00000000000000
  Electronic entropic energy:                                  -0.00000000000000
  Fermi energy:                                                -0.25498594004073

  Total energy:                                                -9.54755231525834
  Total energy (extrapolated to T->0):                         -9.54755231525834

 ENERGY| Total FORCE_EVAL ( QS ) energy [hartree]             -9.547552315258342

 OPT| **************************************************************************
 OPT| Step number                                                              0
 OPT| Optimization method                                                   BFGS
 OPT| Total energy [hartree]                                       -9.5475523153
 OPT| Used time [s]                                                        0.009
 OPT| **************************************************************************
 OPT| Estimated peak process memory [MiB]                                    166

 --------------------------
 OPTIMIZATION STEP:      1
 --------------------------

 Extrapolation method: ASPC

 Number of electrons:                                                         16
 Number of occupied orbitals:                                                  8
 Number of molecular orbitals:                                                16

 Number of orbital functions:                                                 16
 Number of independent orbital functions:                                     16


 SCF WAVEFUNCTION OPTIMIZATION

  Step     Update method      Time    Convergence         Total energy    Change
  ------------------------------------------------------------------------------
     1 TBLite/Diag 0.40E+00    0.0     0.04025290        -9.5483536324 -9.55E+00
     2 TBLite/Diag 0.40E+00    0.0     0.00568908        -9.5483665665 -1.29E-05
     3 TBLite/Diag 0.40E+00    0.0     0.00318082        -9.5483721258 -5.56E-06
     4 TBLite/Diag 0.40E+00    0.0     0.00094883        -9.5483730620 -9.36E-07
     5 TBLite/Diag 0.40E+00    0.0     0.00009080        -9.5483730789 -1.69E-08
     6 TBLite/Diag 0.40E+00    0.0     0.00001076        -9.5483730790 -1.19E-10
     7 TBLite/Diag 0.40E+00    0.0     0.00000014        -9.5483730790 -4.97E-14
     8 TBLite/Diag 0.40E+00    0.0     5.2120E-09        -9.5483730790  8.88E-15
     9 TBLite/Diag 0.40E+00    0.0     4.3892E-10        -9.5483730790  0.00E+00

  *** SCF run converged in     9 steps ***


  Core Hamiltonian energy:                                     -9.73677605001306
  Repulsive potential energy:                                   0.15758510426273
  Electrostatic energy:                                         0.03169274599343
  Self-consistent dispersion energy:                            0.00000000000000
  Non-self consistent dispersion energy:                       -0.00087487926955
  Correction for halogen bonding:                               0.00000000000000
  Electronic entropic energy:                                  -0.00000000000000
  Fermi energy:                                                -0.24727381632981

  Total energy:                                                -9.54837307902644
  Total energy (extrapolated to T->0):                         -9.54837307902644

 ENERGY| Total FORCE_EVAL ( QS ) energy [hartree]             -9.548373079026440

 OPT| **************************************************************************
 OPT| Step number                                                              1
 OPT| Optimization method                                                   BFGS
 OPT| Total energy [hartree]                                       -9.5483730790
 OPT| Effective energy change [hartree]                            -0.0008207638
 OPT| Predicted energy change [hartree]                            -0.0008056376
 OPT| Scaling factor                                                0.0000000000
 OPT| Step size                                                     0.0412501243
 OPT| Trust radius                                                  0.4724315332
 OPT| Decrease in energy                                                     YES
 OPT| Used time [s]                                                        0.006
 OPT|
 OPT| Maximum step size                                             0.0412501243
 OPT| Convergence limit for maximum step size                       0.0030000000
 OPT| Maximum step size is converged                                          NO
 OPT|
 OPT| RMS step size                                                 0.0152422550
 OPT| Convergence limit for RMS step size                           0.0015000000
 OPT| RMS step size is converged                                              NO
 OPT|
 OPT| Maximum gradient                                              0.0031015133
 OPT| Convergence limit for maximum gradient                        0.0004500000
 OPT| Maximum gradient is converged                                           NO
 OPT|
 OPT| RMS gradient                                                  0.0010326094
 OPT| Convergence limit for RMS gradient                            0.0003000000
 OPT| RMS gradient is converged                                               NO
 OPT| **************************************************************************
 OPT| Estimated peak process memory after this step [MiB]                    166

 --------------------------
 OPTIMIZATION STEP:      2
 --------------------------

 Extrapolation method: ASPC

 Number of electrons:                                                         16
 Number of occupied orbitals:                                                  8
 Number of molecular orbitals:                                                16

 Number of orbital functions:                                                 16
 Number of independent orbital functions:                                     16


 SCF WAVEFUNCTION OPTIMIZATION

  Step     Update method      Time    Convergence         Total energy    Change
  ------------------------------------------------------------------------------
     1 TBLite/Diag 0.40E+00    0.0     0.01460344        -9.5484034369 -9.55E+00
     2 TBLite/Diag 0.40E+00    0.0     0.00025788        -9.5484034628 -2.59E-08
     3 TBLite/Diag 0.40E+00    0.0     0.00016879        -9.5484034655 -2.66E-09
     4 TBLite/Diag 0.40E+00    0.0     0.00007723        -9.5484034729 -7.48E-09
     5 TBLite/Diag 0.40E+00    0.0     0.00000334        -9.5484034730 -1.65E-11
     6 TBLite/Diag 0.40E+00    0.0     0.00000063        -9.5484034730 -4.09E-13
     7 TBLite/Diag 0.40E+00    0.0     1.5698E-09        -9.5484034730 -5.33E-15
     8 TBLite/Diag 0.40E+00    0.0     9.2549E-10        -9.5484034730  3.55E-15

  *** SCF run converged in     8 steps ***


  Core Hamiltonian energy:                                     -9.73700345329068
  Repulsive potential energy:                                   0.15777450014465
  Electrostatic energy:                                         0.03170055413194
  Self-consistent dispersion energy:                            0.00000000000000
  Non-self consistent dispersion energy:                       -0.00087507394537
  Correction for halogen bonding:                               0.00000000000000
  Electronic entropic energy:                                  -0.00000000000000
  Fermi energy:                                                -0.24730286653335

  Total energy:                                                -9.54840347295946
  Total energy (extrapolated to T->0):                         -9.54840347295946

 ENERGY| Total FORCE_EVAL ( QS ) energy [hartree]             -9.548403472959455

 OPT| **************************************************************************
 OPT| Step number                                                              2
 OPT| Optimization method                                                   BFGS
 OPT| Total energy [hartree]                                       -9.5484034730
 OPT| Effective energy change [hartree]                            -0.0000303939
 OPT| Predicted energy change [hartree]                            -0.0000193113
 OPT| Scaling factor                                                0.0000000000
 OPT| Step size                                                     0.0089845653
 OPT| Trust radius                                                  0.4724315332
 OPT| Decrease in energy                                                     YES
 OPT| Used time [s]                                                        0.006
 OPT|
 OPT| Maximum step size                                             0.0089845653
 OPT| Convergence limit for maximum step size                       0.0030000000
 OPT| Maximum step size is converged                                          NO
 OPT|
 OPT| RMS step size                                                 0.0048077695
 OPT| Convergence limit for RMS step size                           0.0015000000
 OPT| RMS step size is converged                                              NO
 OPT|
 OPT| Maximum gradient                                              0.0009707559
 OPT| Convergence limit for maximum gradient                        0.0004500000
 OPT| Maximum gradient is converged                                           NO
 OPT|
 OPT| RMS gradient                                                  0.0004320923
 OPT| Convergence limit for RMS gradient                            0.0003000000
 OPT| RMS gradient is converged                                               NO
 OPT| **************************************************************************
 OPT| Estimated peak process memory after this step [MiB]                    166

 --------------------------
 OPTIMIZATION STEP:      3
 --------------------------

 Extrapolation method: ASPC

 Number of electrons:                                                         16
 Number of occupied orbitals:                                                  8
 Number of molecular orbitals:                                                16

 Number of orbital functions:                                                 16
 Number of independent orbital functions:                                     16


 SCF WAVEFUNCTION OPTIMIZATION

  Step     Update method      Time    Convergence         Total energy    Change
  ------------------------------------------------------------------------------
     1 TBLite/Diag 0.40E+00    0.0     0.02425175        -9.5484238530 -9.55E+00
     2 TBLite/Diag 0.40E+00    0.0     0.00052694        -9.5484239308 -7.78E-08
     3 TBLite/Diag 0.40E+00    0.0     0.00041296        -9.5484239260  4.83E-09
     4 TBLite/Diag 0.40E+00    0.0     0.00023084        -9.5484239846 -5.86E-08
     5 TBLite/Diag 0.40E+00    0.0     0.00001324        -9.5484239848 -2.27E-10
     6 TBLite/Diag 0.40E+00    0.0     0.00000036        -9.5484239848 -3.06E-13
     7 TBLite/Diag 0.40E+00    0.0     3.5753E-09        -9.5484239848  0.00E+00
     8 TBLite/Diag 0.40E+00    0.0     1.3984E-09        -9.5484239848 -1.78E-15
     9 TBLite/Diag 0.40E+00    0.0     5.5090E-11        -9.5484239848 -1.78E-15

  *** SCF run converged in     9 steps ***


  Core Hamiltonian energy:                                     -9.73678001773896
  Repulsive potential energy:                                   0.15754621471795
  Electrostatic energy:                                         0.03168518040738
  Self-consistent dispersion energy:                            0.00000000000000
  Non-self consistent dispersion energy:                       -0.00087536217005
  Correction for halogen bonding:                               0.00000000000000
  Electronic entropic energy:                                  -0.00000000000000
  Fermi energy:                                                -0.24745849643384

  Total energy:                                                -9.54842398478367
  Total energy (extrapolated to T->0):                         -9.54842398478367

 ENERGY| Total FORCE_EVAL ( QS ) energy [hartree]             -9.548423984783671

 OPT| **************************************************************************
 OPT| Step number                                                              3
 OPT| Optimization method                                                   BFGS
 OPT| Total energy [hartree]                                       -9.5484239848
 OPT| Effective energy change [hartree]                            -0.0000205118
 OPT| Predicted energy change [hartree]                            -0.0000188338
 OPT| Scaling factor                                                0.0000000000
 OPT| Step size                                                     0.0171189444
 OPT| Trust radius                                                  0.4724315332
 OPT| Decrease in energy                                                     YES
 OPT| Used time [s]                                                        0.007
 OPT|
 OPT| Maximum step size                                             0.0171189444
 OPT| Convergence limit for maximum step size                       0.0030000000
 OPT| Maximum step size is converged                                          NO
 OPT|
 OPT| RMS step size                                                 0.0081962879
 OPT| Convergence limit for RMS step size                           0.0015000000
 OPT| RMS step size is converged                                              NO
 OPT|
 OPT| Maximum gradient                                              0.0014736038
 OPT| Convergence limit for maximum gradient                        0.0004500000
 OPT| Maximum gradient is converged                                           NO
 OPT|
 OPT| RMS gradient                                                  0.0004691442
 OPT| Convergence limit for RMS gradient                            0.0003000000
 OPT| RMS gradient is converged                                               NO
 OPT| **************************************************************************
 OPT| Estimated peak process memory after this step [MiB]                    166

 --------------------------
 OPTIMIZATION STEP:      4
 --------------------------

 Extrapolation method: ASPC

 Number of electrons:                                                         16
 Number of occupied orbitals:                                                  8
 Number of molecular orbitals:                                                16

 Number of orbital functions:                                                 16
 Number of independent orbital functions:                                     16


 SCF WAVEFUNCTION OPTIMIZATION

  Step     Update method      Time    Convergence         Total energy    Change
  ------------------------------------------------------------------------------
     1 TBLite/Diag 0.40E+00    0.0     0.00364349        -9.5484253852 -9.55E+00
     2 TBLite/Diag 0.40E+00    0.0     0.00057501        -9.5484254832 -9.80E-08
     3 TBLite/Diag 0.40E+00    0.0     0.00019738        -9.5484255384 -5.52E-08
     4 TBLite/Diag 0.40E+00    0.0     0.00001984        -9.5484255388 -4.12E-10
     5 TBLite/Diag 0.40E+00    0.0     0.00000528        -9.5484255389 -6.04E-11
     6 TBLite/Diag 0.40E+00    0.0     0.00000250        -9.5484255389 -7.35E-12
     7 TBLite/Diag 0.40E+00    0.0     2.3115E-09        -9.5484255389  1.78E-15
     8 TBLite/Diag 0.40E+00    0.0     1.6278E-09        -9.5484255389 -3.55E-15
     9 TBLite/Diag 0.40E+00    0.0     1.6570E-10        -9.5484255389 -1.78E-15

  *** SCF run converged in     9 steps ***


  Core Hamiltonian energy:                                     -9.73667967017793
  Repulsive potential energy:                                   0.15746540338792
  Electrostatic energy:                                         0.03166411410669
  Self-consistent dispersion energy:                            0.00000000000000
  Non-self consistent dispersion energy:                       -0.00087538618606
  Correction for halogen bonding:                               0.00000000000000
  Electronic entropic energy:                                  -0.00000000000000
  Fermi energy:                                                -0.24746619516304

  Total energy:                                                -9.54842553886938
  Total energy (extrapolated to T->0):                         -9.54842553886938

 ENERGY| Total FORCE_EVAL ( QS ) energy [hartree]             -9.548425538869379

 OPT| **************************************************************************
 OPT| Step number                                                              4
 OPT| Optimization method                                                   BFGS
 OPT| Total energy [hartree]                                       -9.5484255389
 OPT| Effective energy change [hartree]                            -0.0000015541
 OPT| Predicted energy change [hartree]                            -0.0000011124
 OPT| Scaling factor                                                0.0000000000
 OPT| Step size                                                     0.0030762927
 OPT| Trust radius                                                  0.4724315332
 OPT| Decrease in energy                                                     YES
 OPT| Used time [s]                                                        0.007
 OPT|
 OPT| Maximum step size                                             0.0030762927
 OPT| Convergence limit for maximum step size                       0.0030000000
 OPT| Maximum step size is converged                                          NO
 OPT|
 OPT| RMS step size                                                 0.0012639834
 OPT| Convergence limit for RMS step size                           0.0015000000
 OPT| RMS step size is converged                                             YES
 OPT|
 OPT| Maximum gradient                                              0.0007295189
 OPT| Convergence limit for maximum gradient                        0.0004500000
 OPT| Maximum gradient is converged                                           NO
 OPT|
 OPT| RMS gradient                                                  0.0002344957
 OPT| Convergence limit for RMS gradient                            0.0003000000
 OPT| RMS gradient is converged                                              YES
 OPT| **************************************************************************
 OPT| Estimated peak process memory after this step [MiB]                    166

 --------------------------
 OPTIMIZATION STEP:      5
 --------------------------

 Extrapolation method: ASPC

 Number of electrons:                                                         16
 Number of occupied orbitals:                                                  8
 Number of molecular orbitals:                                                16

 Number of orbital functions:                                                 16
 Number of independent orbital functions:                                     16


 SCF WAVEFUNCTION OPTIMIZATION

  Step     Update method      Time    Convergence         Total energy    Change
  ------------------------------------------------------------------------------
     1 TBLite/Diag 0.40E+00    0.0     0.00172553        -9.5484258386 -9.55E+00
     2 TBLite/Diag 0.40E+00    0.0     0.00052841        -9.5484259182 -7.96E-08
     3 TBLite/Diag 0.40E+00    0.0     0.00018018        -9.5484259657 -4.75E-08
     4 TBLite/Diag 0.40E+00    0.0     0.00001158        -9.5484259660 -3.76E-10
     5 TBLite/Diag 0.40E+00    0.0     0.00000465        -9.5484259661 -3.41E-11
     6 TBLite/Diag 0.40E+00    0.0     0.00000164        -9.5484259661 -3.21E-12
     7 TBLite/Diag 0.40E+00    0.0     2.9131E-09        -9.5484259661  8.88E-15
     8 TBLite/Diag 0.40E+00    0.0     1.7165E-09        -9.5484259661 -1.07E-14
     9 TBLite/Diag 0.40E+00    0.0     1.4116E-10        -9.5484259661  5.33E-15

  *** SCF run converged in     9 steps ***


  Core Hamiltonian energy:                                     -9.73655431963378
  Repulsive potential energy:                                   0.15735846777263
  Electrostatic energy:                                         0.03164526556403
  Self-consistent dispersion energy:                            0.00000000000000
  Non-self consistent dispersion energy:                       -0.00087537976926
  Correction for halogen bonding:                               0.00000000000000
  Electronic entropic energy:                                  -0.00000000000000
  Fermi energy:                                                -0.24749874061020

  Total energy:                                                -9.54842596606639
  Total energy (extrapolated to T->0):                         -9.54842596606639

 ENERGY| Total FORCE_EVAL ( QS ) energy [hartree]             -9.548425966066386

 OPT| **************************************************************************
 OPT| Step number                                                              5
 OPT| Optimization method                                                   BFGS
 OPT| Total energy [hartree]                                       -9.5484259661
 OPT| Effective energy change [hartree]                            -0.0000004272
 OPT| Predicted energy change [hartree]                            -0.0000004149
 OPT| Scaling factor                                                0.0000000000
 OPT| Step size                                                     0.0012969106
 OPT| Trust radius                                                  0.4724315332
 OPT| Decrease in energy                                                     YES
 OPT| Used time [s]                                                        0.007
 OPT|
 OPT| Maximum step size                                             0.0012969106
 OPT| Convergence limit for maximum step size                       0.0030000000
 OPT| Maximum step size is converged                                         YES
 OPT|
 OPT| RMS step size                                                 0.0005167673
 OPT| Convergence limit for RMS step size                           0.0015000000
 OPT| RMS step size is converged                                             YES
 OPT|
 OPT| Maximum gradient                                              0.0000514909
 OPT| Convergence limit for maximum gradient                        0.0004500000
 OPT| Maximum gradient is converged                                          YES
 OPT|
 OPT| RMS gradient                                                  0.0000183538
 OPT| Convergence limit for RMS gradient                            0.0003000000
 OPT| RMS gradient is converged                                              YES
 OPT| **************************************************************************
 OPT| Estimated peak process memory after this step [MiB]                    166

 *******************************************************************************
 ***                    GEOMETRY OPTIMIZATION COMPLETED                      ***
 *******************************************************************************

 write_final_structure: Optimization converged, writing XYZ file gladly:
  cyanamide_GFN1_mol_geoopt-FINAL-1_5.xyz

 write_final_structure: Optimization converged, writing CIF file gladly:
  cyanamide_GFN1_mol_geoopt-FINAL-1_5.cif

 write_final_structure: Done!

                    Reevaluating energy at the minimum

 Extrapolation method: ASPC

 Number of electrons:                                                         16
 Number of occupied orbitals:                                                  8
 Number of molecular orbitals:                                                16

 Number of orbital functions:                                                 16
 Number of independent orbital functions:                                     16


 SCF WAVEFUNCTION OPTIMIZATION

  Step     Update method      Time    Convergence         Total energy    Change
  ------------------------------------------------------------------------------
     1 TBLite/Diag 0.40E+00    0.0     4.2477E-13        -9.5484259661 -9.55E+00

  *** SCF run converged in     1 steps ***


  Core Hamiltonian energy:                                     -9.73655431963368
  Repulsive potential energy:                                   0.15735846777263
  Electrostatic energy:                                         0.03164526556393
  Self-consistent dispersion energy:                            0.00000000000000
  Non-self consistent dispersion energy:                       -0.00087537976926
  Correction for halogen bonding:                               0.00000000000000
  Electronic entropic energy:                                  -0.00000000000000
  Fermi energy:                                                -0.24749874061021

  Total energy:                                                -9.54842596606638
  Total energy (extrapolated to T->0):                         -9.54842596606638

 ENERGY| Total FORCE_EVAL ( QS ) energy [hartree]             -9.548425966066381

 -------------------------------------------------------------------------------
 -                                                                             -
 -                                DBCSR STATISTICS                             -
 -                                                                             -
 -------------------------------------------------------------------------------
 COUNTER                                    TOTAL       BLAS       SMM       ACC
 flops     2 x    16 x     2                10240       0.0%    100.0%      0.0%     
 flops     2 x     2 x    16                26880       0.0%    100.0%      0.0%     
 flops     2 x    16 x     4                30720       0.0%    100.0%      0.0%     
 flops     4 x    16 x     2                30720       0.0%    100.0%      0.0%     
 flops     2 x     4 x    16                53760       0.0%    100.0%      0.0%     
 flops     4 x     2 x    16                53760       0.0%    100.0%      0.0%     
 flops     4 x    16 x     4                92160       0.0%    100.0%      0.0%     
 flops     4 x     4 x    16               215040       0.0%    100.0%      0.0%     
 flops inhomo. stacks                           0       0.0%      0.0%      0.0%
 flops total                       513.280000E+03       0.0%    100.0%      0.0%
 flops max/rank                    513.280000E+03       0.0%    100.0%      0.0%
 matmuls inhomo. stacks                         0       0.0%      0.0%      0.0%
 matmuls total                               1550       0.0%    100.0%      0.0%
 number of processed stacks                   360       0.0%    100.0%      0.0%
 average stack size                                     0.0       4.3       0.0
 marketing flops                   450.560000E+03
 -------------------------------------------------------------------------------
 # multiplications                             90
 max memory usage/rank              13.671076E+09
 # max total images/rank                        1
 # max 3D layers                                1
 # MPI messages exchanged                       0
 -------------------------------------------------------------------------------
 -                                                                             -
 -                      DBCSR MESSAGE PASSING PERFORMANCE                      -
 -                                                                             -
 -------------------------------------------------------------------------------
 ROUTINE             CALLS      AVE VOLUME [Bytes]
 MP_Bcast                9                     12.
 MP_Allreduce          445                      9.
 MP_Alltoall          2932                   1380.
 MP_ISend              360                    144.
 MP_IRecv              360                    144.
 -------------------------------------------------------------------------------

 -------------------------------------------------------------------------------
 -                                                                             -
 -                          OFFLOAD MEMPOOL STATISTICS                         -
 -                                                                             -
 -------------------------------------------------------------------------------
 Memory consumption                Number of allocations  Used [MiB]  Size [MiB]
 Device                                                1           0           0
 Host                                                  1           0           0
 -------------------------------------------------------------------------------

 MEMORY| Estimated peak process memory [MiB]                                 166

 -------------------------------------------------------------------------------
 -                                                                             -
 -                         MESSAGE PASSING PERFORMANCE                         -
 -                                                                             -
 -------------------------------------------------------------------------------

 ROUTINE             CALLS      AVE VOLUME [Bytes]
 MP_Group                1
 MP_Bcast              133                     69.
 MP_Allreduce         1089                     39.
 MP_Sync                71
 MP_comm_split          70
 -------------------------------------------------------------------------------


 -------------------------------------------------------------------------------
 -                                                                             -
 -                           R E F E R E N C E S                               -
 -                                                                             -
 -------------------------------------------------------------------------------
 
 CP2K version 2026.1 (Development Version), the CP2K developers group (2026).
 CP2K is freely available from https://www.cp2k.org/ .
 
 M. Iannuzzi, J. Wilhelm, F. Stein, A. Bussy, H. Elgabarty, D. Golze, A. Hehn, 
 M. Graml, S. Marek, B. Sertcan Gökmen, C. Schran, H. Forbert, R. Z. 
 Khaliullin, A. Kozhevnikov, M. Taillefumier, R. Meli, V. V. Rybkin, M. Brehm, 
 R. Schade, O. Schütt, J. V. Pototschnig, H. Mirhosseini, A. Knüpfer, D. Marx, 
 M. Krack, J. Hutter, T. D. Kühne.
 J. Phys. Chem. B 130, 1237-1310 (2026).
 The CP2K Program Package Made Simple.
 https://doi.org/10.1021/acs.jpcb.5c05851

 A. Katbashev, M. Stahn, T. Rose, V. Alizadeh, M. Friede, C. Plett, P. 
 Steinbach, S. Ehlert.
 J. Phys. Chem. A 129, 2667-2682 (2025).
 Overview on Building Blocks and Applications of Efficient and Robust Extended 
 Tight Binding.
 https://doi.org/10.1021/acs.jpca.4c08263

 T. D. Kühne, M. Iannuzzi, M. Del Ben, V. V. Rybkin, P. Seewald, F. Stein, T. 
 Laino, R. Z. Khaliullin, O. Schütt, F. Schiffmann, D. Golze, J. Wilhelm, S. 
 Chulkov, M. H. Bani-Hashemian, V. Weber, U. Borstnik, M. Taillefumier, A. S. 
 Jakobovits, A. Lazzaro, H. Pabst, T. Müller, R. Schade, M. Guidon, S. 
 Andermatt, N. Holmberg, G. K. Schenter, A. Hehn, A. Bussy, F. Belleflamme, G. 
 Tabacchi, A. Glöß, M. Lass, I. Bethune, C. J. Mundy, C. Plessl, M. Watkins, 
 J. VandeVondele, M. Krack, J. Hutter.
 J. Chem. Phys. 152, 194103 (2020).
 CP2K: An electronic structure and molecular dynamics software package - 
 Quickstep: Efficient and accurate electronic structure calculations.
 https://doi.org/10.1063/5.0007045

 P. Pracht, E. Caldeweyher, S. Ehlert, S. Grimme.
 ChemRxiv, (2019).
 A Robust Non-Self-Consistent Tight-Binding Quantum Chemistry Method for large 
 Molecules.
 https://doi.org/10.26434/chemrxiv.8326202.v1

 S. Grimme, C. Bannwarth, P. Shushkov.
 J. Chem. Theory Comput. 13, 1989 (2017).
 A Robust and Accurate Tight-Binding Quantum Chemical Method for Structures, 
 Vibrational Frequencies, and Noncovalent Interactions of Large Molecular 
 Systems Parametrized for All spd-Block Elements (Z = 1-86).
 https://doi.org/10.1021/acs.jctc.7b00118

 O. Schuett, P. Messmer, J. Hutter, J. VandeVondele.
 Electronic Structure Calculations on Graphics Processing Units, 173-190 (2016).
 GPU-Accelerated Sparse Matrix-Matrix Multiplication for Linear Scaling Density 
 Functional Theory.
 https://doi.org/10.1002/9781118670712.ch8

 A. Heinecke, G. Henry, M. Hutchinson, H. Pabst.
 Proceedings of Intl. Supercomputing Conference, 981-991 (2016).
 LIBXSMM: Accelerating Small Matrix Multiplications by Runtime Code Generation.
 https://doi.org/10.1109/SC.2016.83

 U. Borstnik, J. VandeVondele, V. Weber, J. Hutter.
 Parallel Comput. 40, 47-58 (2014).
 Sparse matrix multiplication: The distributed block-compressed sparse row 
 library.
 https://doi.org/10.1016/j.parco.2014.03.012

 T. D. Kühne, M. Krack, F. R. Mohamed, M. Parrinello.
 Phys. Rev. Lett. 98, 066401 (2007).
 Efficient and accurate Car-Parrinello-like approach to Born-Oppenheimer 
 molecular dynamics.
 https://doi.org/10.1103/PhysRevLett.98.066401

 M. Frigo, S. G. Johnson.
 Proc. IEEE 93, 216-231 (2005).
 The design and implementation of FFTW3.
 https://doi.org/10.1109/JPROC.2004.840301

 J. Kolafa.
 J. Comput. Chem. 25, 335-342 (2004).
 Time-reversible always stable predictor-corrector method for molecular dynamics 
 of polarizable molecules.
 https://doi.org/10.1002/jcc.10385

 N. D. Mermin.
 Phys. Rev. 137, A1441-A1443 (1965).
 Thermal Properties of the Inhomogeneous Electron Gas.
 https://doi.org/10.1103/PhysRev.137.A1441


 -------------------------------------------------------------------------------
 -                                                                             -
 -                                T I M I N G                                  -
 -                                                                             -
 -------------------------------------------------------------------------------
 SUBROUTINE                       CALLS  ASD         SELF TIME        TOTAL TIME
                                MAXIMUM       AVERAGE  MAXIMUM  AVERAGE  MAXIMUM
 CP2K                                 1  1.0    0.002    0.002    0.052    0.052
 cp_geo_opt                           1  2.0    0.000    0.000    0.045    0.045
 geoopt_bfgs                          1  3.0    0.000    0.000    0.045    0.045
 cp_eval_at                           7  4.0    0.000    0.000    0.042    0.042
 qs_forces                            6  5.0    0.000    0.000    0.040    0.040
 qs_energies                          7  5.9    0.000    0.000    0.039    0.039
 scf_env_do_scf                       7  6.9    0.000    0.000    0.029    0.029
 scf_env_do_scf_inner_loop           58  8.0    0.001    0.001    0.028    0.028
 qs_scf_new_mos                      58  9.0    0.000    0.000    0.025    0.025
 cp_dbcsr_plus_fm_fm_t               70 10.8    0.000    0.000    0.016    0.016
 calculate_dm_sparse                 64 10.0    0.000    0.000    0.015    0.015
 dbcsr_multiply_generic              90 11.9    0.001    0.001    0.014    0.014
 make_m2s                           180 12.9    0.000    0.000    0.008    0.008
 copy_dbcsr_to_fm                   136 10.5    0.000    0.000    0.007    0.007
 init_scf_run                         7  6.9    0.000    0.000    0.007    0.007
 dbcsr_complete_redistribute        296 12.2    0.003    0.003    0.007    0.007
 scf_env_initial_rho_setup            7  7.9    0.000    0.000    0.006    0.006
 wfi_extrapolate                      7  8.9    0.000    0.000    0.006    0.006
 qs_diis_b_step                      51 10.0    0.000    0.000    0.004    0.004
 copy_fm_to_dbcsr                   160 11.7    0.000    0.000    0.004    0.004
 cp_fm_syevd                         70 10.5    0.000    0.000    0.004    0.004
 qs_init_subsys                       1  2.0    0.001    0.001    0.004    0.004
 cp_dbcsr_sm_fm_multiply             20 10.3    0.000    0.000    0.004    0.004
 eigensolver                         58 10.0    0.000    0.000    0.004    0.004
 make_images                        180 13.9    0.001    0.001    0.004    0.004
 dbcsr_finalize                    1116 13.2    0.001    0.001    0.003    0.003
 multiply_cannon                     90 12.9    0.001    0.001    0.003    0.003
 dbcsr_create_new                  2119 13.3    0.002    0.002    0.002    0.002
 rebuild_ks_matrix                   64  9.7    0.000    0.000    0.002    0.002
 build_tblite_matrices               13  7.0    0.002    0.002    0.002    0.002
 build_tblite_ks_matrix              64 10.7    0.002    0.002    0.002    0.002
 dbcsr_crop_matrix                  140 13.8    0.000    0.000    0.002    0.002
 cp_dbcsr_sm_fm_multiply_core        20 11.3    0.000    0.000    0.002    0.002
 dbcsr_desymmetrize_deep            136 11.5    0.001    0.001    0.002    0.002
 cp_fm_syevd_base                    70 11.5    0.002    0.002    0.002    0.002
 reorthogonalize_vectors              6  9.8    0.000    0.000    0.002    0.002
 make_basis_lowdin                    6 10.8    0.000    0.000    0.002    0.002
 qs_env_setup                         1  3.0    0.000    0.000    0.002    0.002
 dbcsr_copy_submatrix               140 14.8    0.000    0.000    0.002    0.002
 qs_energies_init_hamiltonians        7  6.9    0.000    0.000    0.002    0.002
 qs_env_rebuild_pw_env               14  6.3    0.000    0.000    0.002    0.002
 pw_env_rebuild                       1  5.0    0.000    0.000    0.002    0.002
 compute_matrix_w                     7  6.9    0.000    0.000    0.001    0.001
 dbcsr_merge_all                    506 14.8    0.001    0.001    0.001    0.001
 qs_ks_update_qs_env_forces           6  6.0    0.000    0.000    0.001    0.001
 calculate_w_matrix_1                 6  8.0    0.000    0.000    0.001    0.001
 cp_fm_redistribute_start            70 11.5    0.001    0.001    0.001    0.001
 make_images_data                   180 14.9    0.001    0.001    0.001    0.001
 write_restart                        6  4.0    0.001    0.001    0.001    0.001
 parallel_gemm_fm_gemm              148 10.5    0.000    0.000    0.001    0.001
 cp_fm_gemm                         148 11.5    0.001    0.001    0.001    0.001
 dbcsr_destroy                     1997 12.8    0.001    0.001    0.001    0.001
 dbcsr_make_images_dense            140 13.8    0.000    0.000    0.001    0.001
 qs_ks_update_qs_env                 58  9.0    0.000    0.000    0.001    0.001
 dbcsr_iterator_start              2545 13.7    0.001    0.001    0.001    0.001
 pw_grid_setup                        1  6.0    0.000    0.000    0.001    0.001
 -------------------------------------------------------------------------------

 The number of warnings for this run is : 0
 
 -------------------------------------------------------------------------------
  **** **** ******  **  PROGRAM ENDED AT                 2026-05-23 22:46:19.687
 ***** ** ***  *** **   PROGRAM RAN ON                                spark-c86c
 **    ****   ******    PROGRAM RAN BY                                  kuehne88
 ***** **    ** ** **   PROGRAM PROCESS ID                               2222422
  **** **  *******  **  PROGRAM STOPPED IN /home/kuehne88/periodic-gfn2-benchmar
                                           ks/X23b/runs/molecule_geoopt/GFN1/cya
                                           namide_GFN1_mol_geoopt
