 DBCSR| CPU Multiplication driver                                           BLAS (U)
 DBCSR| Multrec recursion limit                                              512 (U)
 DBCSR| Multiplication stack size                                           1000 (D)
 DBCSR| Maximum elements for images                                    UNLIMITED (U)
 DBCSR| Multiplicative factor virtual images                                   1 (U)
 DBCSR| Use multiplication densification                                       T (D)
 DBCSR| Multiplication size stacks                                             3 (U)
 DBCSR| Use memory pool for CPU allocation                                     F (U)
 DBCSR| Number of 3D layers                                               SINGLE (U)
 DBCSR| Use MPI memory allocation                                              F (U)
 DBCSR| Use RMA algorithm                                                      F (U)
 DBCSR| Use Communication thread                                               T (U)
 DBCSR| Communication thread load                                             87 (D)
 DBCSR| MPI: My process id                                                     0
 DBCSR| MPI: Number of processes                                               1
 DBCSR| OMP: Current number of threads                                         1
 DBCSR| OMP: Max number of threads                                             1
 DBCSR| Split modifier for TAS multiplication algorithm                  1.0E+00 (U)


  **** **** ******  **  PROGRAM STARTED AT               2026-07-19 11:54:07.101
 ***** ** ***  *** **   PROGRAM STARTED ON                                 terok
 **    ****   ******    PROGRAM STARTED BY                              kuehne88
 ***** **    ** ** **   PROGRAM PROCESS ID                               3052153
  **** **  *******  **  PROGRAM STARTED IN /home/kuehne88/work/gxtb-final-deriva
                                           tive-ablation-20260719

 CP2K| version string:                 CP2K version 2026.2 (Development Version)
 CP2K| source code revision number:                                    8520b2e59
 CP2K| cp2kflags: omp parallel scalapack spglib s_dftd3 mctc-lib tblite tblite_g
 CP2K|            xtb
 CP2K| is freely available from                            https://www.cp2k.org/
 CP2K| Program compiled at                                   2026-07-18 23:48:15
 CP2K| Program compiled on                                                 terok
 CP2K| Program compiled for                                               x86_64
 CP2K| Data directory path                            /usr/local/share/cp2k/data
 CP2K| Input file name        /home/kuehne88/work/gxtb-final-derivative-ablation

 GLOBAL| Force Environment number                                              1
 GLOBAL| Basis set file name                                           BASIS_SET
 GLOBAL| Potential file name                                           POTENTIAL
 GLOBAL| MM Potential file name                                     MM_POTENTIAL
 GLOBAL| Coordinate file name                                      __STD_INPUT__
 GLOBAL| Method name                                                        CP2K
 GLOBAL| Project name                        ice_XVII_GXTB_k222_no_exchange_full
 GLOBAL| Run type                                                   ENERGY_FORCE
 GLOBAL| FFT library                                                       FFTW3
 GLOBAL| Diagonalization library                                       ScaLAPACK
 GLOBAL| Cholesky decomposition library                                ScaLAPACK
 GLOBAL| DGEMM library                                                      BLAS
 GLOBAL| Direct generalized diagonalization requested                          F
 GLOBAL| Orthonormality check for eigenvectors                          DISABLED
 GLOBAL| Matrix multiplication library                                 ScaLAPACK
 GLOBAL| All-to-all communication in single precision                          F
 GLOBAL| FFTs using library dependent lengths                                  F
 GLOBAL| Grid backend                                                       AUTO
 GLOBAL| Global print level                                               MEDIUM
 GLOBAL| MPI I/O enabled                                                       T
 GLOBAL| Total number of message passing processes                             1
 GLOBAL| Number of distributed systems (nodes)                                 1
 GLOBAL| Number of threads for this process                                    1
 GLOBAL| This output is from process                                           0
 GLOBAL| OpenMP stack size per thread (OMP_STACKSIZE)                    default
 GLOBAL| CPU model name                                       AMD EPYC Processor
 GLOBAL| CPUID                                                              1002

 MEMORY| system memory details [Kb]
 MEMORY|                        rank 0           min           max       average
 MEMORY| MemTotal            528104804     528104804     528104804     528104804
 MEMORY| MemFree             129004672     129004672     129004672     129004672
 MEMORY| Buffers                    20            20            20            20
 MEMORY| Cached              124252400     124252400     124252400     124252400
 MEMORY| Slab                  3300324       3300324       3300324       3300324
 MEMORY| SReclaimable          1697608       1697608       1697608       1697608
 MEMORY| MemLikelyFree       254954700     254954700     254954700     254954700


 *** WARNING in environment.F:1098 :: FFT library FFTW3 is not available. ***
 *** Trying FFT library FFTSG.                                            ***


 *** Fundamental physical constants (SI units) ***

 *** Literature: B. J. Mohr and B. N. Taylor,
 ***             CODATA recommended values of the fundamental physical
 ***             constants: 2006, Web Version 5.1
 ***             http://physics.nist.gov/constants

 Speed of light in vacuum [m/s]                             2.99792458000000E+08
 Magnetic constant or permeability of vacuum [N/A**2]       1.25663706143592E-06
 Electric constant or permittivity of vacuum [F/m]          8.85418781762039E-12
 Planck constant (h) [J*s]                                  6.62606896000000E-34
 Planck constant (h-bar) [J*s]                              1.05457162825177E-34
 Elementary charge [C]                                      1.60217648700000E-19
 Electron mass [kg]                                         9.10938215000000E-31
 Electron g factor [ ]                                     -2.00231930436220E+00
 Proton mass [kg]                                           1.67262163700000E-27
 Fine-structure constant                                    7.29735253760000E-03
 Rydberg constant [1/m]                                     1.09737315685270E+07
 Avogadro constant [1/mol]                                  6.02214179000000E+23
 Boltzmann constant [J/K]                                   1.38065040000000E-23
 Atomic mass unit [kg]                                      1.66053878200000E-27
 Bohr radius [m]                                            5.29177208590000E-11

 *** Conversion factors ***

 [u] -> [a.u.]                                              1.82288848426455E+03
 [Angstrom] -> [Bohr] = [a.u.]                              1.88972613288564E+00
 [a.u.] = [Bohr] -> [Angstrom]                              5.29177208590000E-01
 [a.u.] -> [s]                                              2.41888432650478E-17
 [a.u.] -> [fs]                                             2.41888432650478E-02
 [a.u.] -> [J]                                              4.35974393937059E-18
 [a.u.] -> [N]                                              8.23872205491840E-08
 [a.u.] -> [K]                                              3.15774647902944E+05
 [a.u.] -> [kJ/mol]                                         2.62549961709828E+03
 [a.u.] -> [kcal/mol]                                       6.27509468713739E+02
 [a.u.] -> [Pa]                                             2.94210107994716E+13
 [a.u.] -> [bar]                                            2.94210107994716E+08
 [a.u.] -> [atm]                                            2.90362800883016E+08
 [a.u.] -> [eV]                                             2.72113838565563E+01
 [a.u.] -> [Hz]                                             6.57968392072181E+15
 [a.u.] -> [1/cm] (wave numbers)                            2.19474631370540E+05
 [a.u./Bohr**2] -> [1/cm]                                   5.14048714338585E+03
 

 *** WARNING in cell_methods.F:538 :: Cell vectors are read but cell   ***
 *** matrix is not a lower triangle, not conforming to the program     ***
 *** convention that A lies along the X-axis and B is in the XY plane. ***


 CELL| Volume [angstrom^3]:                                           198.815694
 CELL| Vector a [angstrom]:       3.117     5.376    -0.020   |a| =     6.214324
 CELL| Vector b [angstrom]:      -3.100     5.387    -0.029   |b| =     6.214935
 CELL| Vector c [angstrom]:      -0.009     0.028     5.943   |c| =     5.942880
 CELL| Angle (b,c), alpha [degree]:                                    89.997208
 CELL| Angle (a,c), beta  [degree]:                                    89.999799
 CELL| Angle (a,b), gamma [degree]:                                    60.021175
 CELL| Numerically orthorhombic:                                              NO
 CELL| Periodicity                                                           XYZ

 CELL_REF| Volume [angstrom^3]:                                       198.815694
 CELL_REF| Vector a [angstrom     3.117     5.376    -0.020   |a| =     6.214324
 CELL_REF| Vector b [angstrom    -3.100     5.387    -0.029   |b| =     6.214935
 CELL_REF| Vector c [angstrom    -0.009     0.028     5.943   |c| =     5.942880
 CELL_REF| Angle (b,c), alpha [degree]:                                89.997208
 CELL_REF| Angle (a,c), beta  [degree]:                                89.999799
 CELL_REF| Angle (a,b), gamma [degree]:                                60.021175
 CELL_REF| Numerically orthorhombic:                                          NO
 CELL_REF| Periodicity                                                       XYZ

 GENERATE|  Preliminary Number of Bonds generated:                             0
 GENERATE|  Achieved consistency in connectivity generation.


                  #####   #####        #     #   #     #       #          
                 #     # #     #      #    ##### #     #   # #####  ####  
                 #     # #           #       #   ###   #       #   #    # 
                 #     #  #####     #        #   #  #  #   #   #   ###### 
                 #   # #       #   #         #   #   # #   #   #   #      
                 #    #  #     #  #          #   #  #  # # #   #    #   # 
                  #### #  #####  #           #   ###   ##  #   #     ###  

                                     g-xTB   
                                 Version 0.0                       
                            Johann V. Pototschnig                  

                tblite provider: SAVE
                tblite source revision: 15915c9435644eb257178ca8f8bf7220c38b1a84
                g-xTB support: enabled

 xTB| Parameter file                                             xTB1_parameters
 xTB| Basis expansion STO-NG                                                   6
 xTB| Basis expansion STO-NG for Hydrogen                                      4
 xTB| Repulsive pair potential accuracy                               0.1000E-09
 xTB| Repulsive enhancement factor                                      0.000000
 xTB| Halogen interaction potential                                            T
 xTB| Halogen interaction potential cutoff radius                         20.000
 xTB| Nonbonded interactions                                                   F
 xTB| vdW potential type:                                              DFTD3(BJ)
 xTB| D3 Dispersion: Parameter                                         dftd3.dat
 xTB| Huckel constants ks kp kd                        1.850     2.250     2.000
 xTB| Huckel constants ksp k2sh                                  2.080     2.850
 xTB| Mataga-Nishimoto exponent                                            2.000
 xTB| Repulsion potential exponent                                         1.500
 xTB| Coordination number scaling kcn(s) kcn(p) kc     0.006    -0.003    -0.005
 xTB| Electronegativity scaling                                           -0.007
 xTB| Halogen potential scaling kxr kx2                          1.300     0.440
 xTB| SCC mixer:                                                       TBLITE
 xTB| tblite accuracy:                                                 1.000E-01
 xTB| tblite parameter file:    /home/kuehne88/work/gxtb-native-bvk-20260718/parameters/gxtb_no_exchange.toml
 xTB| tblite SCC mixer damping:                                            0.400
 xTB| tblite SCC mixer iterations:                                           300
 xTB| tblite SCC mixer memory:                                               300
 xTB| tblite SCC mixer solver:                                         GVD
 xTB| tblite SCC mixer omega0:                                         1.000E-02
 xTB| tblite SCC mixer min weight:                                     1.000E+00
 xTB| tblite SCC mixer max weight:                                     1.000E+05
 xTB| tblite SCC mixer weight factor:                                  1.000E-02




 ATOMIC KIND INFORMATION

  1. Atomic kind: H                                     Number of atoms:      12

     Orbital Basis Set                                                 H _STO-8G

       Number of orbital shell sets:                                           1
       Number of orbital shells:                                               1
       Number of primitive Cartesian functions:                                8
       Number of Cartesian basis functions:                                    1
       Number of spherical basis functions:                                    1
       Norm type:                                                              3

       Normalised Cartesian orbitals:

                        Set   Shell   Orbital            Exponent    Coefficient

                          1       1    1s              337.005012       0.035788
                                                        53.310531       0.061871
                                                        12.208253       0.111480
                                                         3.418827       0.170129
                                                         1.108790       0.210527
                                                         0.478718       0.124722
                                                         0.212137       0.087422
                                                         0.069058       0.005100

     AE Potential information for                                       Hydrogen

       Description:                                       Bare Coulomb Potential
                                                              Full atomic charge

       Gaussian exponent of the core charge distribution:              12.500000
       Electronic configuration (s p d ...):                       1   0   0   0

  2. Atomic kind: O                                     Number of atoms:       6

     Orbital Basis Set                                                 O _STO-6G

       Number of orbital shell sets:                                           2
       Number of orbital shells:                                               2
       Number of primitive Cartesian functions:                               12
       Number of Cartesian basis functions:                                    4
       Number of spherical basis functions:                                    4
       Norm type:                                                              3

       Normalised Cartesian orbitals:

                        Set   Shell   Orbital            Exponent    Coefficient

                          1       1    1s                3.483595      -1.317155
                                                         2.859866       1.118774
                                                         0.740681       0.295907
                                                         0.344927       0.081672
                                                         0.261979       0.039601
                                                         0.094616       0.011671

                          2       1    2px              37.641471       1.489396
                                                         9.713089       1.810019
                                                         3.137177       1.319917
                                                         1.121381       0.639287
                                                         0.398078       0.183981
                                                         0.123048       0.017820
                          2       1    2py              37.641471       1.489396
                                                         9.713089       1.810019
                                                         3.137177       1.319917
                                                         1.121381       0.639287
                                                         0.398078       0.183981
                                                         0.123048       0.017820
                          2       1    2pz              37.641471       1.489396
                                                         9.713089       1.810019
                                                         3.137177       1.319917
                                                         1.121381       0.639287
                                                         0.398078       0.183981
                                                         0.123048       0.017820

     AE Potential information for                                         Oxygen

       Description:                                       Bare Coulomb Potential
                                                             Valence charge only

       Gaussian exponent of the core charge distribution:               3.753049
       Electronic configuration (s p d ...):                       2   4   0   0


 MOLECULE KIND INFORMATION


 All atoms are their own molecule, skipping detailed information


 TOTAL NUMBERS AND MAXIMUM NUMBERS

  Total number of            - Atomic kinds:                                   2
                             - Atoms:                                         18
                             - Shell sets:                                    24
                             - Shells:                                        24
                             - Primitive Cartesian functions:                168
                             - Cartesian basis functions:                     36
                             - Spherical basis functions:                     36

  Maximum angular momentum of the orbital basis functions:                     1


 MODULE QUICKSTEP: ATOMIC COORDINATES IN ANGSTROM

   Atom Kind Element         X             Y             Z       Z(eff)     Mass
      1    1 H     1      2.448932      5.647848      1.136541   1.0000   1.0079
      2    1 H     1     -2.906763      5.097307      3.112552   1.0000   1.0079
      3    1 H     1      0.252240      0.753548      5.118155   1.0000   1.0079
      4    1 H     1      2.039086      4.154626      1.532721   1.0000   1.0079
      5    1 H     1     -1.407601      5.490504      3.502873   1.0000   1.0079
      6    1 H     1     -0.837843      1.857654      5.501497   1.0000   1.0079
      7    1 H     1      0.717292      5.824670      2.538224   1.0000   1.0079
      8    1 H     1      0.923859      8.896542      4.505185   1.0000   1.0079
      9    1 H     1     -1.826895      7.529512      0.546014   1.0000   1.0079
     10    1 H     1     -0.663251      7.340278      1.630597   1.0000   1.0079
     11    1 H     1      0.300565      6.935217      3.614729   1.0000   1.0079
     12    1 H     1      0.172975      7.988958      5.590652   1.0000   1.0079
     13    2 O     8     -0.077775      1.323933      5.872739   6.0000  15.9994
     14    2 O     8      2.121565      5.082768      1.896254   6.0000  15.9994
     15    2 O     8     -2.252527      5.102269      3.871260   6.0000  15.9994
     16    2 O     8     -0.059784      6.347953      2.888145   6.0000  15.9994
     17    2 O     8      0.860132      7.964741      4.862726   6.0000  15.9994
     18    2 O     8     -0.986837      7.941994      0.898547   6.0000  15.9994



 SCF PARAMETERS         Density guess:                                     MOPAC
                        --------------------------------------------------------
                        max_scf:                                             300
                        max_scf_history:                                       0
                        max_diis:                                              4
                        --------------------------------------------------------
                        eps_scf:                                        1.00E-09
                        eps_scf_history:                                0.00E+00
                        eps_diis:                                       1.00E-01
                        eps_eigval:                                     1.00E-05
                        --------------------------------------------------------
                        level_shift [a.u.]:                             0.000000
                        added MOs                                        12    0
                        --------------------------------------------------------
                        Mixing method:                           DIRECT_P_MIXING
                        --------------------------------------------------------
                        No outer SCF

 PW_GRID| Information for grid number                                          1
 PW_GRID| Cutoff [a.u.]                                                      1.0
 PW_GRID| spherical cutoff:                                                   NO
 PW_GRID|   Bounds   1             -3       2                Points:           6
 PW_GRID|   Bounds   2             -3       2                Points:           6
 PW_GRID|   Bounds   3             -3       2                Points:           6
 PW_GRID| Volume element (a.u.^3)   6.211         Volume (a.u.^3)      1341.6748
 PW_GRID| Grid span                                                    FULLSPACE

 POISSON| Solver                                                        PERIODIC
 POISSON| Periodicity                                                        XYZ

 RS_GRID| Information for grid number                                          1
 RS_GRID|   Bounds   1             -3       2                Points:           6
 RS_GRID|   Bounds   2             -3       2                Points:           6
 RS_GRID|   Bounds   3             -3       2                Points:           6

 *******************************************************************************
                                    Kpoints
 *******************************************************************************
 BRILLOUIN| K-point scheme                                             MacDonald
 BRILLOUIN| K-Point grid                                             2    2    2
 BRILLOUIN| K-Point shift                             0.2500    0.2500    0.2500
 BRILLOUIN| K-point symmetry accuracy                               0.100000E-05
 BRILLOUIN| K-Point point group symmetrization                               OFF
 BRILLOUIN| Wavefunction type                                            COMPLEX
 BRILLOUIN| Use full k-point grid     
 BRILLOUIN| List of Kpoints [2 Pi/Bohr]                                        8
 BRILLOUIN| Number           Weight            X              Y              Z
 BRILLOUIN|     1           0.12500        0.00000        0.00000        0.00000
 BRILLOUIN|     2           0.12500        0.00000        0.00000        0.50000
 BRILLOUIN|     3           0.12500        0.00000        0.50000        0.00000
 BRILLOUIN|     4           0.12500        0.00000        0.50000        0.50000
 BRILLOUIN|     5           0.12500        0.50000        0.00000        0.00000
 BRILLOUIN|     6           0.12500        0.50000        0.00000        0.50000
 BRILLOUIN|     7           0.12500        0.50000        0.50000        0.00000
 BRILLOUIN|     8           0.12500        0.50000        0.50000        0.50000
 *******************************************************************************

 Extrapolation method: initial_guess

 Number of electrons:                                                         48
 Number of occupied orbitals:                                                 24
 Number of molecular orbitals:                                                36

 Number of orbital functions:                                                 36
 Number of independent orbital functions:                                     36


 SCF WAVEFUNCTION OPTIMIZATION

  Step     Update method      Time    Convergence         Total energy    Change
  ------------------------------------------------------------------------------
     1 GXTB-Raw    0.10E+01    3.6     1.92120362      -451.8196705991 -4.52E+02
     2 GXTB-Simple 0.20E+00    1.7     0.03816114      -451.8626128312 -4.29E-02
     3 GXTB-Simple 0.20E+00    1.7     0.02539504      -451.8811365125 -1.85E-02
     4 GXTB-FDIIS  0.10E+01    1.8     0.04653796      -451.8948174462 -1.37E-02
     5 GXTB-FDIIS  0.10E+01    1.8     0.00406244      -451.8949468301 -1.29E-04
     6 GXTB-FDIIS  0.10E+01    1.8     0.00013119      -451.8949468848 -5.47E-08
     7 GXTB-FDIIS  0.10E+01    1.7     0.00002480      -451.8949468859 -1.10E-09
     8 GXTB-FDIIS  0.10E+01    1.8     0.00000390      -451.8949468859 -4.27E-11
     9 GXTB-FDIIS  0.10E+01    1.7     0.00000060      -451.8949468859 -1.08E-12
    10 GXTB-FDIIS  0.10E+01    1.7     0.00000005      -451.8949468859  0.00E+00
    11 GXTB-FDIIS  0.10E+01    1.7     2.3074E-09      -451.8949468859  0.00E+00
    12 GXTB-FDIIS  0.10E+01    1.7     3.6264E-10      -451.8949468859  0.00E+00

  *** SCF run converged in    12 steps ***


  Core Hamiltonian energy:                                    -23.08420247235521
  Repulsive potential energy:                                   1.76128159464680
  Electrostatic energy:                                         0.71796077767016
  Self-consistent dispersion energy:                           -0.02631860502145
  Non-self consistent dispersion energy:                        0.00261296708992
  Correction for halogen bonding:                               0.00000000000000

  Total energy:                                              -451.89494688592856


 MULLIKEN POPULATION ANALYSIS

  # Atom   Element   Kind        Atomic population                    Net charge
       1     H          1                 0.773920                      0.226080
       2     H          1                 0.773917                      0.226083
       3     H          1                 0.773918                      0.226082
       4     H          1                 0.772149                      0.227851
       5     H          1                 0.772155                      0.227845
       6     H          1                 0.772147                      0.227853
       7     H          1                 0.772165                      0.227835
       8     H          1                 0.772172                      0.227828
       9     H          1                 0.772160                      0.227840
      10     H          1                 0.773135                      0.226865
      11     H          1                 0.773139                      0.226861
      12     H          1                 0.773147                      0.226853
      13     O          2                 6.454586                     -0.454586
      14     O          2                 6.454580                     -0.454580
      15     O          2                 6.454592                     -0.454592
      16     O          2                 6.454037                     -0.454037
      17     O          2                 6.454069                     -0.454069
      18     O          2                 6.454012                     -0.454012
 # Total charge                          48.000000                     -0.000000


 ENERGY| Total FORCE_EVAL ( QS ) energy [hartree]           -451.894946885928562

 FORCES| Atomic forces [hartree/bohr]
 FORCES|   Atom     x               y               z               |f|
 FORCES|      1 -1.22277049E-02 -4.85983145E-03  4.29704269E-02   4.49398745E-02
 FORCES|      2  1.03729830E-02 -7.79466450E-03  4.30286078E-02   4.49423704E-02
 FORCES|      3  1.65962093E-03  1.32461515E-02  4.29024366E-02   4.49314360E-02
 FORCES|      4 -1.66364996E-03  2.84136887E-02  3.10115674E-02   4.20930250E-02
 FORCES|      5 -2.37303664E-02 -1.53214147E-02  3.11910425E-02   4.20803656E-02
 FORCES|      6  2.52327144E-02 -1.26115953E-02  3.12395136E-02   4.20909661E-02
 FORCES|      7 -4.02632463E-02  1.15190318E-02  1.22223802E-03   4.18964314E-02
 FORCES|      8  1.01760972E-02 -4.06229975E-02  1.52768929E-03   4.19060224E-02
 FORCES|      9  3.01243697E-02  2.90843104E-02  1.23062625E-03   4.18913977E-02
 FORCES|     10  1.77814949E-03  3.51731294E-02 -2.54364899E-02   4.34433639E-02
 FORCES|     11 -3.13911803E-02 -1.62730899E-02 -2.52296729E-02   4.34368052E-02
 FORCES|     12  2.97340529E-02 -1.92465059E-02 -2.51429650E-02   4.34362819E-02
 FORCES|     13 -2.73067519E-02 -8.04044692E-04 -7.46527098E-02   7.94942279E-02
 FORCES|     14  1.42885148E-02 -2.37420898E-02 -7.45011922E-02   7.94875847E-02
 FORCES|     15  1.33518898E-02  2.35712279E-02 -7.47228294E-02   7.94819286E-02
 FORCES|     16  7.29279024E-02  1.64713748E-03  2.45403349E-02   7.69637580E-02
 FORCES|     17 -3.78864702E-02  6.25269840E-02  2.41108078E-02   7.69827215E-02
 FORCES|     18 -3.51769246E-02 -6.39054275E-02  2.47105681E-02   7.70190357E-02
 FORCES| Sum    -1.87350135E-16 -6.52256027E-16 -4.40619763E-16
 FORCES| Total atomic force                                       8.09125314E-16

 STRESS| Analytical stress tensor [bar]
 STRESS|                        x                   y                   z
 STRESS|      x       -2.04308576682E+04  -2.03552071043E+01   3.03906699974E+01
 STRESS|      y       -2.03552071043E+01  -2.05909959426E+04  -7.44417416872E+01
 STRESS|      z        3.03906699974E+01  -7.44417416872E+01  -3.72988980617E+04
 STRESS| 1/3 Trace                                            -2.61069172242E+04
 STRESS| Determinant                                          -1.56911893248E+13

 STRESS| Eigenvectors and eigenvalues of the analytical stress tensor [bar]
 STRESS|                        1                   2                   3
 STRESS| Eigenvalues  -3.72992841544E+04  -2.05932488657E+04  -2.04282186525E+04
 STRESS|      x          -0.001796236010      0.125144974365      0.992136839820
 STRESS|      y           0.004453138454      0.992129604042     -0.125135999385
 STRESS|      z           0.999988471481     -0.004193348924      0.002339386819

 -------------------------------------------------------------------------------
 -                                                                             -
 -                                DBCSR STATISTICS                             -
 -                                                                             -
 -------------------------------------------------------------------------------
 COUNTER                                    TOTAL       BLAS       SMM       ACC
 flops inhomo. stacks                           0       0.0%      0.0%      0.0%
 flops total                         0.000000E+00       0.0%      0.0%      0.0%
 flops max/rank                      0.000000E+00       0.0%      0.0%      0.0%
 matmuls inhomo. stacks                         0       0.0%      0.0%      0.0%
 matmuls total                                  0       0.0%      0.0%      0.0%
 number of processed stacks                     0       0.0%      0.0%      0.0%
 average stack size                                     0.0       0.0       0.0
 marketing flops                     0.000000E+00
 -------------------------------------------------------------------------------
 -                                                                             -
 -                      DBCSR MESSAGE PASSING PERFORMANCE                      -
 -                                                                             -
 -------------------------------------------------------------------------------
 ROUTINE             CALLS      AVE VOLUME [Bytes]
 MP_Bcast                1                     12.
 MP_Allreduce           19                     21.
 MP_Alltoall          8256                   9591.
 -------------------------------------------------------------------------------

 -------------------------------------------------------------------------------
 -                                                                             -
 -                          OFFLOAD MEMPOOL STATISTICS                         -
 -                                                                             -
 -------------------------------------------------------------------------------
 Memory consumption                Number of allocations  Used [MiB]  Size [MiB]
 Host                                                  1           0           0
 -------------------------------------------------------------------------------

 MEMORY| Estimated peak process memory [MiB]                                 356

 -------------------------------------------------------------------------------
 ----                             MULTIGRID INFO                            ----
 -------------------------------------------------------------------------------
 total grid count     :           420              cutoff [a.u.]            1.00

 -------------------------------------------------------------------------------
 -                                                                             -
 -                         MESSAGE PASSING PERFORMANCE                         -
 -                                                                             -
 -------------------------------------------------------------------------------

 ROUTINE             CALLS      AVE VOLUME [Bytes]
 MP_Group                1
 MP_Bcast             6060                      7.
 MP_Allreduce       234567                    301.
 MP_Sync                 1
 MP_Wait              5040
 MP_ISend             7056                   1487.
 MP_IRecv             7056                   1487.
 -------------------------------------------------------------------------------


 -------------------------------------------------------------------------------
 -                                                                             -
 -                           R E F E R E N C E S                               -
 -                                                                             -
 -------------------------------------------------------------------------------
 
 CP2K version 2026.2 (Development Version), the CP2K developers group (2026).
 CP2K is freely available from https://www.cp2k.org/ .
 
 M. Iannuzzi, J. Wilhelm, F. Stein, A. Bussy, H. Elgabarty, D. Golze, A. Hehn, 
 M. Graml, S. Marek, B. Sertcan Gökmen, C. Schran, H. Forbert, R. Z. 
 Khaliullin, A. Kozhevnikov, M. Taillefumier, R. Meli, V. V. Rybkin, M. Brehm, 
 R. Schade, O. Schütt, J. V. Pototschnig, H. Mirhosseini, A. Knüpfer, D. Marx, 
 M. Krack, J. Hutter, T. D. Kühne.
 J. Phys. Chem. B 130, 1237-1310 (2026).
 The CP2K Program Package Made Simple.
 https://doi.org/10.1021/acs.jpcb.5c05851

 A. Katbashev, M. Stahn, T. Rose, V. Alizadeh, M. Friede, C. Plett, P. 
 Steinbach, S. Ehlert.
 J. Phys. Chem. A 129, 2667-2682 (2025).
 Overview on Building Blocks and Applications of Efficient and Robust Extended 
 Tight Binding.
 https://doi.org/10.1021/acs.jpca.4c08263

 T. D. Kühne, M. Iannuzzi, M. Del Ben, V. V. Rybkin, P. Seewald, F. Stein, T. 
 Laino, R. Z. Khaliullin, O. Schütt, F. Schiffmann, D. Golze, J. Wilhelm, S. 
 Chulkov, M. H. Bani-Hashemian, V. Weber, U. Borstnik, M. Taillefumier, A. S. 
 Jakobovits, A. Lazzaro, H. Pabst, T. Müller, R. Schade, M. Guidon, S. 
 Andermatt, N. Holmberg, G. K. Schenter, A. Hehn, A. Bussy, F. Belleflamme, G. 
 Tabacchi, A. Glöß, M. Lass, I. Bethune, C. J. Mundy, C. Plessl, M. Watkins, 
 J. VandeVondele, M. Krack, J. Hutter.
 J. Chem. Phys. 152, 194103 (2020).
 CP2K: An electronic structure and molecular dynamics software package - 
 Quickstep: Efficient and accurate electronic structure calculations.
 https://doi.org/10.1063/5.0007045

 P. Pracht, E. Caldeweyher, S. Ehlert, S. Grimme.
 ChemRxiv, (2019).
 A Robust Non-Self-Consistent Tight-Binding Quantum Chemistry Method for large 
 Molecules.
 https://doi.org/10.26434/chemrxiv.8326202.v1

 S. Grimme, C. Bannwarth, P. Shushkov.
 J. Chem. Theory Comput. 13, 1989 (2017).
 A Robust and Accurate Tight-Binding Quantum Chemical Method for Structures, 
 Vibrational Frequencies, and Noncovalent Interactions of Large Molecular 
 Systems Parametrized for All spd-Block Elements (Z = 1-86).
 https://doi.org/10.1021/acs.jctc.7b00118

 O. Schuett, P. Messmer, J. Hutter, J. VandeVondele.
 Electronic Structure Calculations on Graphics Processing Units, 173-190 (2016).
 GPU-Accelerated Sparse Matrix-Matrix Multiplication for Linear Scaling Density 
 Functional Theory.
 https://doi.org/10.1002/9781118670712.ch8

 U. Borstnik, J. VandeVondele, V. Weber, J. Hutter.
 Parallel Comput. 40, 47-58 (2014).
 Sparse matrix multiplication: The distributed block-compressed sparse row 
 library.
 https://doi.org/10.1016/j.parco.2014.03.012

 M. Frigo, S. G. Johnson.
 Proc. IEEE 93, 216-231 (2005).
 The design and implementation of FFTW3.
 https://doi.org/10.1109/JPROC.2004.840301

 C.-L. Fu, K.-M. Ho.
 Phys. Rev. B 28, 5480-5486 (1983).
 First-principles calculation of the equilibrium ground-state properties of 
 transition metals: Applications to Nb and Mo.
 https://doi.org/10.1103/PhysRevB.28.5480


 -------------------------------------------------------------------------------
 -                                                                             -
 -                                T I M I N G                                  -
 -                                                                             -
 -------------------------------------------------------------------------------
 SUBROUTINE                       CALLS  ASD         SELF TIME        TOTAL TIME
                                MAXIMUM       AVERAGE  MAXIMUM  AVERAGE  MAXIMUM
 CP2K                                 1  1.0    0.015    0.015   88.565   88.565
 qs_forces                            1  2.0    0.003    0.003   88.264   88.264
 qs_energies                          1  3.0    0.002    0.002   59.330   59.330
 cp_dbcsr_alloc_block_from_nbl    34992  5.1   58.865   58.865   59.229   59.229
 build_tblite_matrices                2  4.0    2.214    2.214   58.099   58.099
 qs_energies_init_hamiltonians        1  4.0    0.002    0.002   34.570   34.570
 scf_env_do_scf                       1  4.0    0.000    0.000   22.633   22.633
 scf_env_do_scf_inner_loop           12  5.0    2.544    2.544   22.633   22.633
 rebuild_ks_matrix                   13  6.8    0.000    0.000   12.740   12.740
 build_tblite_ks_matrix              13  7.8   12.462   12.462   12.740   12.740
 qs_scf_new_mos_kp                   12  6.0    0.000    0.000   10.236   10.236
 do_general_diag_kp                  12  7.0    0.014    0.014   10.235   10.235
 qs_ks_update_qs_env                 12  6.0    0.000    0.000    9.239    9.239
 rskp_transform                     296  7.9    7.732    7.732    7.732    7.732
 qs_ks_update_qs_env_forces           1  3.0    0.000    0.000    3.716    3.716
 kpoint_density_transform            13  7.8    0.004    0.004    2.658    2.658
 transform_dmat                     104  8.8    2.538    2.538    2.538    2.538
 -------------------------------------------------------------------------------

 The number of warnings for this run is : 2
 
 -------------------------------------------------------------------------------
  **** **** ******  **  PROGRAM ENDED AT                 2026-07-19 11:55:37.224
 ***** ** ***  *** **   PROGRAM RAN ON                                     terok
 **    ****   ******    PROGRAM RAN BY                                  kuehne88
 ***** **    ** ** **   PROGRAM PROCESS ID                               3052153
  **** **  *******  **  PROGRAM STOPPED IN /home/kuehne88/work/gxtb-final-deriva
                                           tive-ablation-20260719
