 DBCSR| CPU Multiplication driver                                           BLAS (U)
 DBCSR| Multrec recursion limit                                              512 (U)
 DBCSR| Multiplication stack size                                           1000 (D)
 DBCSR| Maximum elements for images                                    UNLIMITED (U)
 DBCSR| Multiplicative factor virtual images                                   1 (U)
 DBCSR| Use multiplication densification                                       T (D)
 DBCSR| Multiplication size stacks                                             3 (U)
 DBCSR| Use memory pool for CPU allocation                                     F (U)
 DBCSR| Number of 3D layers                                               SINGLE (U)
 DBCSR| Use MPI memory allocation                                              F (U)
 DBCSR| Use RMA algorithm                                                      F (U)
 DBCSR| Use Communication thread                                               T (U)
 DBCSR| Communication thread load                                             87 (D)
 DBCSR| MPI: My process id                                                     0
 DBCSR| MPI: Number of processes                                               1
 DBCSR| OMP: Current number of threads                                         1
 DBCSR| OMP: Max number of threads                                             1
 DBCSR| Split modifier for TAS multiplication algorithm                  1.0E+00 (U)


  **** **** ******  **  PROGRAM STARTED AT               2026-07-21 16:11:20.878
 ***** ** ***  *** **   PROGRAM STARTED ON                                 terok
 **    ****   ******    PROGRAM STARTED BY                              kuehne88
 ***** **    ** ** **   PROGRAM PROCESS ID                               1049719
  **** **  *******  **  PROGRAM STARTED IN /home/kuehne88/work/h2o-molecular-lim
                                           it-20260721/stress_debug_8_50/raw/H2O
                                           _stress_L50

 CP2K| version string:                 CP2K version 2026.2 (Development Version)
 CP2K| source code revision number:                                    8520b2e59
 CP2K| cp2kflags: omp parallel scalapack spglib s_dftd3 mctc-lib tblite tblite_g
 CP2K|            xtb
 CP2K| is freely available from                            https://www.cp2k.org/
 CP2K| Program compiled at                                   2026-07-18 23:48:15
 CP2K| Program compiled on                                                 terok
 CP2K| Program compiled for                                               x86_64
 CP2K| Data directory path                            /usr/local/share/cp2k/data
 CP2K| Input file name        /home/kuehne88/work/h2o-molecular-limit-20260721/s

 GLOBAL| Force Environment number                                              1
 GLOBAL| Basis set file name                                           BASIS_SET
 GLOBAL| Potential file name                                           POTENTIAL
 GLOBAL| MM Potential file name                                     MM_POTENTIAL
 GLOBAL| Coordinate file name                                      __STD_INPUT__
 GLOBAL| Method name                                                        CP2K
 GLOBAL| Project name                                             H2O_stress_L50
 GLOBAL| Run type                                                          DEBUG
 GLOBAL| FFT library                                                       FFTW3
 GLOBAL| Diagonalization library                                       ScaLAPACK
 GLOBAL| Cholesky decomposition library                                ScaLAPACK
 GLOBAL| DGEMM library                                                      BLAS
 GLOBAL| Direct generalized diagonalization requested                          F
 GLOBAL| Orthonormality check for eigenvectors                          DISABLED
 GLOBAL| Matrix multiplication library                                 ScaLAPACK
 GLOBAL| All-to-all communication in single precision                          F
 GLOBAL| FFTs using library dependent lengths                                  F
 GLOBAL| Grid backend                                                       AUTO
 GLOBAL| Global print level                                               MEDIUM
 GLOBAL| MPI I/O enabled                                                       T
 GLOBAL| Total number of message passing processes                             1
 GLOBAL| Number of distributed systems (nodes)                                 1
 GLOBAL| Number of threads for this process                                    1
 GLOBAL| This output is from process                                           0
 GLOBAL| OpenMP stack size per thread (OMP_STACKSIZE)                    default
 GLOBAL| CPU model name                                       AMD EPYC Processor
 GLOBAL| CPUID                                                              1002

 MEMORY| system memory details [Kb]
 MEMORY|                        rank 0           min           max       average
 MEMORY| MemTotal            528104804     528104804     528104804     528104804
 MEMORY| MemFree             511860588     511860588     511860588     511860588
 MEMORY| Buffers                    20            20            20            20
 MEMORY| Cached               12274396      12274396      12274396      12274396
 MEMORY| Slab                  2373628       2373628       2373628       2373628
 MEMORY| SReclaimable          1020532       1020532       1020532       1020532
 MEMORY| MemLikelyFree       525155536     525155536     525155536     525155536


 *** WARNING in environment.F:1098 :: FFT library FFTW3 is not available. ***
 *** Trying FFT library FFTSG.                                            ***


 *** Fundamental physical constants (SI units) ***

 *** Literature: B. J. Mohr and B. N. Taylor,
 ***             CODATA recommended values of the fundamental physical
 ***             constants: 2006, Web Version 5.1
 ***             http://physics.nist.gov/constants

 Speed of light in vacuum [m/s]                             2.99792458000000E+08
 Magnetic constant or permeability of vacuum [N/A**2]       1.25663706143592E-06
 Electric constant or permittivity of vacuum [F/m]          8.85418781762039E-12
 Planck constant (h) [J*s]                                  6.62606896000000E-34
 Planck constant (h-bar) [J*s]                              1.05457162825177E-34
 Elementary charge [C]                                      1.60217648700000E-19
 Electron mass [kg]                                         9.10938215000000E-31
 Electron g factor [ ]                                     -2.00231930436220E+00
 Proton mass [kg]                                           1.67262163700000E-27
 Fine-structure constant                                    7.29735253760000E-03
 Rydberg constant [1/m]                                     1.09737315685270E+07
 Avogadro constant [1/mol]                                  6.02214179000000E+23
 Boltzmann constant [J/K]                                   1.38065040000000E-23
 Atomic mass unit [kg]                                      1.66053878200000E-27
 Bohr radius [m]                                            5.29177208590000E-11

 *** Conversion factors ***

 [u] -> [a.u.]                                              1.82288848426455E+03
 [Angstrom] -> [Bohr] = [a.u.]                              1.88972613288564E+00
 [a.u.] = [Bohr] -> [Angstrom]                              5.29177208590000E-01
 [a.u.] -> [s]                                              2.41888432650478E-17
 [a.u.] -> [fs]                                             2.41888432650478E-02
 [a.u.] -> [J]                                              4.35974393937059E-18
 [a.u.] -> [N]                                              8.23872205491840E-08
 [a.u.] -> [K]                                              3.15774647902944E+05
 [a.u.] -> [kJ/mol]                                         2.62549961709828E+03
 [a.u.] -> [kcal/mol]                                       6.27509468713739E+02
 [a.u.] -> [Pa]                                             2.94210107994716E+13
 [a.u.] -> [bar]                                            2.94210107994716E+08
 [a.u.] -> [atm]                                            2.90362800883016E+08
 [a.u.] -> [eV]                                             2.72113838565563E+01
 [a.u.] -> [Hz]                                             6.57968392072181E+15
 [a.u.] -> [1/cm] (wave numbers)                            2.19474631370540E+05
 [a.u./Bohr**2] -> [1/cm]                                   5.14048714338585E+03
 

 CELL| Volume [angstrom^3]:                                        125000.000000
 CELL| Vector a [angstrom]:      50.000     0.000     0.000   |a| =    50.000000
 CELL| Vector b [angstrom]:       0.000    50.000     0.000   |b| =    50.000000
 CELL| Vector c [angstrom]:       0.000     0.000    50.000   |c| =    50.000000
 CELL| Angle (b,c), alpha [degree]:                                    90.000000
 CELL| Angle (a,c), beta  [degree]:                                    90.000000
 CELL| Angle (a,b), gamma [degree]:                                    90.000000
 CELL| Numerically orthorhombic:                                             YES
 CELL| Periodicity                                                           XYZ

 CELL_REF| Volume [angstrom^3]:                                    125000.000000
 CELL_REF| Vector a [angstrom    50.000     0.000     0.000   |a| =    50.000000
 CELL_REF| Vector b [angstrom     0.000    50.000     0.000   |b| =    50.000000
 CELL_REF| Vector c [angstrom     0.000     0.000    50.000   |c| =    50.000000
 CELL_REF| Angle (b,c), alpha [degree]:                                90.000000
 CELL_REF| Angle (a,c), beta  [degree]:                                90.000000
 CELL_REF| Angle (a,b), gamma [degree]:                                90.000000
 CELL_REF| Numerically orthorhombic:                                         YES
 CELL_REF| Periodicity                                                       XYZ

 GENERATE|  Preliminary Number of Bonds generated:                             0
 GENERATE|  Achieved consistency in connectivity generation.


                  #####   #####        #     #   #     #       #          
                 #     # #     #      #    ##### #     #   # #####  ####  
                 #     # #           #       #   ###   #       #   #    # 
                 #     #  #####     #        #   #  #  #   #   #   ###### 
                 #   # #       #   #         #   #   # #   #   #   #      
                 #    #  #     #  #          #   #  #  # # #   #    #   # 
                  #### #  #####  #           #   ###   ##  #   #     ###  

                                     g-xTB   
                                 Version 0.0                       
                            Johann V. Pototschnig                  

                tblite provider: SAVE
                tblite source revision: 15915c9435644eb257178ca8f8bf7220c38b1a84
                g-xTB support: enabled

 xTB| Parameter file                                             xTB1_parameters
 xTB| Basis expansion STO-NG                                                   6
 xTB| Basis expansion STO-NG for Hydrogen                                      4
 xTB| Repulsive pair potential accuracy                               0.1000E-09
 xTB| Repulsive enhancement factor                                      0.000000
 xTB| Halogen interaction potential                                            T
 xTB| Halogen interaction potential cutoff radius                         20.000
 xTB| Nonbonded interactions                                                   F
 xTB| vdW potential type:                                              DFTD3(BJ)
 xTB| D3 Dispersion: Parameter                                         dftd3.dat
 xTB| Huckel constants ks kp kd                        1.850     2.250     2.000
 xTB| Huckel constants ksp k2sh                                  2.080     2.850
 xTB| Mataga-Nishimoto exponent                                            2.000
 xTB| Repulsion potential exponent                                         1.500
 xTB| Coordination number scaling kcn(s) kcn(p) kc     0.006    -0.003    -0.005
 xTB| Electronegativity scaling                                           -0.007
 xTB| Halogen potential scaling kxr kx2                          1.300     0.440
 xTB| SCC mixer:                                                       TBLITE
 xTB| tblite accuracy:                                                 1.000E-01
 xTB| tblite SCC mixer damping:                                            0.400
 xTB| tblite SCC mixer iterations:                                           300
 xTB| tblite SCC mixer memory:                                               300
 xTB| tblite SCC mixer solver:                                         GVD
 xTB| tblite SCC mixer omega0:                                         1.000E-02
 xTB| tblite SCC mixer min weight:                                     1.000E+00
 xTB| tblite SCC mixer max weight:                                     1.000E+05
 xTB| tblite SCC mixer weight factor:                                  1.000E-02




 ATOMIC KIND INFORMATION

  1. Atomic kind: O                                     Number of atoms:       1

     Orbital Basis Set                                                 O _STO-6G

       Number of orbital shell sets:                                           2
       Number of orbital shells:                                               2
       Number of primitive Cartesian functions:                               12
       Number of Cartesian basis functions:                                    4
       Number of spherical basis functions:                                    4
       Norm type:                                                              3

       Normalised Cartesian orbitals:

                        Set   Shell   Orbital            Exponent    Coefficient

                          1       1    1s                3.483595      -1.313024
                                                         2.859866       1.114872
                                                         0.740681       0.294549
                                                         0.344927       0.081390
                                                         0.261979       0.039458
                                                         0.094616       0.012363

                          2       1    2px              37.641471       1.474721
                                                         9.713089       1.794175
                                                         3.137177       1.303626
                                                         1.121381       0.633327
                                                         0.398078       0.183090
                                                         0.123048       0.019124
                          2       1    2py              37.641471       1.474721
                                                         9.713089       1.794175
                                                         3.137177       1.303626
                                                         1.121381       0.633327
                                                         0.398078       0.183090
                                                         0.123048       0.019124
                          2       1    2pz              37.641471       1.474721
                                                         9.713089       1.794175
                                                         3.137177       1.303626
                                                         1.121381       0.633327
                                                         0.398078       0.183090
                                                         0.123048       0.019124

     AE Potential information for                                         Oxygen

       Description:                                       Bare Coulomb Potential
                                                             Valence charge only

       Gaussian exponent of the core charge distribution:               3.753049
       Electronic configuration (s p d ...):                       2   4   0   0

  2. Atomic kind: H                                     Number of atoms:       2

     Orbital Basis Set                                                 H _STO-8G

       Number of orbital shell sets:                                           1
       Number of orbital shells:                                               1
       Number of primitive Cartesian functions:                                8
       Number of Cartesian basis functions:                                    1
       Number of spherical basis functions:                                    1
       Norm type:                                                              3

       Normalised Cartesian orbitals:

                        Set   Shell   Orbital            Exponent    Coefficient

                          1       1    1s              337.005012       0.038636
                                                        53.310531       0.064369
                                                        12.208253       0.119184
                                                         3.418827       0.179125
                                                         1.108790       0.225727
                                                         0.478718       0.127521
                                                         0.212137       0.089380
                                                         0.069058      -0.000553

     AE Potential information for                                       Hydrogen

       Description:                                       Bare Coulomb Potential
                                                              Full atomic charge

       Gaussian exponent of the core charge distribution:              12.500000
       Electronic configuration (s p d ...):                       1   0   0   0


 MOLECULE KIND INFORMATION


 All atoms are their own molecule, skipping detailed information


 TOTAL NUMBERS AND MAXIMUM NUMBERS

  Total number of            - Atomic kinds:                                   2
                             - Atoms:                                          3
                             - Shell sets:                                     4
                             - Shells:                                         4
                             - Primitive Cartesian functions:                 28
                             - Cartesian basis functions:                      6
                             - Spherical basis functions:                      6

  Maximum angular momentum of the orbital basis functions:                     1


 MODULE QUICKSTEP: ATOMIC COORDINATES IN ANGSTROM

   Atom Kind Element         X             Y             Z       Z(eff)     Mass
      1    1 O     8      0.000000      0.000000      0.000000   6.0000  15.9994
      2    2 H     1      0.758602      0.000000      0.504284   1.0000   1.0079
      3    2 H     1     -0.758602      0.000000      0.504284   1.0000   1.0079



 SCF PARAMETERS         Density guess:                                     MOPAC
                        --------------------------------------------------------
                        max_scf:                                             300
                        max_scf_history:                                       0
                        max_diis:                                              4
                        --------------------------------------------------------
                        eps_scf:                                        1.00E-10
                        eps_scf_history:                                0.00E+00
                        eps_diis:                                       1.00E-01
                        eps_eigval:                                     1.00E-05
                        --------------------------------------------------------
                        level_shift [a.u.]:                             0.000000
                        added MOs                                         2    0
                        --------------------------------------------------------
                        Mixing method:                           DIRECT_P_MIXING
                        --------------------------------------------------------
                        No outer SCF

 PW_GRID| Information for grid number                                          1
 PW_GRID| Cutoff [a.u.]                                                      1.0
 PW_GRID| spherical cutoff:                                                   NO
 PW_GRID|   Bounds   1            -22      22                Points:          45
 PW_GRID|   Bounds   2            -22      22                Points:          45
 PW_GRID|   Bounds   3            -22      22                Points:          45
 PW_GRID| Volume element (a.u.^3)   9.257         Volume (a.u.^3)    843541.8229
 PW_GRID| Grid span                                                    FULLSPACE

 POISSON| Solver                                                        PERIODIC
 POISSON| Periodicity                                                        XYZ

 RS_GRID| Information for grid number                                          1
 RS_GRID|   Bounds   1            -22      22                Points:          45
 RS_GRID|   Bounds   2            -22      22                Points:          45
 RS_GRID|   Bounds   3            -22      22                Points:          45

 Extrapolation method: initial_guess

 Number of electrons:                                                          8
 Number of occupied orbitals:                                                  4
 Number of molecular orbitals:                                                 6

 Number of orbital functions:                                                  6
 Number of independent orbital functions:                                      6


 SCF WAVEFUNCTION OPTIMIZATION

  Step     Update method      Time    Convergence         Total energy    Change
  ------------------------------------------------------------------------------
     1 GXTB-Raw    0.10E+01    0.0     0.75012605       -76.4024048886 -7.64E+01
     2 GXTB-Simple 0.20E+00    0.0     0.06436986       -76.4173900870 -1.50E-02
     3 GXTB-Simple 0.20E+00    0.0     0.04425098       -76.4248535542 -7.46E-03
     4 GXTB-FDIIS  0.10E+01    0.0     0.09801412       -76.4324038354 -7.55E-03
     5 GXTB-FDIIS  0.10E+01    0.0     0.01070915       -76.4324984549 -9.46E-05
     6 GXTB-FDIIS  0.10E+01    0.0     0.00160465       -76.4324998865 -1.43E-06
     7 GXTB-FDIIS  0.10E+01    0.0     0.00011832       -76.4324998898 -3.32E-09
     8 GXTB-FDIIS  0.10E+01    0.0     0.00000730       -76.4324998898 -4.46E-12
     9 GXTB-FDIIS  0.10E+01    0.0     0.00000135       -76.4324998898 -6.54E-13
    10 GXTB-FDIIS  0.10E+01    0.0     0.00000010       -76.4324998898  0.00E+00
    11 GXTB-FDIIS  0.10E+01    0.0     7.7810E-11       -76.4324998898  0.00E+00

  *** SCF run converged in    11 steps ***


  Core Hamiltonian energy:                                     -6.32231996872663
  Repulsive potential energy:                                   0.41026486465279
  Electrostatic energy:                                         0.14457746834660
  Self-consistent dispersion energy:                           -0.00003926022349
  Non-self consistent dispersion energy:                        0.00000009665358
  Correction for halogen bonding:                               0.00000000000000

  Total energy:                                               -76.43249988981387


 MULLIKEN POPULATION ANALYSIS

  # Atom   Element   Kind        Atomic population                    Net charge
       1     O          1                 6.655331                     -0.655331
       2     H          2                 0.672334                      0.327666
       3     H          2                 0.672334                      0.327666
 # Total charge                           8.000000                     -0.000000


 tblite reference CLI check
 Executable: tblite
 Method:     gxtb
 Guess:      auto
 Solver:     gvd
 Spin-pol.:  F
 Grad file:  H2O_stress_L50_cli.grad
 JSON file:  H2O_stress_L50_cli.json
 Log file:   H2O_stress_L50_cli.log
 Energy CP2K/CLI/absdiff:   -7.643249988981E+01   -7.643249988906E+01    7.536300472566E-10
 Gradient diff sum/max:    8.513021725131E-08    2.131240843528E-08
 Virial diff sum/max:    8.048907388973E-08    6.045743117244E-08

 ENERGY| Total FORCE_EVAL ( QS ) energy [hartree]            -76.432499889813869

 -------------------------------------------------------------------------------
 ----                             MULTIGRID INFO                            ----
 -------------------------------------------------------------------------------
 total grid count     :           420              cutoff [a.u.]            1.00

 PW_GRID| Information for grid number                                          2
 PW_GRID| Cutoff [a.u.]                                                      1.0
 PW_GRID| spherical cutoff:                                                   NO
 PW_GRID|   Bounds   1            -22      22                Points:          45
 PW_GRID|   Bounds   2            -22      22                Points:          45
 PW_GRID|   Bounds   3            -22      22                Points:          45
 PW_GRID| Volume element (a.u.^3)   9.257         Volume (a.u.^3)    843542.7157
 PW_GRID| Grid span                                                    FULLSPACE

 POISSON| Solver                                                        PERIODIC
 POISSON| Periodicity                                                        XYZ

 RS_GRID| Information for grid number                                          2
 RS_GRID|   Bounds   1            -22      22                Points:          45
 RS_GRID|   Bounds   2            -22      22                Points:          45
 RS_GRID|   Bounds   3            -22      22                Points:          45

 Parameters for the always stable predictor-corrector (ASPC) method:

  ASPC order: 0

  B(1) =   1.000000

 Extrapolation method: ASPC

 Number of electrons:                                                          8
 Number of occupied orbitals:                                                  4
 Number of molecular orbitals:                                                 6

 Number of orbital functions:                                                  6
 Number of independent orbital functions:                                      6


 SCF WAVEFUNCTION OPTIMIZATION

  Step     Update method      Time    Convergence         Total energy    Change
  ------------------------------------------------------------------------------
     1 GXTB-Raw    0.10E+01    0.0     0.00000083       -76.4325000051 -7.64E+01
     2 GXTB-Simple 0.20E+00    0.0     0.00000009       -76.4325000051 -1.42E-14
     3 GXTB-Simple 0.20E+00    0.0     0.00000008       -76.4325000051 -1.42E-14
     4 GXTB-FDIIS  0.10E+01    0.0     0.00000034       -76.4325000051 -2.84E-14
     5 GXTB-FDIIS  0.10E+01    0.0     0.00000002       -76.4325000051  0.00E+00
     6 GXTB-FDIIS  0.10E+01    0.0     8.0283E-09       -76.4325000051  0.00E+00
     7 GXTB-FDIIS  0.10E+01    0.0     1.4194E-10       -76.4325000051  0.00E+00
     8 GXTB-FDIIS  0.10E+01    0.0     3.7748E-15       -76.4325000051  0.00E+00

  *** SCF run converged in     8 steps ***


  Core Hamiltonian energy:                                     -6.32231904464518
  Repulsive potential energy:                                   0.41026370851793
  Electrostatic energy:                                         0.14457751108378
  Self-consistent dispersion energy:                           -0.00003926031810
  Non-self consistent dispersion energy:                        0.00000009665270
  Correction for halogen bonding:                               0.00000000000000

  Total energy:                                               -76.43250000506542


 MULLIKEN POPULATION ANALYSIS

  # Atom   Element   Kind        Atomic population                    Net charge
       1     O          1                 6.655331                     -0.655331
       2     H          2                 0.672334                      0.327666
       3     H          2                 0.672334                      0.327666
 # Total charge                           8.000000                      0.000000


 tblite reference CLI check
 Executable: tblite
 Method:     gxtb
 Guess:      auto
 Solver:     gvd
 Spin-pol.:  F
 Grad file:  H2O_stress_L50_cli.grad
 JSON file:  H2O_stress_L50_cli.json
 Log file:   H2O_stress_L50_cli.log
 Energy CP2K/CLI/absdiff:   -7.643250000507E+01   -7.643250000431E+01    7.536300472566E-10
 Gradient diff sum/max:    2.949973831096E-06    7.531473348171E-07
 Virial diff sum/max:    1.723042583240E-01    1.088960492367E-01
 tblite reference CLI deviation exceeded ERROR_LIMIT =   1.0000E-05

 ENERGY| Total FORCE_EVAL ( QS ) energy [hartree]            -76.432500005065421

 -------------------------------------------------------------------------------
 ----                             MULTIGRID INFO                            ----
 -------------------------------------------------------------------------------
 total grid count     :           420              cutoff [a.u.]            1.00

 PW_GRID| Information for grid number                                          3
 PW_GRID| Cutoff [a.u.]                                                      1.0
 PW_GRID| spherical cutoff:                                                   NO
 PW_GRID|   Bounds   1            -22      22                Points:          45
 PW_GRID|   Bounds   2            -22      22                Points:          45
 PW_GRID|   Bounds   3            -22      22                Points:          45
 PW_GRID| Volume element (a.u.^3)   9.257         Volume (a.u.^3)    843540.9301
 PW_GRID| Grid span                                                    FULLSPACE

 POISSON| Solver                                                        PERIODIC
 POISSON| Periodicity                                                        XYZ

 RS_GRID| Information for grid number                                          3
 RS_GRID|   Bounds   1            -22      22                Points:          45
 RS_GRID|   Bounds   2            -22      22                Points:          45
 RS_GRID|   Bounds   3            -22      22                Points:          45

 Parameters for the always stable predictor-corrector (ASPC) method:

  ASPC order: 0

  B(1) =   2.000000
  B(2) =  -1.000000

 Extrapolation method: ASPC

 Number of electrons:                                                          8
 Number of occupied orbitals:                                                  4
 Number of molecular orbitals:                                                 6

 Number of orbital functions:                                                  6
 Number of independent orbital functions:                                      6


 SCF WAVEFUNCTION OPTIMIZATION

  Step     Update method      Time    Convergence         Total energy    Change
  ------------------------------------------------------------------------------
     1 GXTB-Raw    0.10E+01    0.0     0.00000165       -76.4324997746 -7.64E+01
     2 GXTB-Simple 0.20E+00    0.0     0.00000018       -76.4324997746 -7.11E-14
     3 GXTB-Simple 0.20E+00    0.0     0.00000015       -76.4324997746 -5.68E-14
     4 GXTB-FDIIS  0.10E+01    0.0     0.00000068       -76.4324997746 -9.95E-14
     5 GXTB-FDIIS  0.10E+01    0.0     0.00000004       -76.4324997746  0.00E+00
     6 GXTB-FDIIS  0.10E+01    0.0     0.00000002       -76.4324997746  0.00E+00
     7 GXTB-FDIIS  0.10E+01    0.0     2.8388E-10       -76.4324997746  0.00E+00
     8 GXTB-FDIIS  0.10E+01    0.0     1.5543E-15       -76.4324997746  0.00E+00

  *** SCF run converged in     8 steps ***


  Core Hamiltonian energy:                                     -6.32232089280835
  Repulsive potential energy:                                   0.41026602079043
  Electrostatic energy:                                         0.14457742560964
  Self-consistent dispersion energy:                           -0.00003926012889
  Non-self consistent dispersion energy:                        0.00000009665446
  Correction for halogen bonding:                               0.00000000000000

  Total energy:                                               -76.43249977456006


 MULLIKEN POPULATION ANALYSIS

  # Atom   Element   Kind        Atomic population                    Net charge
       1     O          1                 6.655331                     -0.655331
       2     H          2                 0.672334                      0.327666
       3     H          2                 0.672334                      0.327666
 # Total charge                           8.000000                     -0.000000


 tblite reference CLI check
 Executable: tblite
 Method:     gxtb
 Guess:      auto
 Solver:     gvd
 Spin-pol.:  F
 Grad file:  H2O_stress_L50_cli.grad
 JSON file:  H2O_stress_L50_cli.json
 Log file:   H2O_stress_L50_cli.log
 Energy CP2K/CLI/absdiff:   -7.643249977456E+01   -7.643249977381E+01    7.536442581113E-10
 Gradient diff sum/max:    3.120248429603E-06    7.957763929062E-07
 Virial diff sum/max:    1.723097649250E-01    1.089000797807E-01
 tblite reference CLI deviation exceeded ERROR_LIMIT =   1.0000E-05

 ENERGY| Total FORCE_EVAL ( QS ) energy [hartree]            -76.432499774560057

 -------------------------------------------------------------------------------
 ----                             MULTIGRID INFO                            ----
 -------------------------------------------------------------------------------
 total grid count     :           420              cutoff [a.u.]            1.00

 PW_GRID| Information for grid number                                          4
 PW_GRID| Cutoff [a.u.]                                                      1.0
 PW_GRID| spherical cutoff:                                                   NO
 PW_GRID|   Bounds   1            -22      22                Points:          45
 PW_GRID|   Bounds   2            -22      22                Points:          45
 PW_GRID|   Bounds   3            -22      22                Points:          45
 PW_GRID| Volume element (a.u.^3)   9.257         Volume (a.u.^3)    843541.8229
 PW_GRID| Grid span                                                    FULLSPACE

 POISSON| Solver                                                        PERIODIC
 POISSON| Periodicity                                                        XYZ

 RS_GRID| Information for grid number                                          4
 RS_GRID|   Bounds   1            -22      22                Points:          45
 RS_GRID|   Bounds   2            -22      22                Points:          45
 RS_GRID|   Bounds   3            -22      22                Points:          45

 Parameters for the always stable predictor-corrector (ASPC) method:

  ASPC order: 1

  B(1) =   2.500000
  B(2) =  -2.000000
  B(3) =   0.500000

 Extrapolation method: ASPC

 Number of electrons:                                                          8
 Number of occupied orbitals:                                                  4
 Number of molecular orbitals:                                                 6

 Number of orbital functions:                                                  6
 Number of independent orbital functions:                                      6


 SCF WAVEFUNCTION OPTIMIZATION

  Step     Update method      Time    Convergence         Total energy    Change
  ------------------------------------------------------------------------------
     1 GXTB-Raw    0.10E+01    0.0     0.00000083       -76.4324998898 -7.64E+01
     2 GXTB-Simple 0.20E+00    0.0     0.00000009       -76.4324998898 -1.42E-14
     3 GXTB-Simple 0.20E+00    0.0     0.00000008       -76.4324998898 -1.42E-14
     4 GXTB-FDIIS  0.10E+01    0.0     0.00000034       -76.4324998898 -1.42E-14
     5 GXTB-FDIIS  0.10E+01    0.0     0.00000002       -76.4324998898 -1.42E-14
     6 GXTB-FDIIS  0.10E+01    0.0     8.0284E-09       -76.4324998898  0.00E+00
     7 GXTB-FDIIS  0.10E+01    0.0     1.4194E-10       -76.4324998898  0.00E+00
     8 GXTB-FDIIS  0.10E+01    0.0     1.7764E-15       -76.4324998898  0.00E+00

  *** SCF run converged in     8 steps ***


  Core Hamiltonian energy:                                     -6.32231996872665
  Repulsive potential energy:                                   0.41026486465279
  Electrostatic energy:                                         0.14457746834662
  Self-consistent dispersion energy:                           -0.00003926022349
  Non-self consistent dispersion energy:                        0.00000009665358
  Correction for halogen bonding:                               0.00000000000000

  Total energy:                                               -76.43249988981387


 MULLIKEN POPULATION ANALYSIS

  # Atom   Element   Kind        Atomic population                    Net charge
       1     O          1                 6.655331                     -0.655331
       2     H          2                 0.672334                      0.327666
       3     H          2                 0.672334                      0.327666
 # Total charge                           8.000000                     -0.000000


 tblite reference CLI check
 Executable: tblite
 Method:     gxtb
 Guess:      auto
 Solver:     gvd
 Spin-pol.:  F
 Grad file:  H2O_stress_L50_cli.grad
 JSON file:  H2O_stress_L50_cli.json
 Log file:   H2O_stress_L50_cli.log
 Energy CP2K/CLI/absdiff:   -7.643249988981E+01   -7.643249988906E+01    7.536442581113E-10
 Gradient diff sum/max:    8.513020718255E-08    2.131240084413E-08
 Virial diff sum/max:    1.723070116210E-01    1.088980643663E-01
 tblite reference CLI deviation exceeded ERROR_LIMIT =   1.0000E-05

 ENERGY| Total FORCE_EVAL ( QS ) energy [hartree]            -76.432499889813869

 -------------------------------------------------------------------------------
 ----                             MULTIGRID INFO                            ----
 -------------------------------------------------------------------------------
 total grid count     :           420              cutoff [a.u.]            1.00

 PW_GRID| Information for grid number                                          5
 PW_GRID| Cutoff [a.u.]                                                      1.0
 PW_GRID| spherical cutoff:                                                   NO
 PW_GRID|   Bounds   1            -22      22                Points:          45
 PW_GRID|   Bounds   2            -22      22                Points:          45
 PW_GRID|   Bounds   3            -22      22                Points:          45
 PW_GRID| Volume element (a.u.^3)   9.257         Volume (a.u.^3)    843541.8229
 PW_GRID| Grid span                                                    FULLSPACE

 POISSON| Solver                                                        PERIODIC
 POISSON| Periodicity                                                        XYZ

 RS_GRID| Information for grid number                                          5
 RS_GRID|   Bounds   1            -22      22                Points:          45
 RS_GRID|   Bounds   2            -22      22                Points:          45
 RS_GRID|   Bounds   3            -22      22                Points:          45

 Parameters for the always stable predictor-corrector (ASPC) method:

  ASPC order: 2

  B(1) =   2.800000
  B(2) =  -2.800000
  B(3) =   1.200000
  B(4) =  -0.200000

 Extrapolation method: ASPC

 Number of electrons:                                                          8
 Number of occupied orbitals:                                                  4
 Number of molecular orbitals:                                                 6

 Number of orbital functions:                                                  6
 Number of independent orbital functions:                                      6


 SCF WAVEFUNCTION OPTIMIZATION

  Step     Update method      Time    Convergence         Total energy    Change
  ------------------------------------------------------------------------------
     1 GXTB-Raw    0.10E+01    0.0     2.4266E-14       -76.4324998898 -7.64E+01

  *** SCF run converged in     1 steps ***


  Core Hamiltonian energy:                                     -6.32231996872664
  Repulsive potential energy:                                   0.41026486465279
  Electrostatic energy:                                         0.14457746834662
  Self-consistent dispersion energy:                           -0.00003926022349
  Non-self consistent dispersion energy:                        0.00000009665358
  Correction for halogen bonding:                               0.00000000000000

  Total energy:                                               -76.43249988981387


 MULLIKEN POPULATION ANALYSIS

  # Atom   Element   Kind        Atomic population                    Net charge
       1     O          1                 6.655331                     -0.655331
       2     H          2                 0.672334                      0.327666
       3     H          2                 0.672334                      0.327666
 # Total charge                           8.000000                      0.000000


 tblite reference CLI check
 Executable: tblite
 Method:     gxtb
 Guess:      auto
 Solver:     gvd
 Spin-pol.:  F
 Grad file:  H2O_stress_L50_cli.grad
 JSON file:  H2O_stress_L50_cli.json
 Log file:   H2O_stress_L50_cli.log
 Energy CP2K/CLI/absdiff:   -7.643249988981E+01   -7.643249988906E+01    7.536442581113E-10
 Gradient diff sum/max:    8.513020719675E-08    2.131240084413E-08
 Virial diff sum/max:    1.723070116210E-01    1.088980643663E-01
 tblite reference CLI deviation exceeded ERROR_LIMIT =   1.0000E-05

 ENERGY| Total FORCE_EVAL ( QS ) energy [hartree]            -76.432499889813869

 -------------------------------------------------------------------------------
 ----                             MULTIGRID INFO                            ----
 -------------------------------------------------------------------------------
 total grid count     :           420              cutoff [a.u.]            1.00

 PW_GRID| Information for grid number                                          6
 PW_GRID| Cutoff [a.u.]                                                      1.0
 PW_GRID| spherical cutoff:                                                   NO
 PW_GRID|   Bounds   1            -22      22                Points:          45
 PW_GRID|   Bounds   2            -22      22                Points:          45
 PW_GRID|   Bounds   3            -22      22                Points:          45
 PW_GRID| Volume element (a.u.^3)   9.257         Volume (a.u.^3)    843541.8229
 PW_GRID| Grid span                                                    FULLSPACE

 POISSON| Solver                                                        PERIODIC
 POISSON| Periodicity                                                        XYZ

 RS_GRID| Information for grid number                                          6
 RS_GRID|   Bounds   1            -22      22                Points:          45
 RS_GRID|   Bounds   2            -22      22                Points:          45
 RS_GRID|   Bounds   3            -22      22                Points:          45

 Parameters for the always stable predictor-corrector (ASPC) method:

  ASPC order: 3

  B(1) =   3.000000
  B(2) =  -3.428571
  B(3) =   1.928571
  B(4) =  -0.571429
  B(5) =   0.071429

 Extrapolation method: ASPC

 Number of electrons:                                                          8
 Number of occupied orbitals:                                                  4
 Number of molecular orbitals:                                                 6

 Number of orbital functions:                                                  6
 Number of independent orbital functions:                                      6


 SCF WAVEFUNCTION OPTIMIZATION

  Step     Update method      Time    Convergence         Total energy    Change
  ------------------------------------------------------------------------------
     1 GXTB-Raw    0.10E+01    0.0     0.00000026       -76.4324998898 -7.64E+01
     2 GXTB-Simple 0.20E+00    0.0     0.00000003       -76.4324998898 -2.84E-14
     3 GXTB-Simple 0.20E+00    0.0     0.00000002       -76.4324998898  0.00E+00
     4 GXTB-FDIIS  0.10E+01    0.0     0.00000011       -76.4324998898 -1.42E-14
     5 GXTB-FDIIS  0.10E+01    0.0     3.7823E-09       -76.4324998898  0.00E+00
     6 GXTB-FDIIS  0.10E+01    0.0     5.0594E-10       -76.4324998898  0.00E+00
     7 GXTB-FDIIS  0.10E+01    0.0     6.0178E-11       -76.4324998898  0.00E+00

  *** SCF run converged in     7 steps ***


  Core Hamiltonian energy:                                     -6.32231996872670
  Repulsive potential energy:                                   0.41026486465335
  Electrostatic energy:                                         0.14457746834664
  Self-consistent dispersion energy:                           -0.00003926022349
  Non-self consistent dispersion energy:                        0.00000009665358
  Correction for halogen bonding:                               0.00000000000000

  Total energy:                                               -76.43249988981343


 MULLIKEN POPULATION ANALYSIS

  # Atom   Element   Kind        Atomic population                    Net charge
       1     O          1                 6.655331                     -0.655331
       2     H          2                 0.672334                      0.327666
       3     H          2                 0.672334                      0.327666
 # Total charge                           8.000000                      0.000000


 tblite reference CLI check
 Executable: tblite
 Method:     gxtb
 Guess:      auto
 Solver:     gvd
 Spin-pol.:  F
 Grad file:  H2O_stress_L50_cli.grad
 JSON file:  H2O_stress_L50_cli.json
 Log file:   H2O_stress_L50_cli.log
 Energy CP2K/CLI/absdiff:   -7.643249988981E+01   -7.643249988906E+01    7.536300472566E-10
 Gradient diff sum/max:    2.410514621784E-06    8.790242173127E-07
 Virial diff sum/max:    1.723086869761E-01    1.088980643668E-01
 tblite reference CLI deviation exceeded ERROR_LIMIT =   1.0000E-05

 ENERGY| Total FORCE_EVAL ( QS ) energy [hartree]            -76.432499889813428

 -------------------------------------------------------------------------------
 ----                             MULTIGRID INFO                            ----
 -------------------------------------------------------------------------------
 total grid count     :           420              cutoff [a.u.]            1.00

 PW_GRID| Information for grid number                                          7
 PW_GRID| Cutoff [a.u.]                                                      1.0
 PW_GRID| spherical cutoff:                                                   NO
 PW_GRID|   Bounds   1            -22      22                Points:          45
 PW_GRID|   Bounds   2            -22      22                Points:          45
 PW_GRID|   Bounds   3            -22      22                Points:          45
 PW_GRID| Volume element (a.u.^3)   9.257         Volume (a.u.^3)    843541.8229
 PW_GRID| Grid span                                                    FULLSPACE

 POISSON| Solver                                                        PERIODIC
 POISSON| Periodicity                                                        XYZ

 RS_GRID| Information for grid number                                          7
 RS_GRID|   Bounds   1            -22      22                Points:          45
 RS_GRID|   Bounds   2            -22      22                Points:          45
 RS_GRID|   Bounds   3            -22      22                Points:          45

 Parameters for the always stable predictor-corrector (ASPC) method:

  ASPC order: 3

  B(1) =   3.000000
  B(2) =  -3.428571
  B(3) =   1.928571
  B(4) =  -0.571429
  B(5) =   0.071429

 Extrapolation method: ASPC

 Number of electrons:                                                          8
 Number of occupied orbitals:                                                  4
 Number of molecular orbitals:                                                 6

 Number of orbital functions:                                                  6
 Number of independent orbital functions:                                      6


 SCF WAVEFUNCTION OPTIMIZATION

  Step     Update method      Time    Convergence         Total energy    Change
  ------------------------------------------------------------------------------
     1 GXTB-Raw    0.10E+01    0.0     0.00000052       -76.4324998898 -7.64E+01
     2 GXTB-Simple 0.20E+00    0.0     0.00000005       -76.4324998898 -4.26E-14
     3 GXTB-Simple 0.20E+00    0.0     0.00000005       -76.4324998898 -2.84E-14
     4 GXTB-FDIIS  0.10E+01    0.0     0.00000021       -76.4324998898 -5.68E-14
     5 GXTB-FDIIS  0.10E+01    0.0     7.5645E-09       -76.4324998898  0.00E+00
     6 GXTB-FDIIS  0.10E+01    0.0     1.0119E-09       -76.4324998898  0.00E+00
     7 GXTB-FDIIS  0.10E+01    0.0     1.2035E-10       -76.4324998898  0.00E+00
     8 GXTB-FDIIS  0.10E+01    0.0     1.7764E-15       -76.4324998898  0.00E+00

  *** SCF run converged in     8 steps ***


  Core Hamiltonian energy:                                     -6.32231996872670
  Repulsive potential energy:                                   0.41026486465335
  Electrostatic energy:                                         0.14457746834664
  Self-consistent dispersion energy:                           -0.00003926022349
  Non-self consistent dispersion energy:                        0.00000009665358
  Correction for halogen bonding:                               0.00000000000000

  Total energy:                                               -76.43249988981343


 MULLIKEN POPULATION ANALYSIS

  # Atom   Element   Kind        Atomic population                    Net charge
       1     O          1                 6.655331                     -0.655331
       2     H          2                 0.672334                      0.327666
       3     H          2                 0.672334                      0.327666
 # Total charge                           8.000000                     -0.000000


 tblite reference CLI check
 Executable: tblite
 Method:     gxtb
 Guess:      auto
 Solver:     gvd
 Spin-pol.:  F
 Grad file:  H2O_stress_L50_cli.grad
 JSON file:  H2O_stress_L50_cli.json
 Log file:   H2O_stress_L50_cli.log
 Energy CP2K/CLI/absdiff:   -7.643249988981E+01   -7.643249988906E+01    7.536300472566E-10
 Gradient diff sum/max:    2.410514610224E-06    8.790242174878E-07
 Virial diff sum/max:    1.723086869761E-01    1.088980643667E-01
 tblite reference CLI deviation exceeded ERROR_LIMIT =   1.0000E-05

 ENERGY| Total FORCE_EVAL ( QS ) energy [hartree]            -76.432499889813428

 -------------------------------------------------------------------------------
 ----                             MULTIGRID INFO                            ----
 -------------------------------------------------------------------------------
 total grid count     :           420              cutoff [a.u.]            1.00

 PW_GRID| Information for grid number                                          8
 PW_GRID| Cutoff [a.u.]                                                      1.0
 PW_GRID| spherical cutoff:                                                   NO
 PW_GRID|   Bounds   1            -22      22                Points:          45
 PW_GRID|   Bounds   2            -22      22                Points:          45
 PW_GRID|   Bounds   3            -22      22                Points:          45
 PW_GRID| Volume element (a.u.^3)   9.257         Volume (a.u.^3)    843541.8229
 PW_GRID| Grid span                                                    FULLSPACE

 POISSON| Solver                                                        PERIODIC
 POISSON| Periodicity                                                        XYZ

 RS_GRID| Information for grid number                                          8
 RS_GRID|   Bounds   1            -22      22                Points:          45
 RS_GRID|   Bounds   2            -22      22                Points:          45
 RS_GRID|   Bounds   3            -22      22                Points:          45

 Parameters for the always stable predictor-corrector (ASPC) method:

  ASPC order: 3

  B(1) =   3.000000
  B(2) =  -3.428571
  B(3) =   1.928571
  B(4) =  -0.571429
  B(5) =   0.071429

 Extrapolation method: ASPC

 Number of electrons:                                                          8
 Number of occupied orbitals:                                                  4
 Number of molecular orbitals:                                                 6

 Number of orbital functions:                                                  6
 Number of independent orbital functions:                                      6


 SCF WAVEFUNCTION OPTIMIZATION

  Step     Update method      Time    Convergence         Total energy    Change
  ------------------------------------------------------------------------------
     1 GXTB-Raw    0.10E+01    0.0     0.00000026       -76.4324998898 -7.64E+01
     2 GXTB-Simple 0.20E+00    0.0     0.00000009       -76.4324998898 -2.84E-14
     3 GXTB-Simple 0.20E+00    0.0     0.00000008       -76.4324998898 -2.84E-14
     4 GXTB-FDIIS  0.10E+01    0.0     0.00000040       -76.4324998898 -5.68E-14
     5 GXTB-FDIIS  0.10E+01    0.0     0.00000002       -76.4324998898  0.00E+00
     6 GXTB-FDIIS  0.10E+01    0.0     7.2197E-10       -76.4324998898  0.00E+00
     7 GXTB-FDIIS  0.10E+01    0.0     1.6970E-10       -76.4324998898 -1.42E-14
     8 GXTB-FDIIS  0.10E+01    0.0     2.6232E-12       -76.4324998898  1.42E-14

  *** SCF run converged in     8 steps ***


  Core Hamiltonian energy:                                     -6.32231996872615
  Repulsive potential energy:                                   0.41026486465218
  Electrostatic energy:                                         0.14457746834663
  Self-consistent dispersion energy:                           -0.00003926022349
  Non-self consistent dispersion energy:                        0.00000009665358
  Correction for halogen bonding:                               0.00000000000000

  Total energy:                                               -76.43249988981393


 MULLIKEN POPULATION ANALYSIS

  # Atom   Element   Kind        Atomic population                    Net charge
       1     O          1                 6.655331                     -0.655331
       2     H          2                 0.672334                      0.327666
       3     H          2                 0.672334                      0.327666
 # Total charge                           8.000000                      0.000000


 tblite reference CLI check
 Executable: tblite
 Method:     gxtb
 Guess:      auto
 Solver:     gvd
 Spin-pol.:  F
 Grad file:  H2O_stress_L50_cli.grad
 JSON file:  H2O_stress_L50_cli.json
 Log file:   H2O_stress_L50_cli.log
 Energy CP2K/CLI/absdiff:   -7.643249988981E+01   -7.643249988906E+01    7.536300472566E-10
 Gradient diff sum/max:    1.655249575676E-07    4.019821918877E-08
 Virial diff sum/max:    1.723072421242E-01    1.088980643651E-01
 tblite reference CLI deviation exceeded ERROR_LIMIT =   1.0000E-05

 ENERGY| Total FORCE_EVAL ( QS ) energy [hartree]            -76.432499889813926

 -------------------------------------------------------------------------------
 ----                             MULTIGRID INFO                            ----
 -------------------------------------------------------------------------------
 total grid count     :           420              cutoff [a.u.]            1.00

 PW_GRID| Information for grid number                                          9
 PW_GRID| Cutoff [a.u.]                                                      1.0
 PW_GRID| spherical cutoff:                                                   NO
 PW_GRID|   Bounds   1            -22      22                Points:          45
 PW_GRID|   Bounds   2            -22      22                Points:          45
 PW_GRID|   Bounds   3            -22      22                Points:          45
 PW_GRID| Volume element (a.u.^3)   9.257         Volume (a.u.^3)    843541.8229
 PW_GRID| Grid span                                                    FULLSPACE

 POISSON| Solver                                                        PERIODIC
 POISSON| Periodicity                                                        XYZ

 RS_GRID| Information for grid number                                          9
 RS_GRID|   Bounds   1            -22      22                Points:          45
 RS_GRID|   Bounds   2            -22      22                Points:          45
 RS_GRID|   Bounds   3            -22      22                Points:          45

 Parameters for the always stable predictor-corrector (ASPC) method:

  ASPC order: 3

  B(1) =   3.000000
  B(2) =  -3.428571
  B(3) =   1.928571
  B(4) =  -0.571429
  B(5) =   0.071429

 Extrapolation method: ASPC

 Number of electrons:                                                          8
 Number of occupied orbitals:                                                  4
 Number of molecular orbitals:                                                 6

 Number of orbital functions:                                                  6
 Number of independent orbital functions:                                      6


 SCF WAVEFUNCTION OPTIMIZATION

  Step     Update method      Time    Convergence         Total energy    Change
  ------------------------------------------------------------------------------
     1 GXTB-Raw    0.10E+01    0.0     0.00000043       -76.4324998898 -7.64E+01
     2 GXTB-Simple 0.20E+00    0.0     0.00000019       -76.4324998898 -9.95E-14
     3 GXTB-Simple 0.20E+00    0.0     0.00000016       -76.4324998898 -8.53E-14
     4 GXTB-FDIIS  0.10E+01    0.0     0.00000081       -76.4324998898 -1.99E-13
     5 GXTB-FDIIS  0.10E+01    0.0     0.00000003       -76.4324998898  0.00E+00
     6 GXTB-FDIIS  0.10E+01    0.0     8.3267E-14       -76.4324998898 -1.42E-14

  *** SCF run converged in     6 steps ***


  Core Hamiltonian energy:                                     -6.32231996872616
  Repulsive potential energy:                                   0.41026486465218
  Electrostatic energy:                                         0.14457746834664
  Self-consistent dispersion energy:                           -0.00003926022349
  Non-self consistent dispersion energy:                        0.00000009665358
  Correction for halogen bonding:                               0.00000000000000

  Total energy:                                               -76.43249988981394


 MULLIKEN POPULATION ANALYSIS

  # Atom   Element   Kind        Atomic population                    Net charge
       1     O          1                 6.655331                     -0.655331
       2     H          2                 0.672334                      0.327666
       3     H          2                 0.672334                      0.327666
 # Total charge                           8.000000                     -0.000000


 tblite reference CLI check
 Executable: tblite
 Method:     gxtb
 Guess:      auto
 Solver:     gvd
 Spin-pol.:  F
 Grad file:  H2O_stress_L50_cli.grad
 JSON file:  H2O_stress_L50_cli.json
 Log file:   H2O_stress_L50_cli.log
 Energy CP2K/CLI/absdiff:   -7.643249988981E+01   -7.643249988906E+01    7.536442581113E-10
 Gradient diff sum/max:    1.655249575818E-07    4.019821919587E-08
 Virial diff sum/max:    1.723072421242E-01    1.088980643651E-01
 tblite reference CLI deviation exceeded ERROR_LIMIT =   1.0000E-05

 ENERGY| Total FORCE_EVAL ( QS ) energy [hartree]            -76.432499889813940

 -------------------------------------------------------------------------------
 ----                             MULTIGRID INFO                            ----
 -------------------------------------------------------------------------------
 total grid count     :           420              cutoff [a.u.]            1.00

 PW_GRID| Information for grid number                                         10
 PW_GRID| Cutoff [a.u.]                                                      1.0
 PW_GRID| spherical cutoff:                                                   NO
 PW_GRID|   Bounds   1            -22      22                Points:          45
 PW_GRID|   Bounds   2            -22      22                Points:          45
 PW_GRID|   Bounds   3            -22      22                Points:          45
 PW_GRID| Volume element (a.u.^3)   9.257         Volume (a.u.^3)    843542.7157
 PW_GRID| Grid span                                                    FULLSPACE

 POISSON| Solver                                                        PERIODIC
 POISSON| Periodicity                                                        XYZ

 RS_GRID| Information for grid number                                         10
 RS_GRID|   Bounds   1            -22      22                Points:          45
 RS_GRID|   Bounds   2            -22      22                Points:          45
 RS_GRID|   Bounds   3            -22      22                Points:          45

 Parameters for the always stable predictor-corrector (ASPC) method:

  ASPC order: 3

  B(1) =   3.000000
  B(2) =  -3.428571
  B(3) =   1.928571
  B(4) =  -0.571429
  B(5) =   0.071429

 Extrapolation method: ASPC

 Number of electrons:                                                          8
 Number of occupied orbitals:                                                  4
 Number of molecular orbitals:                                                 6

 Number of orbital functions:                                                  6
 Number of independent orbital functions:                                      6


 SCF WAVEFUNCTION OPTIMIZATION

  Step     Update method      Time    Convergence         Total energy    Change
  ------------------------------------------------------------------------------
     1 GXTB-Raw    0.10E+01    0.0     0.00000021       -76.4324998898 -7.64E+01
     2 GXTB-Simple 0.20E+00    0.0     0.00000009       -76.4324998898 -2.84E-14
     3 GXTB-Simple 0.20E+00    0.0     0.00000008       -76.4324998898 -1.42E-14
     4 GXTB-FDIIS  0.10E+01    0.0     0.00000041       -76.4324998898 -5.68E-14
     5 GXTB-FDIIS  0.10E+01    0.0     0.00000002       -76.4324998898  1.42E-14
     6 GXTB-FDIIS  0.10E+01    0.0     2.8355E-13       -76.4324998898 -1.42E-14

  *** SCF run converged in     6 steps ***


  Core Hamiltonian energy:                                     -6.32231996872788
  Repulsive potential energy:                                   0.41026486465277
  Electrostatic energy:                                         0.14457746834711
  Self-consistent dispersion energy:                           -0.00003926022349
  Non-self consistent dispersion energy:                        0.00000009665358
  Correction for halogen bonding:                               0.00000000000000

  Total energy:                                               -76.43249988981431


 MULLIKEN POPULATION ANALYSIS

  # Atom   Element   Kind        Atomic population                    Net charge
       1     O          1                 6.655331                     -0.655331
       2     H          2                 0.672334                      0.327666
       3     H          2                 0.672334                      0.327666
 # Total charge                           8.000000                     -0.000000


 tblite reference CLI check
 Executable: tblite
 Method:     gxtb
 Guess:      auto
 Solver:     gvd
 Spin-pol.:  F
 Grad file:  H2O_stress_L50_cli.grad
 JSON file:  H2O_stress_L50_cli.json
 Log file:   H2O_stress_L50_cli.log
 Energy CP2K/CLI/absdiff:   -7.643249988981E+01   -7.643249988906E+01    7.536300472566E-10
 Gradient diff sum/max:    8.513303266648E-08    2.131379778225E-08
 Virial diff sum/max:    1.723070116235E-01    1.088980643661E-01
 tblite reference CLI deviation exceeded ERROR_LIMIT =   1.0000E-05

 ENERGY| Total FORCE_EVAL ( QS ) energy [hartree]            -76.432499889814309

 -------------------------------------------------------------------------------
 ----                             MULTIGRID INFO                            ----
 -------------------------------------------------------------------------------
 total grid count     :           420              cutoff [a.u.]            1.00

 PW_GRID| Information for grid number                                         11
 PW_GRID| Cutoff [a.u.]                                                      1.0
 PW_GRID| spherical cutoff:                                                   NO
 PW_GRID|   Bounds   1            -22      22                Points:          45
 PW_GRID|   Bounds   2            -22      22                Points:          45
 PW_GRID|   Bounds   3            -22      22                Points:          45
 PW_GRID| Volume element (a.u.^3)   9.257         Volume (a.u.^3)    843540.9301
 PW_GRID| Grid span                                                    FULLSPACE

 POISSON| Solver                                                        PERIODIC
 POISSON| Periodicity                                                        XYZ

 RS_GRID| Information for grid number                                         11
 RS_GRID|   Bounds   1            -22      22                Points:          45
 RS_GRID|   Bounds   2            -22      22                Points:          45
 RS_GRID|   Bounds   3            -22      22                Points:          45

 Parameters for the always stable predictor-corrector (ASPC) method:

  ASPC order: 3

  B(1) =   3.000000
  B(2) =  -3.428571
  B(3) =   1.928571
  B(4) =  -0.571429
  B(5) =   0.071429

 Extrapolation method: ASPC

 Number of electrons:                                                          8
 Number of occupied orbitals:                                                  4
 Number of molecular orbitals:                                                 6

 Number of orbital functions:                                                  6
 Number of independent orbital functions:                                      6


 SCF WAVEFUNCTION OPTIMIZATION

  Step     Update method      Time    Convergence         Total energy    Change
  ------------------------------------------------------------------------------
     1 GXTB-Raw    0.10E+01    0.0     7.0595E-12       -76.4324998898 -7.64E+01

  *** SCF run converged in     1 steps ***


  Core Hamiltonian energy:                                     -6.32231996872450
  Repulsive potential energy:                                   0.41026486465284
  Electrostatic energy:                                         0.14457746834476
  Self-consistent dispersion energy:                           -0.00003926022349
  Non-self consistent dispersion energy:                        0.00000009665358
  Correction for halogen bonding:                               0.00000000000000

  Total energy:                                               -76.43249988981343


 MULLIKEN POPULATION ANALYSIS

  # Atom   Element   Kind        Atomic population                    Net charge
       1     O          1                 6.655331                     -0.655331
       2     H          2                 0.672334                      0.327666
       3     H          2                 0.672334                      0.327666
 # Total charge                           8.000000                      0.000000


 tblite reference CLI check
 Executable: tblite
 Method:     gxtb
 Guess:      auto
 Solver:     gvd
 Spin-pol.:  F
 Grad file:  H2O_stress_L50_cli.grad
 JSON file:  H2O_stress_L50_cli.json
 Log file:   H2O_stress_L50_cli.log
 Energy CP2K/CLI/absdiff:   -7.643249988981E+01   -7.643249988906E+01    7.536300472566E-10
 Gradient diff sum/max:    8.512739533368E-08    2.131101713154E-08
 Virial diff sum/max:    1.723070116178E-01    1.088980645072E-01
 tblite reference CLI deviation exceeded ERROR_LIMIT =   1.0000E-05

 ENERGY| Total FORCE_EVAL ( QS ) energy [hartree]            -76.432499889813428

 -------------------------------------------------------------------------------
 ----                             MULTIGRID INFO                            ----
 -------------------------------------------------------------------------------
 total grid count     :           420              cutoff [a.u.]            1.00

 PW_GRID| Information for grid number                                         12
 PW_GRID| Cutoff [a.u.]                                                      1.0
 PW_GRID| spherical cutoff:                                                   NO
 PW_GRID|   Bounds   1            -22      22                Points:          45
 PW_GRID|   Bounds   2            -22      22                Points:          45
 PW_GRID|   Bounds   3            -22      22                Points:          45
 PW_GRID| Volume element (a.u.^3)   9.257         Volume (a.u.^3)    843541.8229
 PW_GRID| Grid span                                                    FULLSPACE

 POISSON| Solver                                                        PERIODIC
 POISSON| Periodicity                                                        XYZ

 RS_GRID| Information for grid number                                         12
 RS_GRID|   Bounds   1            -22      22                Points:          45
 RS_GRID|   Bounds   2            -22      22                Points:          45
 RS_GRID|   Bounds   3            -22      22                Points:          45

 Parameters for the always stable predictor-corrector (ASPC) method:

  ASPC order: 3

  B(1) =   3.000000
  B(2) =  -3.428571
  B(3) =   1.928571
  B(4) =  -0.571429
  B(5) =   0.071429

 Extrapolation method: ASPC

 Number of electrons:                                                          8
 Number of occupied orbitals:                                                  4
 Number of molecular orbitals:                                                 6

 Number of orbital functions:                                                  6
 Number of independent orbital functions:                                      6


 SCF WAVEFUNCTION OPTIMIZATION

  Step     Update method      Time    Convergence         Total energy    Change
  ------------------------------------------------------------------------------
     1 GXTB-Raw    0.10E+01    0.0     0.00000017       -76.4324998898 -7.64E+01
     2 GXTB-Simple 0.20E+00    0.0     0.00000006       -76.4324998898 -1.42E-14
     3 GXTB-Simple 0.20E+00    0.0     0.00000005       -76.4324998898 -1.42E-14
     4 GXTB-FDIIS  0.10E+01    0.0     0.00000026       -76.4324998898 -1.42E-14
     5 GXTB-FDIIS  0.10E+01    0.0     6.2588E-09       -76.4324998898  0.00E+00
     6 GXTB-FDIIS  0.10E+01    0.0     5.3701E-13       -76.4324998898 -1.42E-14

  *** SCF run converged in     6 steps ***


  Core Hamiltonian energy:                                     -6.32231996872639
  Repulsive potential energy:                                   0.41026486465253
  Electrostatic energy:                                         0.14457746834661
  Self-consistent dispersion energy:                           -0.00003926022349
  Non-self consistent dispersion energy:                        0.00000009665358
  Correction for halogen bonding:                               0.00000000000000

  Total energy:                                               -76.43249988981391


 MULLIKEN POPULATION ANALYSIS

  # Atom   Element   Kind        Atomic population                    Net charge
       1     O          1                 6.655331                     -0.655331
       2     H          2                 0.672334                      0.327666
       3     H          2                 0.672334                      0.327666
 # Total charge                           8.000000                     -0.000000


 tblite reference CLI check
 Executable: tblite
 Method:     gxtb
 Guess:      auto
 Solver:     gvd
 Spin-pol.:  F
 Grad file:  H2O_stress_L50_cli.grad
 JSON file:  H2O_stress_L50_cli.json
 Log file:   H2O_stress_L50_cli.log
 Energy CP2K/CLI/absdiff:   -7.643249988981E+01   -7.643249988906E+01    7.536442581113E-10
 Gradient diff sum/max:    2.259853201085E-07    7.042796840307E-08
 Virial diff sum/max:    1.723071458438E-01    1.088980643659E-01
 tblite reference CLI deviation exceeded ERROR_LIMIT =   1.0000E-05

 ENERGY| Total FORCE_EVAL ( QS ) energy [hartree]            -76.432499889813911

 -------------------------------------------------------------------------------
 ----                             MULTIGRID INFO                            ----
 -------------------------------------------------------------------------------
 total grid count     :           420              cutoff [a.u.]            1.00

 PW_GRID| Information for grid number                                         13
 PW_GRID| Cutoff [a.u.]                                                      1.0
 PW_GRID| spherical cutoff:                                                   NO
 PW_GRID|   Bounds   1            -22      22                Points:          45
 PW_GRID|   Bounds   2            -22      22                Points:          45
 PW_GRID|   Bounds   3            -22      22                Points:          45
 PW_GRID| Volume element (a.u.^3)   9.257         Volume (a.u.^3)    843541.8229
 PW_GRID| Grid span                                                    FULLSPACE

 POISSON| Solver                                                        PERIODIC
 POISSON| Periodicity                                                        XYZ

 RS_GRID| Information for grid number                                         13
 RS_GRID|   Bounds   1            -22      22                Points:          45
 RS_GRID|   Bounds   2            -22      22                Points:          45
 RS_GRID|   Bounds   3            -22      22                Points:          45

 Parameters for the always stable predictor-corrector (ASPC) method:

  ASPC order: 3

  B(1) =   3.000000
  B(2) =  -3.428571
  B(3) =   1.928571
  B(4) =  -0.571429
  B(5) =   0.071429

 Extrapolation method: ASPC

 Number of electrons:                                                          8
 Number of occupied orbitals:                                                  4
 Number of molecular orbitals:                                                 6

 Number of orbital functions:                                                  6
 Number of independent orbital functions:                                      6


 SCF WAVEFUNCTION OPTIMIZATION

  Step     Update method      Time    Convergence         Total energy    Change
  ------------------------------------------------------------------------------
     1 GXTB-Raw    0.10E+01    0.0     0.00000034       -76.4324998898 -7.64E+01
     2 GXTB-Simple 0.20E+00    0.0     0.00000012       -76.4324998898 -5.68E-14
     3 GXTB-Simple 0.20E+00    0.0     0.00000010       -76.4324998898 -2.84E-14
     4 GXTB-FDIIS  0.10E+01    0.0     0.00000052       -76.4324998898 -8.53E-14
     5 GXTB-FDIIS  0.10E+01    0.0     0.00000001       -76.4324998898  0.00E+00
     6 GXTB-FDIIS  0.10E+01    0.0     3.9857E-14       -76.4324998898 -1.42E-14

  *** SCF run converged in     6 steps ***


  Core Hamiltonian energy:                                     -6.32231996872638
  Repulsive potential energy:                                   0.41026486465253
  Electrostatic energy:                                         0.14457746834661
  Self-consistent dispersion energy:                           -0.00003926022349
  Non-self consistent dispersion energy:                        0.00000009665358
  Correction for halogen bonding:                               0.00000000000000

  Total energy:                                               -76.43249988981391


 MULLIKEN POPULATION ANALYSIS

  # Atom   Element   Kind        Atomic population                    Net charge
       1     O          1                 6.655331                     -0.655331
       2     H          2                 0.672334                      0.327666
       3     H          2                 0.672334                      0.327666
 # Total charge                           8.000000                     -0.000000


 tblite reference CLI check
 Executable: tblite
 Method:     gxtb
 Guess:      auto
 Solver:     gvd
 Spin-pol.:  F
 Grad file:  H2O_stress_L50_cli.grad
 JSON file:  H2O_stress_L50_cli.json
 Log file:   H2O_stress_L50_cli.log
 Energy CP2K/CLI/absdiff:   -7.643249988981E+01   -7.643249988906E+01    7.536442581113E-10
 Gradient diff sum/max:    2.259853200549E-07    7.042796837623E-08
 Virial diff sum/max:    1.723071458438E-01    1.088980643659E-01
 tblite reference CLI deviation exceeded ERROR_LIMIT =   1.0000E-05

 ENERGY| Total FORCE_EVAL ( QS ) energy [hartree]            -76.432499889813911

 -------------------------------------------------------------------------------
 ----                             MULTIGRID INFO                            ----
 -------------------------------------------------------------------------------
 total grid count     :           420              cutoff [a.u.]            1.00

 PW_GRID| Information for grid number                                         14
 PW_GRID| Cutoff [a.u.]                                                      1.0
 PW_GRID| spherical cutoff:                                                   NO
 PW_GRID|   Bounds   1            -22      22                Points:          45
 PW_GRID|   Bounds   2            -22      22                Points:          45
 PW_GRID|   Bounds   3            -22      22                Points:          45
 PW_GRID| Volume element (a.u.^3)   9.257         Volume (a.u.^3)    843541.8229
 PW_GRID| Grid span                                                    FULLSPACE

 POISSON| Solver                                                        PERIODIC
 POISSON| Periodicity                                                        XYZ

 RS_GRID| Information for grid number                                         14
 RS_GRID|   Bounds   1            -22      22                Points:          45
 RS_GRID|   Bounds   2            -22      22                Points:          45
 RS_GRID|   Bounds   3            -22      22                Points:          45

 Parameters for the always stable predictor-corrector (ASPC) method:

  ASPC order: 3

  B(1) =   3.000000
  B(2) =  -3.428571
  B(3) =   1.928571
  B(4) =  -0.571429
  B(5) =   0.071429

 Extrapolation method: ASPC

 Number of electrons:                                                          8
 Number of occupied orbitals:                                                  4
[...]
     7 GXTB-FDIIS  0.10E+01    0.0     7.1112E-12       -76.4324998227  0.00E+00

  *** SCF run converged in     7 steps ***


  Core Hamiltonian energy:                                     -6.32232046192595
  Repulsive potential energy:                                   0.41026536523332
  Electrostatic energy:                                         0.14457748931330
  Self-consistent dispersion energy:                           -0.00003926019898
  Non-self consistent dispersion energy:                        0.00000009665235
  Correction for halogen bonding:                               0.00000000000000

  Total energy:                                               -76.43249982270495


 MULLIKEN POPULATION ANALYSIS

  # Atom   Element   Kind        Atomic population                    Net charge
       1     O          1                 6.655331                     -0.655331
       2     H          2                 0.672334                      0.327666
       3     H          2                 0.672334                      0.327666
 # Total charge                           8.000000                      0.000000


 tblite reference CLI check
 Executable: tblite
 Method:     gxtb
 Guess:      auto
 Solver:     gvd
 Spin-pol.:  F
 Grad file:  H2O_stress_L50_cli.grad
 JSON file:  H2O_stress_L50_cli.json
 Log file:   H2O_stress_L50_cli.log
 Energy CP2K/CLI/absdiff:   -7.643249982270E+01   -7.643249982195E+01    7.536300472566E-10
 Gradient diff sum/max:    1.489043253283E-06    4.658545759567E-07
 Virial diff sum/max:    1.723081061593E-01    1.088988025360E-01
 tblite reference CLI deviation exceeded ERROR_LIMIT =   1.0000E-05

 ENERGY| Total FORCE_EVAL ( QS ) energy [hartree]            -76.432499822704955

 -------------------------------------------------------------------------------
 ----                             MULTIGRID INFO                            ----
 -------------------------------------------------------------------------------
 total grid count     :           420              cutoff [a.u.]            1.00

 PW_GRID| Information for grid number                                         20
 PW_GRID| Cutoff [a.u.]                                                      1.0
 PW_GRID| spherical cutoff:                                                   NO
 PW_GRID|   Bounds   1            -22      22                Points:          45
 PW_GRID|   Bounds   2            -22      22                Points:          45
 PW_GRID|   Bounds   3            -22      22                Points:          45
 PW_GRID| Volume element (a.u.^3)   9.257         Volume (a.u.^3)    843541.8229
 PW_GRID| Grid span                                                    FULLSPACE

 POISSON| Solver                                                        PERIODIC
 POISSON| Periodicity                                                        XYZ

 RS_GRID| Information for grid number                                         20
 RS_GRID|   Bounds   1            -22      22                Points:          45
 RS_GRID|   Bounds   2            -22      22                Points:          45
 RS_GRID|   Bounds   3            -22      22                Points:          45

 Parameters for the always stable predictor-corrector (ASPC) method:

  ASPC order: 3

  B(1) =   3.000000
  B(2) =  -3.428571
  B(3) =   1.928571
  B(4) =  -0.571429
  B(5) =   0.071429

 Extrapolation method: ASPC

 Number of electrons:                                                          8
 Number of occupied orbitals:                                                  4
 Number of molecular orbitals:                                                 6

 Number of orbital functions:                                                  6
 Number of independent orbital functions:                                      6


 SCF WAVEFUNCTION OPTIMIZATION

  Step     Update method      Time    Convergence         Total energy    Change
  ------------------------------------------------------------------------------
     1 GXTB-Raw    0.10E+01    0.0     0.00000027       -76.4324998898 -7.64E+01
     2 GXTB-Simple 0.20E+00    0.0     0.00000008       -76.4324998898  0.00E+00
     3 GXTB-Simple 0.20E+00    0.0     0.00000006       -76.4324998898  0.00E+00
     4 GXTB-FDIIS  0.10E+01    0.0     0.00000029       -76.4324998898 -2.84E-14
     5 GXTB-FDIIS  0.10E+01    0.0     0.00000002       -76.4324998898  0.00E+00
     6 GXTB-FDIIS  0.10E+01    0.0     7.9216E-09       -76.4324998898  0.00E+00
     7 GXTB-FDIIS  0.10E+01    0.0     3.5578E-12       -76.4324998898  0.00E+00

  *** SCF run converged in     7 steps ***


  Core Hamiltonian energy:                                     -6.32231996872664
  Repulsive potential energy:                                   0.41026486465279
  Electrostatic energy:                                         0.14457746834662
  Self-consistent dispersion energy:                           -0.00003926022349
  Non-self consistent dispersion energy:                        0.00000009665358
  Correction for halogen bonding:                               0.00000000000000

  Total energy:                                               -76.43249988981387


 MULLIKEN POPULATION ANALYSIS

  # Atom   Element   Kind        Atomic population                    Net charge
       1     O          1                 6.655331                     -0.655331
       2     H          2                 0.672334                      0.327666
       3     H          2                 0.672334                      0.327666
 # Total charge                           8.000000                      0.000000


 tblite reference CLI check
 Executable: tblite
 Method:     gxtb
 Guess:      auto
 Solver:     gvd
 Spin-pol.:  F
 Grad file:  H2O_stress_L50_cli.grad
 JSON file:  H2O_stress_L50_cli.json
 Log file:   H2O_stress_L50_cli.log
 Energy CP2K/CLI/absdiff:   -7.643249988981E+01   -7.643249988906E+01    7.536300472566E-10
 Gradient diff sum/max:    8.513021725131E-08    2.131240843528E-08
 Virial diff sum/max:    1.723070116206E-01    1.088980643663E-01
 tblite reference CLI deviation exceeded ERROR_LIMIT =   1.0000E-05

 ENERGY| Total FORCE_EVAL ( QS ) energy [hartree]            -76.432499889813869
 DEBUG| Numerical pv_virial [a.u.]
 DEBUG|                   0.108898002591     -0.000000003357      0.000000000000
 DEBUG|                  -0.000000003357      0.000000416247      0.000000000000
 DEBUG|                   0.000000000000      0.000000000000      0.063408526127

 DEBUG| Analytical pv_virial [a.u.]
 DEBUG|                   0.108898003909     -0.000000000000     -0.000000000000
 DEBUG|                  -0.000000000000      0.000000412934     -0.000000000000
 DEBUG|                  -0.000000000000     -0.000000000000      0.063408514289

 DEBUG| Difference pv_virial [a.u.]
 DEBUG|                  -0.000000001317     -0.000000003357      0.000000000000
 DEBUG|                  -0.000000003357      0.000000003313      0.000000000000
 DEBUG|                   0.000000000000      0.000000000000      0.000000011838
 DEBUG| Sum of differences                                        0.000000023182

 DEBUG| Relative error pv_virial
 DEBUG| Threshold value for error check [a.u.]                    1.00000000E-05
 DEBUG|                          -0.00 %                 - %                 - %
 DEBUG|                              - %                 - %                 - %
 DEBUG|                              - %                 - %              0.00 %
 DEBUG| Maximum accepted error                                            0.20 %

 -------------------------------------------------------------------------------
 -                                                                             -
 -                                DBCSR STATISTICS                             -
 -                                                                             -
 -------------------------------------------------------------------------------
 COUNTER                                    TOTAL       BLAS       SMM       ACC
 flops     1 x     6 x     1                 3168     100.0%      0.0%      0.0%     
 flops     1 x     1 x     6                 5292     100.0%      0.0%      0.0%     
 flops     4 x     6 x     1                 6336     100.0%      0.0%      0.0%     
 flops     1 x     6 x     4                 6336     100.0%      0.0%      0.0%     
 flops     4 x     1 x     6                 7056     100.0%      0.0%      0.0%     
 flops     1 x     4 x     6                 7056     100.0%      0.0%      0.0%     
 flops     4 x     6 x     4                12672     100.0%      0.0%      0.0%     
 flops     4 x     4 x     6                28224     100.0%      0.0%      0.0%     
 flops inhomo. stacks                           0       0.0%      0.0%      0.0%
 flops total                        76.140000E+03     100.0%      0.0%      0.0%
 flops max/rank                     76.140000E+03     100.0%      0.0%      0.0%
 matmuls inhomo. stacks                         0       0.0%      0.0%      0.0%
 matmuls total                               1476     100.0%      0.0%      0.0%
 number of processed stacks                   852     100.0%      0.0%      0.0%
 average stack size                                     1.7       0.0       0.0
 marketing flops                    70.848000E+03
 -------------------------------------------------------------------------------
 # multiplications                            213
 max memory usage/rank               9.891869E+09
 # max total images/rank                        1
 # max 3D layers                                1
 # MPI messages exchanged                       0
 -------------------------------------------------------------------------------
 -                                                                             -
 -                      DBCSR MESSAGE PASSING PERFORMANCE                      -
 -                                                                             -
 -------------------------------------------------------------------------------
 ROUTINE             CALLS      AVE VOLUME [Bytes]
 MP_Bcast                9                     12.
 MP_Allreduce          968                      9.
 MP_Alltoall          5502                    254.
 MP_ISend              852                     79.
 MP_IRecv              852                     79.
 -------------------------------------------------------------------------------

 -------------------------------------------------------------------------------
 -                                                                             -
 -                          OFFLOAD MEMPOOL STATISTICS                         -
 -                                                                             -
 -------------------------------------------------------------------------------
 Memory consumption                Number of allocations  Used [MiB]  Size [MiB]
 Host                                                  1           1           0
 -------------------------------------------------------------------------------

 MEMORY| Estimated peak process memory [MiB]                                 128

 -------------------------------------------------------------------------------
 ----                             MULTIGRID INFO                            ----
 -------------------------------------------------------------------------------
 total grid count     :           420              cutoff [a.u.]            1.00

 -------------------------------------------------------------------------------
 -                                                                             -
 -                         MESSAGE PASSING PERFORMANCE                         -
 -                                                                             -
 -------------------------------------------------------------------------------

 ROUTINE             CALLS      AVE VOLUME [Bytes]
 MP_Group               20
 MP_Bcast              254                     26.
 MP_Allreduce         4208                     50.
 MP_Sync               147
 MP_comm_split         127
 -------------------------------------------------------------------------------


 -------------------------------------------------------------------------------
 -                                                                             -
 -                           R E F E R E N C E S                               -
 -                                                                             -
 -------------------------------------------------------------------------------
 
 CP2K version 2026.2 (Development Version), the CP2K developers group (2026).
 CP2K is freely available from https://www.cp2k.org/ .
 
 M. Iannuzzi, J. Wilhelm, F. Stein, A. Bussy, H. Elgabarty, D. Golze, A. Hehn, 
 M. Graml, S. Marek, B. Sertcan Gökmen, C. Schran, H. Forbert, R. Z. 
 Khaliullin, A. Kozhevnikov, M. Taillefumier, R. Meli, V. V. Rybkin, M. Brehm, 
 R. Schade, O. Schütt, J. V. Pototschnig, H. Mirhosseini, A. Knüpfer, D. Marx, 
 M. Krack, J. Hutter, T. D. Kühne.
 J. Phys. Chem. B 130, 1237-1310 (2026).
 The CP2K Program Package Made Simple.
 https://doi.org/10.1021/acs.jpcb.5c05851

 A. Katbashev, M. Stahn, T. Rose, V. Alizadeh, M. Friede, C. Plett, P. 
 Steinbach, S. Ehlert.
 J. Phys. Chem. A 129, 2667-2682 (2025).
 Overview on Building Blocks and Applications of Efficient and Robust Extended 
 Tight Binding.
 https://doi.org/10.1021/acs.jpca.4c08263

 T. D. Kühne, M. Iannuzzi, M. Del Ben, V. V. Rybkin, P. Seewald, F. Stein, T. 
 Laino, R. Z. Khaliullin, O. Schütt, F. Schiffmann, D. Golze, J. Wilhelm, S. 
 Chulkov, M. H. Bani-Hashemian, V. Weber, U. Borstnik, M. Taillefumier, A. S. 
 Jakobovits, A. Lazzaro, H. Pabst, T. Müller, R. Schade, M. Guidon, S. 
 Andermatt, N. Holmberg, G. K. Schenter, A. Hehn, A. Bussy, F. Belleflamme, G. 
 Tabacchi, A. Glöß, M. Lass, I. Bethune, C. J. Mundy, C. Plessl, M. Watkins, 
 J. VandeVondele, M. Krack, J. Hutter.
 J. Chem. Phys. 152, 194103 (2020).
 CP2K: An electronic structure and molecular dynamics software package - 
 Quickstep: Efficient and accurate electronic structure calculations.
 https://doi.org/10.1063/5.0007045

 P. Pracht, E. Caldeweyher, S. Ehlert, S. Grimme.
 ChemRxiv, (2019).
 A Robust Non-Self-Consistent Tight-Binding Quantum Chemistry Method for large 
 Molecules.
 https://doi.org/10.26434/chemrxiv.8326202.v1

 S. Grimme, C. Bannwarth, P. Shushkov.
 J. Chem. Theory Comput. 13, 1989 (2017).
 A Robust and Accurate Tight-Binding Quantum Chemical Method for Structures, 
 Vibrational Frequencies, and Noncovalent Interactions of Large Molecular 
 Systems Parametrized for All spd-Block Elements (Z = 1-86).
 https://doi.org/10.1021/acs.jctc.7b00118

 O. Schuett, P. Messmer, J. Hutter, J. VandeVondele.
 Electronic Structure Calculations on Graphics Processing Units, 173-190 (2016).
 GPU-Accelerated Sparse Matrix-Matrix Multiplication for Linear Scaling Density 
 Functional Theory.
 https://doi.org/10.1002/9781118670712.ch8

 U. Borstnik, J. VandeVondele, V. Weber, J. Hutter.
 Parallel Comput. 40, 47-58 (2014).
 Sparse matrix multiplication: The distributed block-compressed sparse row 
 library.
 https://doi.org/10.1016/j.parco.2014.03.012

 T. D. Kühne, M. Krack, F. R. Mohamed, M. Parrinello.
 Phys. Rev. Lett. 98, 066401 (2007).
 Efficient and accurate Car-Parrinello-like approach to Born-Oppenheimer 
 molecular dynamics.
 https://doi.org/10.1103/PhysRevLett.98.066401

 M. Frigo, S. G. Johnson.
 Proc. IEEE 93, 216-231 (2005).
 The design and implementation of FFTW3.
 https://doi.org/10.1109/JPROC.2004.840301

 J. Kolafa.
 J. Comput. Chem. 25, 335-342 (2004).
 Time-reversible always stable predictor-corrector method for molecular dynamics 
 of polarizable molecules.
 https://doi.org/10.1002/jcc.10385


 -------------------------------------------------------------------------------
 -                                                                             -
 -                                T I M I N G                                  -
 -                                                                             -
 -------------------------------------------------------------------------------
 SUBROUTINE                       CALLS  ASD         SELF TIME        TOTAL TIME
                                MAXIMUM       AVERAGE  MAXIMUM  AVERAGE  MAXIMUM
 CP2K                                 1  1.0    0.004    0.004    0.714    0.714
 qs_energies                         20  2.0    0.001    0.001    0.673    0.673
 qs_env_rebuild_pw_env               22  3.1    0.000    0.000    0.237    0.237
 pw_env_rebuild                      20  4.0    0.001    0.001    0.237    0.237
 tb_reference_cli_compare            20  3.0    0.237    0.237    0.237    0.237
 pw_grid_setup                       20  5.0    0.000    0.000    0.231    0.231
 pw_grid_setup_internal              20  6.0    0.006    0.006    0.230    0.230
 pw_grid_sort                        20  7.0    0.153    0.153    0.188    0.188
 scf_env_do_scf                      20  3.0    0.000    0.000    0.128    0.128
 scf_env_do_scf_inner_loop          127  4.1    0.014    0.014    0.128    0.128
 qs_scf_new_mos                     127  5.1    0.002    0.002    0.092    0.092
 calculate_dm_sparse                146  6.1    0.000    0.000    0.066    0.066
 cp_dbcsr_plus_fm_fm_t              147  7.1    0.001    0.001    0.066    0.066
 dbcsr_multiply_generic             213  8.0    0.004    0.004    0.062    0.062
 qs_energies_init_hamiltonians       20  3.0    0.000    0.000    0.047    0.047
 init_scf_run                        20  3.0    0.000    0.000    0.044    0.044
 build_tblite_matrices               21  4.0    0.036    0.036    0.041    0.041
 scf_env_initial_rho_setup           20  4.0    0.000    0.000    0.040    0.040
 wfi_extrapolate                     20  5.0    0.001    0.001    0.040    0.040
 pw_grid_assign                      20  7.0    0.036    0.036    0.036    0.036
 sort_shells                         20  8.1    0.034    0.034    0.034    0.034
 qs_forces                            1  2.0    0.000    0.000    0.034    0.034
 make_m2s                           426  9.0    0.002    0.002    0.032    0.032
 dbcsr_complete_redistribute        573  8.2    0.010    0.010    0.026    0.026
 cp_dbcsr_sm_fm_multiply             66  6.0    0.001    0.001    0.026    0.026
 copy_dbcsr_to_fm                   213  6.2    0.001    0.001    0.025    0.025
 rebuild_ks_matrix                  147  5.8    0.000    0.000    0.019    0.019
 build_tblite_ks_matrix             147  6.8    0.016    0.016    0.019    0.019
 eigensolver                        127  6.1    0.005    0.005    0.018    0.018
 copy_fm_to_dbcsr                   360  7.9    0.001    0.001    0.018    0.018
 qs_ks_update_qs_env                146  4.8    0.000    0.000    0.018    0.018
 multiply_cannon                    213  9.0    0.009    0.009    0.016    0.016
 make_images                        426 10.0    0.004    0.004    0.015    0.015
 qs_init_subsys                       1  2.0    0.001    0.001    0.015    0.015
 -------------------------------------------------------------------------------

 The number of warnings for this run is : 1
 
 -------------------------------------------------------------------------------
  **** **** ******  **  PROGRAM ENDED AT                 2026-07-21 16:11:23.364
 ***** ** ***  *** **   PROGRAM RAN ON                                     terok
 **    ****   ******    PROGRAM RAN BY                                  kuehne88
 ***** **    ** ** **   PROGRAM PROCESS ID                               1049719
  **** **  *******  **  PROGRAM STOPPED IN /home/kuehne88/work/h2o-molecular-lim
                                           it-20260721/stress_debug_8_50/raw/H2O
                                           _stress_L50
