 DBCSR| CPU Multiplication driver                                           BLAS (U)
 DBCSR| Multrec recursion limit                                              512 (U)
 DBCSR| Multiplication stack size                                           1000 (D)
 DBCSR| Maximum elements for images                                    UNLIMITED (U)
 DBCSR| Multiplicative factor virtual images                                   1 (U)
 DBCSR| Use multiplication densification                                       T (D)
 DBCSR| Multiplication size stacks                                             3 (U)
 DBCSR| Use memory pool for CPU allocation                                     F (U)
 DBCSR| Number of 3D layers                                               SINGLE (U)
 DBCSR| Use MPI memory allocation                                              F (U)
 DBCSR| Use RMA algorithm                                                      F (U)
 DBCSR| Use Communication thread                                               T (U)
 DBCSR| Communication thread load                                             87 (D)
 DBCSR| MPI: My process id                                                     0
 DBCSR| MPI: Number of processes                                               1
 DBCSR| OMP: Current number of threads                                         1
 DBCSR| OMP: Max number of threads                                             1
 DBCSR| Split modifier for TAS multiplication algorithm                  1.0E+00 (U)


  **** **** ******  **  PROGRAM STARTED AT               2026-07-21 16:09:52.694
 ***** ** ***  *** **   PROGRAM STARTED ON                                 terok
 **    ****   ******    PROGRAM STARTED BY                              kuehne88
 ***** **    ** ** **   PROGRAM PROCESS ID                               1024811
  **** **  *******  **  PROGRAM STARTED IN /home/kuehne88/work/h2o-molecular-lim
                                           it-20260721/stress_debug_8_50/raw/H2O
                                           _stress_L12

 CP2K| version string:                 CP2K version 2026.2 (Development Version)
 CP2K| source code revision number:                                    8520b2e59
 CP2K| cp2kflags: omp parallel scalapack spglib s_dftd3 mctc-lib tblite tblite_g
 CP2K|            xtb
 CP2K| is freely available from                            https://www.cp2k.org/
 CP2K| Program compiled at                                   2026-07-18 23:48:15
 CP2K| Program compiled on                                                 terok
 CP2K| Program compiled for                                               x86_64
 CP2K| Data directory path                            /usr/local/share/cp2k/data
 CP2K| Input file name        /home/kuehne88/work/h2o-molecular-limit-20260721/s

 GLOBAL| Force Environment number                                              1
 GLOBAL| Basis set file name                                           BASIS_SET
 GLOBAL| Potential file name                                           POTENTIAL
 GLOBAL| MM Potential file name                                     MM_POTENTIAL
 GLOBAL| Coordinate file name                                      __STD_INPUT__
 GLOBAL| Method name                                                        CP2K
 GLOBAL| Project name                                             H2O_stress_L12
 GLOBAL| Run type                                                          DEBUG
 GLOBAL| FFT library                                                       FFTW3
 GLOBAL| Diagonalization library                                       ScaLAPACK
 GLOBAL| Cholesky decomposition library                                ScaLAPACK
 GLOBAL| DGEMM library                                                      BLAS
 GLOBAL| Direct generalized diagonalization requested                          F
 GLOBAL| Orthonormality check for eigenvectors                          DISABLED
 GLOBAL| Matrix multiplication library                                 ScaLAPACK
 GLOBAL| All-to-all communication in single precision                          F
 GLOBAL| FFTs using library dependent lengths                                  F
 GLOBAL| Grid backend                                                       AUTO
 GLOBAL| Global print level                                               MEDIUM
 GLOBAL| MPI I/O enabled                                                       T
 GLOBAL| Total number of message passing processes                             1
 GLOBAL| Number of distributed systems (nodes)                                 1
 GLOBAL| Number of threads for this process                                    1
 GLOBAL| This output is from process                                           0
 GLOBAL| OpenMP stack size per thread (OMP_STACKSIZE)                    default
 GLOBAL| CPU model name                                       AMD EPYC Processor
 GLOBAL| CPUID                                                              1002

 MEMORY| system memory details [Kb]
 MEMORY|                        rank 0           min           max       average
 MEMORY| MemTotal            528104804     528104804     528104804     528104804
 MEMORY| MemFree             511840556     511840556     511840556     511840556
 MEMORY| Buffers                    20            20            20            20
 MEMORY| Cached               12272128      12272128      12272128      12272128
 MEMORY| Slab                  2373944       2373944       2373944       2373944
 MEMORY| SReclaimable          1020436       1020436       1020436       1020436
 MEMORY| MemLikelyFree       525133140     525133140     525133140     525133140


 *** WARNING in environment.F:1098 :: FFT library FFTW3 is not available. ***
 *** Trying FFT library FFTSG.                                            ***


 *** Fundamental physical constants (SI units) ***

 *** Literature: B. J. Mohr and B. N. Taylor,
 ***             CODATA recommended values of the fundamental physical
 ***             constants: 2006, Web Version 5.1
 ***             http://physics.nist.gov/constants

 Speed of light in vacuum [m/s]                             2.99792458000000E+08
 Magnetic constant or permeability of vacuum [N/A**2]       1.25663706143592E-06
 Electric constant or permittivity of vacuum [F/m]          8.85418781762039E-12
 Planck constant (h) [J*s]                                  6.62606896000000E-34
 Planck constant (h-bar) [J*s]                              1.05457162825177E-34
 Elementary charge [C]                                      1.60217648700000E-19
 Electron mass [kg]                                         9.10938215000000E-31
 Electron g factor [ ]                                     -2.00231930436220E+00
 Proton mass [kg]                                           1.67262163700000E-27
 Fine-structure constant                                    7.29735253760000E-03
 Rydberg constant [1/m]                                     1.09737315685270E+07
 Avogadro constant [1/mol]                                  6.02214179000000E+23
 Boltzmann constant [J/K]                                   1.38065040000000E-23
 Atomic mass unit [kg]                                      1.66053878200000E-27
 Bohr radius [m]                                            5.29177208590000E-11

 *** Conversion factors ***

 [u] -> [a.u.]                                              1.82288848426455E+03
 [Angstrom] -> [Bohr] = [a.u.]                              1.88972613288564E+00
 [a.u.] = [Bohr] -> [Angstrom]                              5.29177208590000E-01
 [a.u.] -> [s]                                              2.41888432650478E-17
 [a.u.] -> [fs]                                             2.41888432650478E-02
 [a.u.] -> [J]                                              4.35974393937059E-18
 [a.u.] -> [N]                                              8.23872205491840E-08
 [a.u.] -> [K]                                              3.15774647902944E+05
 [a.u.] -> [kJ/mol]                                         2.62549961709828E+03
 [a.u.] -> [kcal/mol]                                       6.27509468713739E+02
 [a.u.] -> [Pa]                                             2.94210107994716E+13
 [a.u.] -> [bar]                                            2.94210107994716E+08
 [a.u.] -> [atm]                                            2.90362800883016E+08
 [a.u.] -> [eV]                                             2.72113838565563E+01
 [a.u.] -> [Hz]                                             6.57968392072181E+15
 [a.u.] -> [1/cm] (wave numbers)                            2.19474631370540E+05
 [a.u./Bohr**2] -> [1/cm]                                   5.14048714338585E+03
 

 CELL| Volume [angstrom^3]:                                          1728.000000
 CELL| Vector a [angstrom]:      12.000     0.000     0.000   |a| =    12.000000
 CELL| Vector b [angstrom]:       0.000    12.000     0.000   |b| =    12.000000
 CELL| Vector c [angstrom]:       0.000     0.000    12.000   |c| =    12.000000
 CELL| Angle (b,c), alpha [degree]:                                    90.000000
 CELL| Angle (a,c), beta  [degree]:                                    90.000000
 CELL| Angle (a,b), gamma [degree]:                                    90.000000
 CELL| Numerically orthorhombic:                                             YES
 CELL| Periodicity                                                           XYZ

 CELL_REF| Volume [angstrom^3]:                                      1728.000000
 CELL_REF| Vector a [angstrom    12.000     0.000     0.000   |a| =    12.000000
 CELL_REF| Vector b [angstrom     0.000    12.000     0.000   |b| =    12.000000
 CELL_REF| Vector c [angstrom     0.000     0.000    12.000   |c| =    12.000000
 CELL_REF| Angle (b,c), alpha [degree]:                                90.000000
 CELL_REF| Angle (a,c), beta  [degree]:                                90.000000
 CELL_REF| Angle (a,b), gamma [degree]:                                90.000000
 CELL_REF| Numerically orthorhombic:                                         YES
 CELL_REF| Periodicity                                                       XYZ

 GENERATE|  Preliminary Number of Bonds generated:                             0
 GENERATE|  Achieved consistency in connectivity generation.


                  #####   #####        #     #   #     #       #          
                 #     # #     #      #    ##### #     #   # #####  ####  
                 #     # #           #       #   ###   #       #   #    # 
                 #     #  #####     #        #   #  #  #   #   #   ###### 
                 #   # #       #   #         #   #   # #   #   #   #      
                 #    #  #     #  #          #   #  #  # # #   #    #   # 
                  #### #  #####  #           #   ###   ##  #   #     ###  

                                     g-xTB   
                                 Version 0.0                       
                            Johann V. Pototschnig                  

                tblite provider: SAVE
                tblite source revision: 15915c9435644eb257178ca8f8bf7220c38b1a84
                g-xTB support: enabled

 xTB| Parameter file                                             xTB1_parameters
 xTB| Basis expansion STO-NG                                                   6
 xTB| Basis expansion STO-NG for Hydrogen                                      4
 xTB| Repulsive pair potential accuracy                               0.1000E-09
 xTB| Repulsive enhancement factor                                      0.000000
 xTB| Halogen interaction potential                                            T
 xTB| Halogen interaction potential cutoff radius                         20.000
 xTB| Nonbonded interactions                                                   F
 xTB| vdW potential type:                                              DFTD3(BJ)
 xTB| D3 Dispersion: Parameter                                         dftd3.dat
 xTB| Huckel constants ks kp kd                        1.850     2.250     2.000
 xTB| Huckel constants ksp k2sh                                  2.080     2.850
 xTB| Mataga-Nishimoto exponent                                            2.000
 xTB| Repulsion potential exponent                                         1.500
 xTB| Coordination number scaling kcn(s) kcn(p) kc     0.006    -0.003    -0.005
 xTB| Electronegativity scaling                                           -0.007
 xTB| Halogen potential scaling kxr kx2                          1.300     0.440
 xTB| SCC mixer:                                                       TBLITE
 xTB| tblite accuracy:                                                 1.000E-01
 xTB| tblite SCC mixer damping:                                            0.400
 xTB| tblite SCC mixer iterations:                                           300
 xTB| tblite SCC mixer memory:                                               300
 xTB| tblite SCC mixer solver:                                         GVD
 xTB| tblite SCC mixer omega0:                                         1.000E-02
 xTB| tblite SCC mixer min weight:                                     1.000E+00
 xTB| tblite SCC mixer max weight:                                     1.000E+05
 xTB| tblite SCC mixer weight factor:                                  1.000E-02




 ATOMIC KIND INFORMATION

  1. Atomic kind: O                                     Number of atoms:       1

     Orbital Basis Set                                                 O _STO-6G

       Number of orbital shell sets:                                           2
       Number of orbital shells:                                               2
       Number of primitive Cartesian functions:                               12
       Number of Cartesian basis functions:                                    4
       Number of spherical basis functions:                                    4
       Norm type:                                                              3

       Normalised Cartesian orbitals:

                        Set   Shell   Orbital            Exponent    Coefficient

                          1       1    1s                3.483595      -1.313024
                                                         2.859866       1.114872
                                                         0.740681       0.294549
                                                         0.344927       0.081390
                                                         0.261979       0.039458
                                                         0.094616       0.012363

                          2       1    2px              37.641471       1.474721
                                                         9.713089       1.794175
                                                         3.137177       1.303626
                                                         1.121381       0.633327
                                                         0.398078       0.183090
                                                         0.123048       0.019124
                          2       1    2py              37.641471       1.474721
                                                         9.713089       1.794175
                                                         3.137177       1.303626
                                                         1.121381       0.633327
                                                         0.398078       0.183090
                                                         0.123048       0.019124
                          2       1    2pz              37.641471       1.474721
                                                         9.713089       1.794175
                                                         3.137177       1.303626
                                                         1.121381       0.633327
                                                         0.398078       0.183090
                                                         0.123048       0.019124

     AE Potential information for                                         Oxygen

       Description:                                       Bare Coulomb Potential
                                                             Valence charge only

       Gaussian exponent of the core charge distribution:               3.753049
       Electronic configuration (s p d ...):                       2   4   0   0

  2. Atomic kind: H                                     Number of atoms:       2

     Orbital Basis Set                                                 H _STO-8G

       Number of orbital shell sets:                                           1
       Number of orbital shells:                                               1
       Number of primitive Cartesian functions:                                8
       Number of Cartesian basis functions:                                    1
       Number of spherical basis functions:                                    1
       Norm type:                                                              3

       Normalised Cartesian orbitals:

                        Set   Shell   Orbital            Exponent    Coefficient

                          1       1    1s              337.005012       0.038636
                                                        53.310531       0.064369
                                                        12.208253       0.119184
                                                         3.418827       0.179125
                                                         1.108790       0.225727
                                                         0.478718       0.127521
                                                         0.212137       0.089380
                                                         0.069058      -0.000553

     AE Potential information for                                       Hydrogen

       Description:                                       Bare Coulomb Potential
                                                              Full atomic charge

       Gaussian exponent of the core charge distribution:              12.500000
       Electronic configuration (s p d ...):                       1   0   0   0


 MOLECULE KIND INFORMATION


 All atoms are their own molecule, skipping detailed information


 TOTAL NUMBERS AND MAXIMUM NUMBERS

  Total number of            - Atomic kinds:                                   2
                             - Atoms:                                          3
                             - Shell sets:                                     4
                             - Shells:                                         4
                             - Primitive Cartesian functions:                 28
                             - Cartesian basis functions:                      6
                             - Spherical basis functions:                      6

  Maximum angular momentum of the orbital basis functions:                     1


 MODULE QUICKSTEP: ATOMIC COORDINATES IN ANGSTROM

   Atom Kind Element         X             Y             Z       Z(eff)     Mass
      1    1 O     8      0.000000      0.000000      0.000000   6.0000  15.9994
      2    2 H     1      0.758602      0.000000      0.504284   1.0000   1.0079
      3    2 H     1     -0.758602      0.000000      0.504284   1.0000   1.0079



 SCF PARAMETERS         Density guess:                                     MOPAC
                        --------------------------------------------------------
                        max_scf:                                             300
                        max_scf_history:                                       0
                        max_diis:                                              4
                        --------------------------------------------------------
                        eps_scf:                                        1.00E-10
                        eps_scf_history:                                0.00E+00
                        eps_diis:                                       1.00E-01
                        eps_eigval:                                     1.00E-05
                        --------------------------------------------------------
                        level_shift [a.u.]:                             0.000000
                        added MOs                                         2    0
                        --------------------------------------------------------
                        Mixing method:                           DIRECT_P_MIXING
                        --------------------------------------------------------
                        No outer SCF

 PW_GRID| Information for grid number                                          1
 PW_GRID| Cutoff [a.u.]                                                      1.0
 PW_GRID| spherical cutoff:                                                   NO
 PW_GRID|   Bounds   1             -6       5                Points:          12
 PW_GRID|   Bounds   2             -6       5                Points:          12
 PW_GRID|   Bounds   3             -6       5                Points:          12
 PW_GRID| Volume element (a.u.^3)   6.748         Volume (a.u.^3)     11661.1222
 PW_GRID| Grid span                                                    FULLSPACE

 POISSON| Solver                                                        PERIODIC
 POISSON| Periodicity                                                        XYZ

 RS_GRID| Information for grid number                                          1
 RS_GRID|   Bounds   1             -6       5                Points:          12
 RS_GRID|   Bounds   2             -6       5                Points:          12
 RS_GRID|   Bounds   3             -6       5                Points:          12

 Extrapolation method: initial_guess

 Number of electrons:                                                          8
 Number of occupied orbitals:                                                  4
 Number of molecular orbitals:                                                 6

 Number of orbital functions:                                                  6
 Number of independent orbital functions:                                      6


 SCF WAVEFUNCTION OPTIMIZATION

  Step     Update method      Time    Convergence         Total energy    Change
  ------------------------------------------------------------------------------
     1 GXTB-Raw    0.10E+01    0.0     0.76146964       -76.4363436972 -7.64E+01
     2 GXTB-Simple 0.20E+00    0.0     0.06601039       -76.4519426015 -1.56E-02
     3 GXTB-Simple 0.20E+00    0.0     0.04566832       -76.4597876523 -7.85E-03
     4 GXTB-FDIIS  0.10E+01    0.0     0.10252686       -76.4678469161 -8.06E-03
     5 GXTB-FDIIS  0.10E+01    0.0     0.01084316       -76.4679416014 -9.47E-05
     6 GXTB-FDIIS  0.10E+01    0.0     0.00160534       -76.4679429948 -1.39E-06
     7 GXTB-FDIIS  0.10E+01    0.0     0.00012220       -76.4679429986 -3.88E-09
     8 GXTB-FDIIS  0.10E+01    0.0     0.00000795       -76.4679429986 -6.27E-12
     9 GXTB-FDIIS  0.10E+01    0.0     0.00000122       -76.4679429986 -4.55E-13
    10 GXTB-FDIIS  0.10E+01    0.0     0.00000012       -76.4679429986 -1.42E-14
    11 GXTB-FDIIS  0.10E+01    0.0     9.8707E-11       -76.4679429986  1.42E-14

  *** SCF run converged in    11 steps ***


  Core Hamiltonian energy:                                     -6.33049700581071
  Repulsive potential energy:                                   0.41015845033651
  Electrostatic energy:                                         0.15055818988126
  Self-consistent dispersion energy:                           -0.00003930425867
  Non-self consistent dispersion energy:                        0.00000009742683
  Correction for halogen bonding:                               0.00000000000000

  Total energy:                                               -76.46794299864592


 MULLIKEN POPULATION ANALYSIS

  # Atom   Element   Kind        Atomic population                    Net charge
       1     O          1                 6.672127                     -0.672127
       2     H          2                 0.663937                      0.336063
       3     H          2                 0.663937                      0.336063
 # Total charge                           8.000000                      0.000000


 tblite reference CLI check
 Executable: tblite
 Method:     gxtb
 Guess:      auto
 Solver:     gvd
 Spin-pol.:  F
 Grad file:  H2O_stress_L12_cli.grad
 JSON file:  H2O_stress_L12_cli.json
 Log file:   H2O_stress_L12_cli.log
 Energy CP2K/CLI/absdiff:   -7.646794299865E+01   -7.646794299842E+01    2.220588157797E-10
 Gradient diff sum/max:    7.796201665940E-08    1.967886643223E-08
 Virial diff sum/max:    7.328066671261E-08    5.521475857084E-08

 ENERGY| Total FORCE_EVAL ( QS ) energy [hartree]            -76.467942998645924

 -------------------------------------------------------------------------------
 ----                             MULTIGRID INFO                            ----
 -------------------------------------------------------------------------------
 total grid count     :           420              cutoff [a.u.]            1.00

 PW_GRID| Information for grid number                                          2
 PW_GRID| Cutoff [a.u.]                                                      1.0
 PW_GRID| spherical cutoff:                                                   NO
 PW_GRID|   Bounds   1             -6       5                Points:          12
 PW_GRID|   Bounds   2             -6       5                Points:          12
 PW_GRID|   Bounds   3             -6       5                Points:          12
 PW_GRID| Volume element (a.u.^3)   6.748         Volume (a.u.^3)     11661.1736
 PW_GRID| Grid span                                                    FULLSPACE

 POISSON| Solver                                                        PERIODIC
 POISSON| Periodicity                                                        XYZ

 RS_GRID| Information for grid number                                          2
 RS_GRID|   Bounds   1             -6       5                Points:          12
 RS_GRID|   Bounds   2             -6       5                Points:          12
 RS_GRID|   Bounds   3             -6       5                Points:          12

 Parameters for the always stable predictor-corrector (ASPC) method:

  ASPC order: 0

  B(1) =   1.000000

 Extrapolation method: ASPC

 Number of electrons:                                                          8
 Number of occupied orbitals:                                                  4
 Number of molecular orbitals:                                                 6

 Number of orbital functions:                                                  6
 Number of independent orbital functions:                                      6


 SCF WAVEFUNCTION OPTIMIZATION

  Step     Update method      Time    Convergence         Total energy    Change
  ------------------------------------------------------------------------------
     1 GXTB-Raw    0.10E+01    0.0     0.00000345       -76.4679433073 -7.65E+01
     2 GXTB-Simple 0.20E+00    0.0     0.00000039       -76.4679433073 -3.69E-13
     3 GXTB-Simple 0.20E+00    0.0     0.00000032       -76.4679433073 -2.13E-13
     4 GXTB-FDIIS  0.10E+01    0.0     0.00000142       -76.4679433073 -4.41E-13
     5 GXTB-FDIIS  0.10E+01    0.0     0.00000007       -76.4679433073 -1.42E-14
     6 GXTB-FDIIS  0.10E+01    0.0     0.00000003       -76.4679433073  0.00E+00
     7 GXTB-FDIIS  0.10E+01    0.0     6.1781E-10       -76.4679433073  0.00E+00
     8 GXTB-FDIIS  0.10E+01    0.0     8.5487E-15       -76.4679433073  0.00E+00

  *** SCF run converged in     8 steps ***


  Core Hamiltonian energy:                                     -6.33049314402066
  Repulsive potential energy:                                   0.41015363433792
  Electrostatic energy:                                         0.15055836556614
  Self-consistent dispersion energy:                           -0.00003930462510
  Non-self consistent dispersion energy:                        0.00000009742352
  Correction for halogen bonding:                               0.00000000000000

  Total energy:                                               -76.46794330729904


 MULLIKEN POPULATION ANALYSIS

  # Atom   Element   Kind        Atomic population                    Net charge
       1     O          1                 6.672126                     -0.672126
       2     H          2                 0.663937                      0.336063
       3     H          2                 0.663937                      0.336063
 # Total charge                           8.000000                      0.000000


 tblite reference CLI check
 Executable: tblite
 Method:     gxtb
 Guess:      auto
 Solver:     gvd
 Spin-pol.:  F
 Grad file:  H2O_stress_L12_cli.grad
 JSON file:  H2O_stress_L12_cli.json
 Log file:   H2O_stress_L12_cli.log
 Energy CP2K/CLI/absdiff:   -7.646794330730E+01   -7.646794330708E+01    2.220446049250E-10
 Gradient diff sum/max:    1.251474033961E-05    3.189256079436E-06
 Virial diff sum/max:    1.296032043359E-01    6.998853494494E-02
 tblite reference CLI deviation exceeded ERROR_LIMIT =   1.0000E-05

 ENERGY| Total FORCE_EVAL ( QS ) energy [hartree]            -76.467943307299038

 -------------------------------------------------------------------------------
 ----                             MULTIGRID INFO                            ----
 -------------------------------------------------------------------------------
 total grid count     :           420              cutoff [a.u.]            1.00

 PW_GRID| Information for grid number                                          3
 PW_GRID| Cutoff [a.u.]                                                      1.0
 PW_GRID| spherical cutoff:                                                   NO
 PW_GRID|   Bounds   1             -6       5                Points:          12
 PW_GRID|   Bounds   2             -6       5                Points:          12
 PW_GRID|   Bounds   3             -6       5                Points:          12
 PW_GRID| Volume element (a.u.^3)   6.748         Volume (a.u.^3)     11661.0707
 PW_GRID| Grid span                                                    FULLSPACE

 POISSON| Solver                                                        PERIODIC
 POISSON| Periodicity                                                        XYZ

 RS_GRID| Information for grid number                                          3
 RS_GRID|   Bounds   1             -6       5                Points:          12
 RS_GRID|   Bounds   2             -6       5                Points:          12
 RS_GRID|   Bounds   3             -6       5                Points:          12

 Parameters for the always stable predictor-corrector (ASPC) method:

  ASPC order: 0

  B(1) =   2.000000
  B(2) =  -1.000000

 Extrapolation method: ASPC

 Number of electrons:                                                          8
 Number of occupied orbitals:                                                  4
 Number of molecular orbitals:                                                 6

 Number of orbital functions:                                                  6
 Number of independent orbital functions:                                      6


 SCF WAVEFUNCTION OPTIMIZATION

  Step     Update method      Time    Convergence         Total energy    Change
  ------------------------------------------------------------------------------
     1 GXTB-Raw    0.10E+01    0.0     0.00000690       -76.4679426900 -7.65E+01
     2 GXTB-Simple 0.20E+00    0.0     0.00000077       -76.4679426900 -1.44E-12
     3 GXTB-Simple 0.20E+00    0.0     0.00000063       -76.4679426900 -9.09E-13
     4 GXTB-FDIIS  0.10E+01    0.0     0.00000283       -76.4679426900 -1.76E-12
     5 GXTB-FDIIS  0.10E+01    0.0     0.00000014       -76.4679426900  0.00E+00
     6 GXTB-FDIIS  0.10E+01    0.0     0.00000006       -76.4679426900  0.00E+00
     7 GXTB-FDIIS  0.10E+01    0.0     1.2357E-09       -76.4679426900  0.00E+00
     8 GXTB-FDIIS  0.10E+01    0.0     1.9429E-14       -76.4679426900  0.00E+00

  *** SCF run converged in     8 steps ***


  Core Hamiltonian energy:                                     -6.33050086760546
  Repulsive potential energy:                                   0.41016326638333
  Electrostatic energy:                                         0.15055801419991
  Self-consistent dispersion energy:                           -0.00003930389224
  Non-self consistent dispersion energy:                        0.00000009743014
  Correction for halogen bonding:                               0.00000000000000

  Total energy:                                               -76.46794268995572


 MULLIKEN POPULATION ANALYSIS

  # Atom   Element   Kind        Atomic population                    Net charge
       1     O          1                 6.672127                     -0.672127
       2     H          2                 0.663936                      0.336064
       3     H          2                 0.663936                      0.336064
 # Total charge                           8.000000                     -0.000000


 tblite reference CLI check
 Executable: tblite
 Method:     gxtb
 Guess:      auto
 Solver:     gvd
 Spin-pol.:  F
 Grad file:  H2O_stress_L12_cli.grad
 JSON file:  H2O_stress_L12_cli.json
 Log file:   H2O_stress_L12_cli.log
 Energy CP2K/CLI/absdiff:   -7.646794268996E+01   -7.646794268973E+01    2.221156591986E-10
 Gradient diff sum/max:    1.267090813583E-05    3.227933370625E-06
 Virial diff sum/max:    1.296255315397E-01    7.000474807436E-02
 tblite reference CLI deviation exceeded ERROR_LIMIT =   1.0000E-05

 ENERGY| Total FORCE_EVAL ( QS ) energy [hartree]            -76.467942689955720

 -------------------------------------------------------------------------------
 ----                             MULTIGRID INFO                            ----
 -------------------------------------------------------------------------------
 total grid count     :           420              cutoff [a.u.]            1.00

 PW_GRID| Information for grid number                                          4
 PW_GRID| Cutoff [a.u.]                                                      1.0
 PW_GRID| spherical cutoff:                                                   NO
 PW_GRID|   Bounds   1             -6       5                Points:          12
 PW_GRID|   Bounds   2             -6       5                Points:          12
 PW_GRID|   Bounds   3             -6       5                Points:          12
 PW_GRID| Volume element (a.u.^3)   6.748         Volume (a.u.^3)     11661.1222
 PW_GRID| Grid span                                                    FULLSPACE

 POISSON| Solver                                                        PERIODIC
 POISSON| Periodicity                                                        XYZ

 RS_GRID| Information for grid number                                          4
 RS_GRID|   Bounds   1             -6       5                Points:          12
 RS_GRID|   Bounds   2             -6       5                Points:          12
 RS_GRID|   Bounds   3             -6       5                Points:          12

 Parameters for the always stable predictor-corrector (ASPC) method:

  ASPC order: 1

  B(1) =   2.500000
  B(2) =  -2.000000
  B(3) =   0.500000

 Extrapolation method: ASPC

 Number of electrons:                                                          8
 Number of occupied orbitals:                                                  4
 Number of molecular orbitals:                                                 6

 Number of orbital functions:                                                  6
 Number of independent orbital functions:                                      6


 SCF WAVEFUNCTION OPTIMIZATION

  Step     Update method      Time    Convergence         Total energy    Change
  ------------------------------------------------------------------------------
     1 GXTB-Raw    0.10E+01    0.0     0.00000345       -76.4679429986 -7.65E+01
     2 GXTB-Simple 0.20E+00    0.0     0.00000039       -76.4679429986 -3.69E-13
     3 GXTB-Simple 0.20E+00    0.0     0.00000032       -76.4679429986 -2.13E-13
     4 GXTB-FDIIS  0.10E+01    0.0     0.00000142       -76.4679429986 -4.55E-13
     5 GXTB-FDIIS  0.10E+01    0.0     0.00000007       -76.4679429986  0.00E+00
     6 GXTB-FDIIS  0.10E+01    0.0     0.00000003       -76.4679429986 -1.42E-14
     7 GXTB-FDIIS  0.10E+01    0.0     6.1781E-10       -76.4679429986  1.42E-14
     8 GXTB-FDIIS  0.10E+01    0.0     7.5495E-15       -76.4679429986  0.00E+00

  *** SCF run converged in     8 steps ***


  Core Hamiltonian energy:                                     -6.33049700581064
  Repulsive potential energy:                                   0.41015845033651
  Electrostatic energy:                                         0.15055818988122
  Self-consistent dispersion energy:                           -0.00003930425867
  Non-self consistent dispersion energy:                        0.00000009742683
  Correction for halogen bonding:                               0.00000000000000

  Total energy:                                               -76.46794299864555


 MULLIKEN POPULATION ANALYSIS

  # Atom   Element   Kind        Atomic population                    Net charge
       1     O          1                 6.672127                     -0.672127
       2     H          2                 0.663937                      0.336063
       3     H          2                 0.663937                      0.336063
 # Total charge                           8.000000                      0.000000


 tblite reference CLI check
 Executable: tblite
 Method:     gxtb
 Guess:      auto
 Solver:     gvd
 Spin-pol.:  F
 Grad file:  H2O_stress_L12_cli.grad
 JSON file:  H2O_stress_L12_cli.json
 Log file:   H2O_stress_L12_cli.log
 Energy CP2K/CLI/absdiff:   -7.646794299865E+01   -7.646794299842E+01    2.220730266345E-10
 Gradient diff sum/max:    7.801534333648E-08    1.967887177518E-08
 Virial diff sum/max:    1.296147117598E-01    6.999664147744E-02
 tblite reference CLI deviation exceeded ERROR_LIMIT =   1.0000E-05

 ENERGY| Total FORCE_EVAL ( QS ) energy [hartree]            -76.467942998645555

 -------------------------------------------------------------------------------
 ----                             MULTIGRID INFO                            ----
 -------------------------------------------------------------------------------
 total grid count     :           420              cutoff [a.u.]            1.00

 PW_GRID| Information for grid number                                          5
 PW_GRID| Cutoff [a.u.]                                                      1.0
 PW_GRID| spherical cutoff:                                                   NO
 PW_GRID|   Bounds   1             -6       5                Points:          12
 PW_GRID|   Bounds   2             -6       5                Points:          12
 PW_GRID|   Bounds   3             -6       5                Points:          12
 PW_GRID| Volume element (a.u.^3)   6.748         Volume (a.u.^3)     11661.1222
 PW_GRID| Grid span                                                    FULLSPACE

 POISSON| Solver                                                        PERIODIC
 POISSON| Periodicity                                                        XYZ

 RS_GRID| Information for grid number                                          5
 RS_GRID|   Bounds   1             -6       5                Points:          12
 RS_GRID|   Bounds   2             -6       5                Points:          12
 RS_GRID|   Bounds   3             -6       5                Points:          12

 Parameters for the always stable predictor-corrector (ASPC) method:

  ASPC order: 2

  B(1) =   2.800000
  B(2) =  -2.800000
  B(3) =   1.200000
  B(4) =  -0.200000

 Extrapolation method: ASPC

 Number of electrons:                                                          8
 Number of occupied orbitals:                                                  4
 Number of molecular orbitals:                                                 6

 Number of orbital functions:                                                  6
 Number of independent orbital functions:                                      6


 SCF WAVEFUNCTION OPTIMIZATION

  Step     Update method      Time    Convergence         Total energy    Change
  ------------------------------------------------------------------------------
     1 GXTB-Raw    0.10E+01    0.0     1.2346E-10       -76.4679429986 -7.65E+01
     2 GXTB-Simple 0.20E+00    0.0     5.4665E-12       -76.4679429986  0.00E+00

  *** SCF run converged in     2 steps ***


  Core Hamiltonian energy:                                     -6.33049700581065
  Repulsive potential energy:                                   0.41015845033651
  Electrostatic energy:                                         0.15055818988122
  Self-consistent dispersion energy:                           -0.00003930425867
  Non-self consistent dispersion energy:                        0.00000009742683
  Correction for halogen bonding:                               0.00000000000000

  Total energy:                                               -76.46794299864555


 MULLIKEN POPULATION ANALYSIS

  # Atom   Element   Kind        Atomic population                    Net charge
       1     O          1                 6.672127                     -0.672127
       2     H          2                 0.663937                      0.336063
       3     H          2                 0.663937                      0.336063
 # Total charge                           8.000000                      0.000000


 tblite reference CLI check
 Executable: tblite
 Method:     gxtb
 Guess:      auto
 Solver:     gvd
 Spin-pol.:  F
 Grad file:  H2O_stress_L12_cli.grad
 JSON file:  H2O_stress_L12_cli.json
 Log file:   H2O_stress_L12_cli.log
 Energy CP2K/CLI/absdiff:   -7.646794299865E+01   -7.646794299842E+01    2.220730266345E-10
 Gradient diff sum/max:    7.801534337768E-08    1.967887177518E-08
 Virial diff sum/max:    1.296147117598E-01    6.999664147744E-02
 tblite reference CLI deviation exceeded ERROR_LIMIT =   1.0000E-05

 ENERGY| Total FORCE_EVAL ( QS ) energy [hartree]            -76.467942998645555

 -------------------------------------------------------------------------------
 ----                             MULTIGRID INFO                            ----
 -------------------------------------------------------------------------------
 total grid count     :           420              cutoff [a.u.]            1.00

 PW_GRID| Information for grid number                                          6
 PW_GRID| Cutoff [a.u.]                                                      1.0
 PW_GRID| spherical cutoff:                                                   NO
 PW_GRID|   Bounds   1             -6       5                Points:          12
 PW_GRID|   Bounds   2             -6       5                Points:          12
 PW_GRID|   Bounds   3             -6       5                Points:          12
 PW_GRID| Volume element (a.u.^3)   6.748         Volume (a.u.^3)     11661.1222
 PW_GRID| Grid span                                                    FULLSPACE

 POISSON| Solver                                                        PERIODIC
 POISSON| Periodicity                                                        XYZ

 RS_GRID| Information for grid number                                          6
 RS_GRID|   Bounds   1             -6       5                Points:          12
 RS_GRID|   Bounds   2             -6       5                Points:          12
 RS_GRID|   Bounds   3             -6       5                Points:          12

 Parameters for the always stable predictor-corrector (ASPC) method:

  ASPC order: 3

  B(1) =   3.000000
  B(2) =  -3.428571
  B(3) =   1.928571
  B(4) =  -0.571429
  B(5) =   0.071429

 Extrapolation method: ASPC

 Number of electrons:                                                          8
 Number of occupied orbitals:                                                  4
 Number of molecular orbitals:                                                 6

 Number of orbital functions:                                                  6
 Number of independent orbital functions:                                      6


 SCF WAVEFUNCTION OPTIMIZATION

  Step     Update method      Time    Convergence         Total energy    Change
  ------------------------------------------------------------------------------
     1 GXTB-Raw    0.10E+01    0.0     0.00000107       -76.4679429986 -7.65E+01
     2 GXTB-Simple 0.20E+00    0.0     0.00000011       -76.4679429986 -1.71E-13
     3 GXTB-Simple 0.20E+00    0.0     0.00000009       -76.4679429986 -1.14E-13
     4 GXTB-FDIIS  0.10E+01    0.0     0.00000044       -76.4679429986 -2.42E-13
     5 GXTB-FDIIS  0.10E+01    0.0     0.00000002       -76.4679429986  0.00E+00
     6 GXTB-FDIIS  0.10E+01    0.0     1.9471E-09       -76.4679429986  1.42E-14
     7 GXTB-FDIIS  0.10E+01    0.0     2.4788E-10       -76.4679429986 -1.42E-14
     8 GXTB-FDIIS  0.10E+01    0.0     1.9207E-14       -76.4679429986  0.00E+00

  *** SCF run converged in     8 steps ***


  Core Hamiltonian energy:                                     -6.33049700581165
  Repulsive potential energy:                                   0.41015845034624
  Electrostatic energy:                                         0.15055818988176
  Self-consistent dispersion energy:                           -0.00003930425867
  Non-self consistent dispersion energy:                        0.00000009742683
  Correction for halogen bonding:                               0.00000000000000

  Total energy:                                               -76.46794299863787


 MULLIKEN POPULATION ANALYSIS

  # Atom   Element   Kind        Atomic population                    Net charge
       1     O          1                 6.672127                     -0.672127
       2     H          2                 0.663937                      0.336063
       3     H          2                 0.663937                      0.336063
 # Total charge                           8.000000                     -0.000000


 tblite reference CLI check
 Executable: tblite
 Method:     gxtb
 Guess:      auto
 Solver:     gvd
 Spin-pol.:  F
 Grad file:  H2O_stress_L12_cli.grad
 JSON file:  H2O_stress_L12_cli.json
 Log file:   H2O_stress_L12_cli.log
 Energy CP2K/CLI/absdiff:   -7.646794299864E+01   -7.646794299842E+01    2.220730266345E-10
 Gradient diff sum/max:    9.954773883091E-06    3.659116137505E-06
 Virial diff sum/max:    1.296216876580E-01    6.999664148560E-02
 tblite reference CLI deviation exceeded ERROR_LIMIT =   1.0000E-05

 ENERGY| Total FORCE_EVAL ( QS ) energy [hartree]            -76.467942998637866

 -------------------------------------------------------------------------------
 ----                             MULTIGRID INFO                            ----
 -------------------------------------------------------------------------------
 total grid count     :           420              cutoff [a.u.]            1.00

 PW_GRID| Information for grid number                                          7
 PW_GRID| Cutoff [a.u.]                                                      1.0
 PW_GRID| spherical cutoff:                                                   NO
 PW_GRID|   Bounds   1             -6       5                Points:          12
 PW_GRID|   Bounds   2             -6       5                Points:          12
 PW_GRID|   Bounds   3             -6       5                Points:          12
 PW_GRID| Volume element (a.u.^3)   6.748         Volume (a.u.^3)     11661.1222
 PW_GRID| Grid span                                                    FULLSPACE

 POISSON| Solver                                                        PERIODIC
 POISSON| Periodicity                                                        XYZ

 RS_GRID| Information for grid number                                          7
 RS_GRID|   Bounds   1             -6       5                Points:          12
 RS_GRID|   Bounds   2             -6       5                Points:          12
 RS_GRID|   Bounds   3             -6       5                Points:          12

 Parameters for the always stable predictor-corrector (ASPC) method:

  ASPC order: 3

  B(1) =   3.000000
  B(2) =  -3.428571
  B(3) =   1.928571
  B(4) =  -0.571429
  B(5) =   0.071429

 Extrapolation method: ASPC

 Number of electrons:                                                          8
 Number of occupied orbitals:                                                  4
 Number of molecular orbitals:                                                 6

 Number of orbital functions:                                                  6
 Number of independent orbital functions:                                      6


 SCF WAVEFUNCTION OPTIMIZATION

  Step     Update method      Time    Convergence         Total energy    Change
  ------------------------------------------------------------------------------
     1 GXTB-Raw    0.10E+01    0.0     0.00000214       -76.4679429986 -7.65E+01
     2 GXTB-Simple 0.20E+00    0.0     0.00000022       -76.4679429986 -6.82E-13
     3 GXTB-Simple 0.20E+00    0.0     0.00000019       -76.4679429986 -4.41E-13
     4 GXTB-FDIIS  0.10E+01    0.0     0.00000087       -76.4679429986 -9.66E-13
     5 GXTB-FDIIS  0.10E+01    0.0     0.00000003       -76.4679429986 -1.42E-14
     6 GXTB-FDIIS  0.10E+01    0.0     3.8942E-09       -76.4679429986  0.00E+00
     7 GXTB-FDIIS  0.10E+01    0.0     4.9575E-10       -76.4679429986  1.42E-14
     8 GXTB-FDIIS  0.10E+01    0.0     1.5321E-14       -76.4679429986 -1.42E-14

  *** SCF run converged in     8 steps ***


  Core Hamiltonian energy:                                     -6.33049700581166
  Repulsive potential energy:                                   0.41015845034624
  Electrostatic energy:                                         0.15055818988176
  Self-consistent dispersion energy:                           -0.00003930425867
  Non-self consistent dispersion energy:                        0.00000009742683
  Correction for halogen bonding:                               0.00000000000000

  Total energy:                                               -76.46794299863787


 MULLIKEN POPULATION ANALYSIS

  # Atom   Element   Kind        Atomic population                    Net charge
       1     O          1                 6.672127                     -0.672127
       2     H          2                 0.663937                      0.336063
       3     H          2                 0.663937                      0.336063
 # Total charge                           8.000000                     -0.000000


 tblite reference CLI check
 Executable: tblite
 Method:     gxtb
 Guess:      auto
 Solver:     gvd
 Spin-pol.:  F
 Grad file:  H2O_stress_L12_cli.grad
 JSON file:  H2O_stress_L12_cli.json
 Log file:   H2O_stress_L12_cli.log
 Energy CP2K/CLI/absdiff:   -7.646794299864E+01   -7.646794299842E+01    2.220872374892E-10
 Gradient diff sum/max:    9.954773877686E-06    3.659116138052E-06
 Virial diff sum/max:    1.296216876580E-01    6.999664148559E-02
 tblite reference CLI deviation exceeded ERROR_LIMIT =   1.0000E-05

 ENERGY| Total FORCE_EVAL ( QS ) energy [hartree]            -76.467942998637866

 -------------------------------------------------------------------------------
 ----                             MULTIGRID INFO                            ----
 -------------------------------------------------------------------------------
 total grid count     :           420              cutoff [a.u.]            1.00

 PW_GRID| Information for grid number                                          8
 PW_GRID| Cutoff [a.u.]                                                      1.0
 PW_GRID| spherical cutoff:                                                   NO
 PW_GRID|   Bounds   1             -6       5                Points:          12
 PW_GRID|   Bounds   2             -6       5                Points:          12
 PW_GRID|   Bounds   3             -6       5                Points:          12
 PW_GRID| Volume element (a.u.^3)   6.748         Volume (a.u.^3)     11661.1222
 PW_GRID| Grid span                                                    FULLSPACE

 POISSON| Solver                                                        PERIODIC
 POISSON| Periodicity                                                        XYZ

 RS_GRID| Information for grid number                                          8
 RS_GRID|   Bounds   1             -6       5                Points:          12
 RS_GRID|   Bounds   2             -6       5                Points:          12
 RS_GRID|   Bounds   3             -6       5                Points:          12

 Parameters for the always stable predictor-corrector (ASPC) method:

  ASPC order: 3

  B(1) =   3.000000
  B(2) =  -3.428571
  B(3) =   1.928571
  B(4) =  -0.571429
  B(5) =   0.071429

 Extrapolation method: ASPC

 Number of electrons:                                                          8
 Number of occupied orbitals:                                                  4
 Number of molecular orbitals:                                                 6

 Number of orbital functions:                                                  6
 Number of independent orbital functions:                                      6


 SCF WAVEFUNCTION OPTIMIZATION

  Step     Update method      Time    Convergence         Total energy    Change
  ------------------------------------------------------------------------------
     1 GXTB-Raw    0.10E+01    0.0     0.00000107       -76.4679429986 -7.65E+01
     2 GXTB-Simple 0.20E+00    0.0     0.00000040       -76.4679429986 -6.96E-13
     3 GXTB-Simple 0.20E+00    0.0     0.00000033       -76.4679429986 -4.83E-13
     4 GXTB-FDIIS  0.10E+01    0.0     0.00000171       -76.4679429986 -1.17E-12
     5 GXTB-FDIIS  0.10E+01    0.0     0.00000011       -76.4679429986 -1.42E-14
     6 GXTB-FDIIS  0.10E+01    0.0     2.9500E-09       -76.4679429986  1.42E-14
     7 GXTB-FDIIS  0.10E+01    0.0     7.3345E-10       -76.4679429986  0.00E+00
     8 GXTB-FDIIS  0.10E+01    0.0     1.1992E-11       -76.4679429986  0.00E+00

  *** SCF run converged in     8 steps ***


  Core Hamiltonian energy:                                     -6.33049700580216
  Repulsive potential energy:                                   0.41015845032589
  Electrostatic energy:                                         0.15055818988159
  Self-consistent dispersion energy:                           -0.00003930425867
  Non-self consistent dispersion energy:                        0.00000009742683
  Correction for halogen bonding:                               0.00000000000000

  Total energy:                                               -76.46794299864661


 MULLIKEN POPULATION ANALYSIS

  # Atom   Element   Kind        Atomic population                    Net charge
       1     O          1                 6.672127                     -0.672127
       2     H          2                 0.663937                      0.336063
       3     H          2                 0.663937                      0.336063
 # Total charge                           8.000000                     -0.000000


 tblite reference CLI check
 Executable: tblite
 Method:     gxtb
 Guess:      auto
 Solver:     gvd
 Spin-pol.:  F
 Grad file:  H2O_stress_L12_cli.grad
 JSON file:  H2O_stress_L12_cli.json
 Log file:   H2O_stress_L12_cli.log
 Energy CP2K/CLI/absdiff:   -7.646794299865E+01   -7.646794299842E+01    2.220730266345E-10
 Gradient diff sum/max:    4.131784249308E-07    1.676224739989E-07
 Virial diff sum/max:    1.296149853800E-01    6.999664145893E-02
 tblite reference CLI deviation exceeded ERROR_LIMIT =   1.0000E-05

 ENERGY| Total FORCE_EVAL ( QS ) energy [hartree]            -76.467942998646606

 -------------------------------------------------------------------------------
 ----                             MULTIGRID INFO                            ----
 -------------------------------------------------------------------------------
 total grid count     :           420              cutoff [a.u.]            1.00

 PW_GRID| Information for grid number                                          9
 PW_GRID| Cutoff [a.u.]                                                      1.0
 PW_GRID| spherical cutoff:                                                   NO
 PW_GRID|   Bounds   1             -6       5                Points:          12
 PW_GRID|   Bounds   2             -6       5                Points:          12
 PW_GRID|   Bounds   3             -6       5                Points:          12
 PW_GRID| Volume element (a.u.^3)   6.748         Volume (a.u.^3)     11661.1222
 PW_GRID| Grid span                                                    FULLSPACE

 POISSON| Solver                                                        PERIODIC
 POISSON| Periodicity                                                        XYZ

 RS_GRID| Information for grid number                                          9
 RS_GRID|   Bounds   1             -6       5                Points:          12
 RS_GRID|   Bounds   2             -6       5                Points:          12
 RS_GRID|   Bounds   3             -6       5                Points:          12

 Parameters for the always stable predictor-corrector (ASPC) method:

  ASPC order: 3

  B(1) =   3.000000
  B(2) =  -3.428571
  B(3) =   1.928571
  B(4) =  -0.571429
  B(5) =   0.071429

 Extrapolation method: ASPC

 Number of electrons:                                                          8
 Number of occupied orbitals:                                                  4
 Number of molecular orbitals:                                                 6

 Number of orbital functions:                                                  6
 Number of independent orbital functions:                                      6


 SCF WAVEFUNCTION OPTIMIZATION

  Step     Update method      Time    Convergence         Total energy    Change
  ------------------------------------------------------------------------------
     1 GXTB-Raw    0.10E+01    0.0     0.00000153       -76.4679429986 -7.65E+01
     2 GXTB-Simple 0.20E+00    0.0     0.00000079       -76.4679429986 -2.07E-12
     3 GXTB-Simple 0.20E+00    0.0     0.00000067       -76.4679429986 -1.51E-12
     4 GXTB-FDIIS  0.10E+01    0.0     0.00000347       -76.4679429986 -3.71E-12
     5 GXTB-FDIIS  0.10E+01    0.0     0.00000016       -76.4679429986  0.00E+00
     6 GXTB-FDIIS  0.10E+01    0.0     1.4911E-12       -76.4679429986  0.00E+00

  *** SCF run converged in     6 steps ***


  Core Hamiltonian energy:                                     -6.33049700580222
  Repulsive potential energy:                                   0.41015845032589
  Electrostatic energy:                                         0.15055818988169
  Self-consistent dispersion energy:                           -0.00003930425867
  Non-self consistent dispersion energy:                        0.00000009742683
  Correction for halogen bonding:                               0.00000000000000

  Total energy:                                               -76.46794299864661


 MULLIKEN POPULATION ANALYSIS

  # Atom   Element   Kind        Atomic population                    Net charge
       1     O          1                 6.672127                     -0.672127
       2     H          2                 0.663937                      0.336063
       3     H          2                 0.663937                      0.336063
 # Total charge                           8.000000                      0.000000


 tblite reference CLI check
 Executable: tblite
 Method:     gxtb
 Guess:      auto
 Solver:     gvd
 Spin-pol.:  F
 Grad file:  H2O_stress_L12_cli.grad
 JSON file:  H2O_stress_L12_cli.json
 Log file:   H2O_stress_L12_cli.log
 Energy CP2K/CLI/absdiff:   -7.646794299865E+01   -7.646794299842E+01    2.220730266345E-10
 Gradient diff sum/max:    4.131784249689E-07    1.676224740180E-07
 Virial diff sum/max:    1.296149853800E-01    6.999664145893E-02
 tblite reference CLI deviation exceeded ERROR_LIMIT =   1.0000E-05

 ENERGY| Total FORCE_EVAL ( QS ) energy [hartree]            -76.467942998646606

 -------------------------------------------------------------------------------
 ----                             MULTIGRID INFO                            ----
 -------------------------------------------------------------------------------
 total grid count     :           420              cutoff [a.u.]            1.00

 PW_GRID| Information for grid number                                         10
 PW_GRID| Cutoff [a.u.]                                                      1.0
 PW_GRID| spherical cutoff:                                                   NO
 PW_GRID|   Bounds   1             -6       5                Points:          12
 PW_GRID|   Bounds   2             -6       5                Points:          12
 PW_GRID|   Bounds   3             -6       5                Points:          12
 PW_GRID| Volume element (a.u.^3)   6.748         Volume (a.u.^3)     11661.1736
 PW_GRID| Grid span                                                    FULLSPACE

 POISSON| Solver                                                        PERIODIC
 POISSON| Periodicity                                                        XYZ

 RS_GRID| Information for grid number                                         10
 RS_GRID|   Bounds   1             -6       5                Points:          12
 RS_GRID|   Bounds   2             -6       5                Points:          12
 RS_GRID|   Bounds   3             -6       5                Points:          12

 Parameters for the always stable predictor-corrector (ASPC) method:

  ASPC order: 3

  B(1) =   3.000000
  B(2) =  -3.428571
  B(3) =   1.928571
  B(4) =  -0.571429
  B(5) =   0.071429

 Extrapolation method: ASPC

 Number of electrons:                                                          8
 Number of occupied orbitals:                                                  4
 Number of molecular orbitals:                                                 6

 Number of orbital functions:                                                  6
 Number of independent orbital functions:                                      6


 SCF WAVEFUNCTION OPTIMIZATION

  Step     Update method      Time    Convergence         Total energy    Change
  ------------------------------------------------------------------------------
     1 GXTB-Raw    0.10E+01    0.0     0.00000076       -76.4679428267 -7.65E+01
     2 GXTB-Simple 0.20E+00    0.0     0.00000040       -76.4679428268 -5.40E-13
     3 GXTB-Simple 0.20E+00    0.0     0.00000033       -76.4679428268 -3.55E-13
     4 GXTB-FDIIS  0.10E+01    0.0     0.00000173       -76.4679428268 -9.38E-13
     5 GXTB-FDIIS  0.10E+01    0.0     0.00000008       -76.4679428268  0.00E+00
     6 GXTB-FDIIS  0.10E+01    0.0     9.4020E-09       -76.4679428268  0.00E+00
     7 GXTB-FDIIS  0.10E+01    0.0     5.4895E-11       -76.4679428268  0.00E+00

  *** SCF run converged in     7 steps ***


  Core Hamiltonian energy:                                     -6.33049696945297
  Repulsive potential energy:                                   0.41015845082298
  Electrostatic energy:                                         0.15055816185902
  Self-consistent dispersion energy:                           -0.00003930425311
  Non-self consistent dispersion energy:                        0.00000009742657
  Correction for halogen bonding:                               0.00000000000000

  Total energy:                                               -76.46794282675151


 MULLIKEN POPULATION ANALYSIS

  # Atom   Element   Kind        Atomic population                    Net charge
       1     O          1                 6.672127                     -0.672127
       2     H          2                 0.663937                      0.336063
       3     H          2                 0.663937                      0.336063
 # Total charge                           8.000000                     -0.000000


 tblite reference CLI check
 Executable: tblite
 Method:     gxtb
 Guess:      auto
 Solver:     gvd
 Spin-pol.:  F
 Grad file:  H2O_stress_L12_cli.grad
 JSON file:  H2O_stress_L12_cli.json
 Log file:   H2O_stress_L12_cli.log
 Energy CP2K/CLI/absdiff:   -7.646794282675E+01   -7.646794282653E+01    2.220730266345E-10
 Gradient diff sum/max:    1.125708950231E-07    3.681669784317E-08
 Virial diff sum/max:    1.296141199151E-01    6.999664189210E-02
 tblite reference CLI deviation exceeded ERROR_LIMIT =   1.0000E-05

 ENERGY| Total FORCE_EVAL ( QS ) energy [hartree]            -76.467942826751511

 -------------------------------------------------------------------------------
 ----                             MULTIGRID INFO                            ----
 -------------------------------------------------------------------------------
 total grid count     :           420              cutoff [a.u.]            1.00

 PW_GRID| Information for grid number                                         11
 PW_GRID| Cutoff [a.u.]                                                      1.0
 PW_GRID| spherical cutoff:                                                   NO
 PW_GRID|   Bounds   1             -6       5                Points:          12
 PW_GRID|   Bounds   2             -6       5                Points:          12
 PW_GRID|   Bounds   3             -6       5                Points:          12
 PW_GRID| Volume element (a.u.^3)   6.748         Volume (a.u.^3)     11661.0707
 PW_GRID| Grid span                                                    FULLSPACE

 POISSON| Solver                                                        PERIODIC
 POISSON| Periodicity                                                        XYZ

 RS_GRID| Information for grid number                                         11
 RS_GRID|   Bounds   1             -6       5                Points:          12
 RS_GRID|   Bounds   2             -6       5                Points:          12
 RS_GRID|   Bounds   3             -6       5                Points:          12

 Parameters for the always stable predictor-corrector (ASPC) method:

  ASPC order: 3

  B(1) =   3.000000
  B(2) =  -3.428571
  B(3) =   1.928571
  B(4) =  -0.571429
  B(5) =   0.071429

 Extrapolation method: ASPC

 Number of electrons:                                                          8
 Number of occupied orbitals:                                                  4
 Number of molecular orbitals:                                                 6

 Number of orbital functions:                                                  6
 Number of independent orbital functions:                                      6


 SCF WAVEFUNCTION OPTIMIZATION

  Step     Update method      Time    Convergence         Total energy    Change
  ------------------------------------------------------------------------------
     1 GXTB-Raw    0.10E+01    0.0     2.0963E-09       -76.4679431705 -7.65E+01
     2 GXTB-Simple 0.20E+00    0.0     0.00000004       -76.4679431705  0.00E+00
     3 GXTB-Simple 0.20E+00    0.0     0.00000002       -76.4679431705  1.42E-14
     4 GXTB-FDIIS  0.10E+01    0.0     0.00000007       -76.4679431705 -1.42E-14
     5 GXTB-FDIIS  0.10E+01    0.0     9.5212E-09       -76.4679431705 -1.42E-14
     6 GXTB-FDIIS  0.10E+01    0.0     1.7428E-09       -76.4679431705  1.42E-14
     7 GXTB-FDIIS  0.10E+01    0.0     3.1289E-11       -76.4679431705  0.00E+00

  *** SCF run converged in     7 steps ***


  Core Hamiltonian energy:                                     -6.33049704216849
  Repulsive potential energy:                                   0.41015844985002
  Electrostatic energy:                                         0.15055821790376
  Self-consistent dispersion energy:                           -0.00003930426422
  Non-self consistent dispersion energy:                        0.00000009742709
  Correction for halogen bonding:                               0.00000000000000

  Total energy:                                               -76.46794317054228


 MULLIKEN POPULATION ANALYSIS

  # Atom   Element   Kind        Atomic population                    Net charge
       1     O          1                 6.672127                     -0.672127
       2     H          2                 0.663937                      0.336063
       3     H          2                 0.663937                      0.336063
 # Total charge                           8.000000                      0.000000


 tblite reference CLI check
 Executable: tblite
 Method:     gxtb
 Guess:      auto
 Solver:     gvd
 Spin-pol.:  F
 Grad file:  H2O_stress_L12_cli.grad
 JSON file:  H2O_stress_L12_cli.json
 Log file:   H2O_stress_L12_cli.log
 Energy CP2K/CLI/absdiff:   -7.646794317054E+01   -7.646794317032E+01    2.220872374892E-10
 Gradient diff sum/max:    4.335280815847E-08    1.988898742922E-08
 Virial diff sum/max:    1.296146161184E-01    6.999664121004E-02
 tblite reference CLI deviation exceeded ERROR_LIMIT =   1.0000E-05

 ENERGY| Total FORCE_EVAL ( QS ) energy [hartree]            -76.467943170542284

 -------------------------------------------------------------------------------
 ----                             MULTIGRID INFO                            ----
 -------------------------------------------------------------------------------
 total grid count     :           420              cutoff [a.u.]            1.00

 PW_GRID| Information for grid number                                         12
 PW_GRID| Cutoff [a.u.]                                                      1.0
 PW_GRID| spherical cutoff:                                                   NO
 PW_GRID|   Bounds   1             -6       5                Points:          12
 PW_GRID|   Bounds   2             -6       5                Points:          12
 PW_GRID|   Bounds   3             -6       5                Points:          12
 PW_GRID| Volume element (a.u.^3)   6.748         Volume (a.u.^3)     11661.1222
 PW_GRID| Grid span                                                    FULLSPACE

 POISSON| Solver                                                        PERIODIC
 POISSON| Periodicity                                                        XYZ

 RS_GRID| Information for grid number                                         12
 RS_GRID|   Bounds   1             -6       5                Points:          12
 RS_GRID|   Bounds   2             -6       5                Points:          12
 RS_GRID|   Bounds   3             -6       5                Points:          12

 Parameters for the always stable predictor-corrector (ASPC) method:

  ASPC order: 3

  B(1) =   3.000000
  B(2) =  -3.428571
  B(3) =   1.928571
  B(4) =  -0.571429
  B(5) =   0.071429

 Extrapolation method: ASPC

 Number of electrons:                                                          8
 Number of occupied orbitals:                                                  4
 Number of molecular orbitals:                                                 6

 Number of orbital functions:                                                  6
 Number of independent orbital functions:                                      6


 SCF WAVEFUNCTION OPTIMIZATION

  Step     Update method      Time    Convergence         Total energy    Change
  ------------------------------------------------------------------------------
     1 GXTB-Raw    0.10E+01    0.0     0.00000063       -76.4679429986 -7.65E+01
     2 GXTB-Simple 0.20E+00    0.0     0.00000026       -76.4679429986 -2.42E-13
     3 GXTB-Simple 0.20E+00    0.0     0.00000022       -76.4679429986 -1.56E-13
     4 GXTB-FDIIS  0.10E+01    0.0     0.00000110       -76.4679429986 -3.98E-13
     5 GXTB-FDIIS  0.10E+01    0.0     0.00000003       -76.4679429986  0.00E+00
     6 GXTB-FDIIS  0.10E+01    0.0     5.8896E-09       -76.4679429986  0.00E+00
     7 GXTB-FDIIS  0.10E+01    0.0     2.1219E-11       -76.4679429986  0.00E+00

  *** SCF run converged in     7 steps ***


  Core Hamiltonian energy:                                     -6.33049700580610
  Repulsive potential energy:                                   0.41015845033191
  Electrostatic energy:                                         0.15055818988107
  Self-consistent dispersion energy:                           -0.00003930425867
  Non-self consistent dispersion energy:                        0.00000009742683
  Correction for halogen bonding:                               0.00000000000000

  Total energy:                                               -76.46794299864614


 MULLIKEN POPULATION ANALYSIS

  # Atom   Element   Kind        Atomic population                    Net charge
       1     O          1                 6.672127                     -0.672127
       2     H          2                 0.663937                      0.336063
       3     H          2                 0.663937                      0.336063
 # Total charge                           8.000000                      0.000000


 tblite reference CLI check
 Executable: tblite
 Method:     gxtb
 Guess:      auto
 Solver:     gvd
 Spin-pol.:  F
 Grad file:  H2O_stress_L12_cli.grad
 JSON file:  H2O_stress_L12_cli.json
 Log file:   H2O_stress_L12_cli.log
 Energy CP2K/CLI/absdiff:   -7.646794299865E+01   -7.646794299842E+01    2.220730266345E-10
 Gradient diff sum/max:    6.341607526310E-07    2.781063444554E-07
 Virial diff sum/max:    1.296145520206E-01    6.999664147144E-02
 tblite reference CLI deviation exceeded ERROR_LIMIT =   1.0000E-05

 ENERGY| Total FORCE_EVAL ( QS ) energy [hartree]            -76.467942998646137

 -------------------------------------------------------------------------------
 ----                             MULTIGRID INFO                            ----
 -------------------------------------------------------------------------------
 total grid count     :           420              cutoff [a.u.]            1.00

 PW_GRID| Information for grid number                                         13
 PW_GRID| Cutoff [a.u.]                                                      1.0
 PW_GRID| spherical cutoff:                                                   NO
 PW_GRID|   Bounds   1             -6       5                Points:          12
 PW_GRID|   Bounds   2             -6       5                Points:          12
 PW_GRID|   Bounds   3             -6       5                Points:          12
 PW_GRID| Volume element (a.u.^3)   6.748         Volume (a.u.^3)     11661.1222
 PW_GRID| Grid span                                                    FULLSPACE

 POISSON| Solver                                                        PERIODIC
 POISSON| Periodicity                                                        XYZ

 RS_GRID| Information for grid number                                         13
 RS_GRID|   Bounds   1             -6       5                Points:          12
 RS_GRID|   Bounds   2             -6       5                Points:          12
 RS_GRID|   Bounds   3             -6       5                Points:          12

 Parameters for the always stable predictor-corrector (ASPC) method:

  ASPC order: 3

  B(1) =   3.000000
  B(2) =  -3.428571
  B(3) =   1.928571
  B(4) =  -0.571429
  B(5) =   0.071429

 Extrapolation method: ASPC

 Number of electrons:                                                          8
 Number of occupied orbitals:                                                  4
 Number of molecular orbitals:                                                 6

 Number of orbital functions:                                                  6
 Number of independent orbital functions:                                      6


 SCF WAVEFUNCTION OPTIMIZATION

  Step     Update method      Time    Convergence         Total energy    Change
  ------------------------------------------------------------------------------
     1 GXTB-Raw    0.10E+01    0.0     0.00000126       -76.4679429986 -7.65E+01
     2 GXTB-Simple 0.20E+00    0.0     0.00000053       -76.4679429986 -9.52E-13
     3 GXTB-Simple 0.20E+00    0.0     0.00000044       -76.4679429986 -6.54E-13
     4 GXTB-FDIIS  0.10E+01    0.0     0.00000221       -76.4679429986 -1.58E-12
     5 GXTB-FDIIS  0.10E+01    0.0     0.00000006       -76.4679429986  0.00E+00
     6 GXTB-FDIIS  0.10E+01    0.0     6.8090E-13       -76.4679429986  0.00E+00

  *** SCF run converged in     6 steps ***


  Core Hamiltonian energy:                                     -6.33049700580615
  Repulsive potential energy:                                   0.41015845033191
  Electrostatic energy:                                         0.15055818988105
  Self-consistent dispersion energy:                           -0.00003930425867
  Non-self consistent dispersion energy:                        0.00000009742683
  Correction for halogen bonding:                               0.00000000000000

  Total energy:                                               -76.46794299864614


 MULLIKEN POPULATION ANALYSIS

  # Atom   Element   Kind        Atomic population                    Net charge
       1     O          1                 6.672127                     -0.672127
       2     H          2                 0.663937                      0.336063
       3     H          2                 0.663937                      0.336063
 # Total charge                           8.000000                      0.000000


 tblite reference CLI check
 Executable: tblite
 Method:     gxtb
 Guess:      auto
 Solver:     gvd
 Spin-pol.:  F
 Grad file:  H2O_stress_L12_cli.grad
 JSON file:  H2O_stress_L12_cli.json
 Log file:   H2O_stress_L12_cli.log
 Energy CP2K/CLI/absdiff:   -7.646794299865E+01   -7.646794299842E+01    2.220730266345E-10
 Gradient diff sum/max:    6.341607528212E-07    2.781063445505E-07
 Virial diff sum/max:    1.296145520206E-01    6.999664147144E-02
 tblite reference CLI deviation exceeded ERROR_LIMIT =   1.0000E-05

 ENERGY| Total FORCE_EVAL ( QS ) energy [hartree]            -76.467942998646137

 -------------------------------------------------------------------------------
 ----                             MULTIGRID INFO                            ----
 -------------------------------------------------------------------------------
 total grid count     :           420              cutoff [a.u.]            1.00

 PW_GRID| Information for grid number                                         14
 PW_GRID| Cutoff [a.u.]                                                      1.0
 PW_GRID| spherical cutoff:                                                   NO
 PW_GRID|   Bounds   1             -6       5                Points:          12
 PW_GRID|   Bounds   2             -6       5                Points:          12
 PW_GRID|   Bounds   3             -6       5                Points:          12
 PW_GRID| Volume element (a.u.^3)   6.748         Volume (a.u.^3)     11661.1222
 PW_GRID| Grid span                                                    FULLSPACE

 POISSON| Solver                                                        PERIODIC
[...]
     4 GXTB-FDIIS  0.10E+01    0.0     0.00000250       -76.4679429076 -1.36E-12
     5 GXTB-FDIIS  0.10E+01    0.0     0.00000016       -76.4679429076 -1.42E-14
     6 GXTB-FDIIS  0.10E+01    0.0     0.00000006       -76.4679429076  0.00E+00
     7 GXTB-FDIIS  0.10E+01    0.0     1.1064E-10       -76.4679429076 -1.42E-14
     8 GXTB-FDIIS  0.10E+01    0.0     1.0214E-14       -76.4679429076  0.00E+00

  *** SCF run converged in     8 steps ***


  Core Hamiltonian energy:                                     -6.33049908123311
  Repulsive potential energy:                                   0.41016053533108
  Electrostatic energy:                                         0.15055829124950
  Self-consistent dispersion energy:                           -0.00003930416819
  Non-self consistent dispersion energy:                        0.00000009742180
  Correction for halogen bonding:                               0.00000000000000

  Total energy:                                               -76.46794290763575


 MULLIKEN POPULATION ANALYSIS

  # Atom   Element   Kind        Atomic population                    Net charge
       1     O          1                 6.672127                     -0.672127
       2     H          2                 0.663936                      0.336064
       3     H          2                 0.663936                      0.336064
 # Total charge                           8.000000                     -0.000000


 tblite reference CLI check
 Executable: tblite
 Method:     gxtb
 Guess:      auto
 Solver:     gvd
 Spin-pol.:  F
 Grad file:  H2O_stress_L12_cli.grad
 JSON file:  H2O_stress_L12_cli.json
 Log file:   H2O_stress_L12_cli.log
 Energy CP2K/CLI/absdiff:   -7.646794290764E+01   -7.646794290741E+01    2.221014483439E-10
 Gradient diff sum/max:    5.861057611469E-06    1.838309081181E-06
 Virial diff sum/max:    1.296186273877E-01    6.999969811505E-02
 tblite reference CLI deviation exceeded ERROR_LIMIT =   1.0000E-05

 ENERGY| Total FORCE_EVAL ( QS ) energy [hartree]            -76.467942907635745

 -------------------------------------------------------------------------------
 ----                             MULTIGRID INFO                            ----
 -------------------------------------------------------------------------------
 total grid count     :           420              cutoff [a.u.]            1.00

 PW_GRID| Information for grid number                                         20
 PW_GRID| Cutoff [a.u.]                                                      1.0
 PW_GRID| spherical cutoff:                                                   NO
 PW_GRID|   Bounds   1             -6       5                Points:          12
 PW_GRID|   Bounds   2             -6       5                Points:          12
 PW_GRID|   Bounds   3             -6       5                Points:          12
 PW_GRID| Volume element (a.u.^3)   6.748         Volume (a.u.^3)     11661.1222
 PW_GRID| Grid span                                                    FULLSPACE

 POISSON| Solver                                                        PERIODIC
 POISSON| Periodicity                                                        XYZ

 RS_GRID| Information for grid number                                         20
 RS_GRID|   Bounds   1             -6       5                Points:          12
 RS_GRID|   Bounds   2             -6       5                Points:          12
 RS_GRID|   Bounds   3             -6       5                Points:          12

 Parameters for the always stable predictor-corrector (ASPC) method:

  ASPC order: 3

  B(1) =   3.000000
  B(2) =  -3.428571
  B(3) =   1.928571
  B(4) =  -0.571429
  B(5) =   0.071429

 Extrapolation method: ASPC

 Number of electrons:                                                          8
 Number of occupied orbitals:                                                  4
 Number of molecular orbitals:                                                 6

 Number of orbital functions:                                                  6
 Number of independent orbital functions:                                      6


 SCF WAVEFUNCTION OPTIMIZATION

  Step     Update method      Time    Convergence         Total energy    Change
  ------------------------------------------------------------------------------
     1 GXTB-Raw    0.10E+01    0.0     0.00000116       -76.4679429986 -7.65E+01
     2 GXTB-Simple 0.20E+00    0.0     0.00000032       -76.4679429986 -2.27E-13
     3 GXTB-Simple 0.20E+00    0.0     0.00000027       -76.4679429986 -1.56E-13
     4 GXTB-FDIIS  0.10E+01    0.0     0.00000125       -76.4679429986 -3.27E-13
     5 GXTB-FDIIS  0.10E+01    0.0     0.00000008       -76.4679429986 -1.42E-14
     6 GXTB-FDIIS  0.10E+01    0.0     0.00000003       -76.4679429986  1.42E-14
     7 GXTB-FDIIS  0.10E+01    0.0     5.5361E-11       -76.4679429986  0.00E+00

  *** SCF run converged in     7 steps ***


  Core Hamiltonian energy:                                     -6.33049700581073
  Repulsive potential energy:                                   0.41015845033651
  Electrostatic energy:                                         0.15055818988128
  Self-consistent dispersion energy:                           -0.00003930425867
  Non-self consistent dispersion energy:                        0.00000009742683
  Correction for halogen bonding:                               0.00000000000000

  Total energy:                                               -76.46794299864592


 MULLIKEN POPULATION ANALYSIS

  # Atom   Element   Kind        Atomic population                    Net charge
       1     O          1                 6.672127                     -0.672127
       2     H          2                 0.663937                      0.336063
       3     H          2                 0.663937                      0.336063
 # Total charge                           8.000000                      0.000000


 tblite reference CLI check
 Executable: tblite
 Method:     gxtb
 Guess:      auto
 Solver:     gvd
 Spin-pol.:  F
 Grad file:  H2O_stress_L12_cli.grad
 JSON file:  H2O_stress_L12_cli.json
 Log file:   H2O_stress_L12_cli.log
 Energy CP2K/CLI/absdiff:   -7.646794299865E+01   -7.646794299842E+01    2.220588157797E-10
 Gradient diff sum/max:    7.796201665940E-08    1.967886643223E-08
 Virial diff sum/max:    1.296143680173E-01    6.999664147818E-02
 tblite reference CLI deviation exceeded ERROR_LIMIT =   1.0000E-05

 ENERGY| Total FORCE_EVAL ( QS ) energy [hartree]            -76.467942998645924
 DEBUG| Numerical pv_virial [a.u.]
 DEBUG|                   0.069996588036      0.000000000000      0.000000000000
 DEBUG|                   0.000000000000     -0.038980224550      0.000000000000
 DEBUG|                   0.000000000000      0.000000000000      0.020637482779

 DEBUG| Analytical pv_virial [a.u.]
 DEBUG|                   0.069996586263      0.000000000000     -0.000000000000
 DEBUG|                   0.000000000000     -0.038980224684      0.000000000000
 DEBUG|                  -0.000000000000      0.000000000000      0.020637483789

 DEBUG| Difference pv_virial [a.u.]
 DEBUG|                   0.000000001773     -0.000000000000      0.000000000000
 DEBUG|                  -0.000000000000      0.000000000134     -0.000000000000
 DEBUG|                   0.000000000000     -0.000000000000     -0.000000001010
 DEBUG| Sum of differences                                        0.000000002917

 DEBUG| Relative error pv_virial
 DEBUG| Threshold value for error check [a.u.]                    1.00000000E-05
 DEBUG|                           0.00 %                 - %                 - %
 DEBUG|                              - %             -0.00 %                 - %
 DEBUG|                              - %                 - %             -0.00 %
 DEBUG| Maximum accepted error                                            0.20 %

 -------------------------------------------------------------------------------
 -                                                                             -
 -                                DBCSR STATISTICS                             -
 -                                                                             -
 -------------------------------------------------------------------------------
 COUNTER                                    TOTAL       BLAS       SMM       ACC
 flops     1 x     6 x     1                 3168     100.0%      0.0%      0.0%     
 flops     1 x     1 x     6                 5832     100.0%      0.0%      0.0%     
 flops     4 x     6 x     1                 6336     100.0%      0.0%      0.0%     
 flops     1 x     6 x     4                 6336     100.0%      0.0%      0.0%     
 flops     4 x     1 x     6                 7776     100.0%      0.0%      0.0%     
 flops     1 x     4 x     6                 7776     100.0%      0.0%      0.0%     
 flops     4 x     6 x     4                12672     100.0%      0.0%      0.0%     
 flops     4 x     4 x     6                31104     100.0%      0.0%      0.0%     
 flops inhomo. stacks                           0       0.0%      0.0%      0.0%
 flops total                        81.000000E+03     100.0%      0.0%      0.0%
 flops max/rank                     81.000000E+03     100.0%      0.0%      0.0%
 matmuls inhomo. stacks                         0       0.0%      0.0%      0.0%
 matmuls total                               1566     100.0%      0.0%      0.0%
 number of processed stacks                   912     100.0%      0.0%      0.0%
 average stack size                                     1.7       0.0       0.0
 marketing flops                    75.168000E+03
 -------------------------------------------------------------------------------
 # multiplications                            228
 max memory usage/rank               9.875968E+09
 # max total images/rank                        1
 # max 3D layers                                1
 # MPI messages exchanged                       0
 -------------------------------------------------------------------------------
 -                                                                             -
 -                      DBCSR MESSAGE PASSING PERFORMANCE                      -
 -                                                                             -
 -------------------------------------------------------------------------------
 ROUTINE             CALLS      AVE VOLUME [Bytes]
 MP_Bcast                9                     12.
 MP_Allreduce         1043                      9.
 MP_Alltoall          5922                    254.
 MP_ISend              912                     77.
 MP_IRecv              912                     77.
 -------------------------------------------------------------------------------

 -------------------------------------------------------------------------------
 -                                                                             -
 -                          OFFLOAD MEMPOOL STATISTICS                         -
 -                                                                             -
 -------------------------------------------------------------------------------
 Memory consumption                Number of allocations  Used [MiB]  Size [MiB]
 Host                                                  1           0           0
 -------------------------------------------------------------------------------

 MEMORY| Estimated peak process memory [MiB]                                 116

 -------------------------------------------------------------------------------
 ----                             MULTIGRID INFO                            ----
 -------------------------------------------------------------------------------
 total grid count     :           420              cutoff [a.u.]            1.00

 -------------------------------------------------------------------------------
 -                                                                             -
 -                         MESSAGE PASSING PERFORMANCE                         -
 -                                                                             -
 -------------------------------------------------------------------------------

 ROUTINE             CALLS      AVE VOLUME [Bytes]
 MP_Group               20
 MP_Bcast              284                     26.
 MP_Allreduce         4643                     50.
 MP_Sync               162
 MP_comm_split         142
 -------------------------------------------------------------------------------


 -------------------------------------------------------------------------------
 -                                                                             -
 -                           R E F E R E N C E S                               -
 -                                                                             -
 -------------------------------------------------------------------------------
 
 CP2K version 2026.2 (Development Version), the CP2K developers group (2026).
 CP2K is freely available from https://www.cp2k.org/ .
 
 M. Iannuzzi, J. Wilhelm, F. Stein, A. Bussy, H. Elgabarty, D. Golze, A. Hehn, 
 M. Graml, S. Marek, B. Sertcan Gökmen, C. Schran, H. Forbert, R. Z. 
 Khaliullin, A. Kozhevnikov, M. Taillefumier, R. Meli, V. V. Rybkin, M. Brehm, 
 R. Schade, O. Schütt, J. V. Pototschnig, H. Mirhosseini, A. Knüpfer, D. Marx, 
 M. Krack, J. Hutter, T. D. Kühne.
 J. Phys. Chem. B 130, 1237-1310 (2026).
 The CP2K Program Package Made Simple.
 https://doi.org/10.1021/acs.jpcb.5c05851

 A. Katbashev, M. Stahn, T. Rose, V. Alizadeh, M. Friede, C. Plett, P. 
 Steinbach, S. Ehlert.
 J. Phys. Chem. A 129, 2667-2682 (2025).
 Overview on Building Blocks and Applications of Efficient and Robust Extended 
 Tight Binding.
 https://doi.org/10.1021/acs.jpca.4c08263

 T. D. Kühne, M. Iannuzzi, M. Del Ben, V. V. Rybkin, P. Seewald, F. Stein, T. 
 Laino, R. Z. Khaliullin, O. Schütt, F. Schiffmann, D. Golze, J. Wilhelm, S. 
 Chulkov, M. H. Bani-Hashemian, V. Weber, U. Borstnik, M. Taillefumier, A. S. 
 Jakobovits, A. Lazzaro, H. Pabst, T. Müller, R. Schade, M. Guidon, S. 
 Andermatt, N. Holmberg, G. K. Schenter, A. Hehn, A. Bussy, F. Belleflamme, G. 
 Tabacchi, A. Glöß, M. Lass, I. Bethune, C. J. Mundy, C. Plessl, M. Watkins, 
 J. VandeVondele, M. Krack, J. Hutter.
 J. Chem. Phys. 152, 194103 (2020).
 CP2K: An electronic structure and molecular dynamics software package - 
 Quickstep: Efficient and accurate electronic structure calculations.
 https://doi.org/10.1063/5.0007045

 P. Pracht, E. Caldeweyher, S. Ehlert, S. Grimme.
 ChemRxiv, (2019).
 A Robust Non-Self-Consistent Tight-Binding Quantum Chemistry Method for large 
 Molecules.
 https://doi.org/10.26434/chemrxiv.8326202.v1

 S. Grimme, C. Bannwarth, P. Shushkov.
 J. Chem. Theory Comput. 13, 1989 (2017).
 A Robust and Accurate Tight-Binding Quantum Chemical Method for Structures, 
 Vibrational Frequencies, and Noncovalent Interactions of Large Molecular 
 Systems Parametrized for All spd-Block Elements (Z = 1-86).
 https://doi.org/10.1021/acs.jctc.7b00118

 O. Schuett, P. Messmer, J. Hutter, J. VandeVondele.
 Electronic Structure Calculations on Graphics Processing Units, 173-190 (2016).
 GPU-Accelerated Sparse Matrix-Matrix Multiplication for Linear Scaling Density 
 Functional Theory.
 https://doi.org/10.1002/9781118670712.ch8

 U. Borstnik, J. VandeVondele, V. Weber, J. Hutter.
 Parallel Comput. 40, 47-58 (2014).
 Sparse matrix multiplication: The distributed block-compressed sparse row 
 library.
 https://doi.org/10.1016/j.parco.2014.03.012

 T. D. Kühne, M. Krack, F. R. Mohamed, M. Parrinello.
 Phys. Rev. Lett. 98, 066401 (2007).
 Efficient and accurate Car-Parrinello-like approach to Born-Oppenheimer 
 molecular dynamics.
 https://doi.org/10.1103/PhysRevLett.98.066401

 M. Frigo, S. G. Johnson.
 Proc. IEEE 93, 216-231 (2005).
 The design and implementation of FFTW3.
 https://doi.org/10.1109/JPROC.2004.840301

 J. Kolafa.
 J. Comput. Chem. 25, 335-342 (2004).
 Time-reversible always stable predictor-corrector method for molecular dynamics 
 of polarizable molecules.
 https://doi.org/10.1002/jcc.10385


 -------------------------------------------------------------------------------
 -                                                                             -
 -                                T I M I N G                                  -
 -                                                                             -
 -------------------------------------------------------------------------------
 SUBROUTINE                       CALLS  ASD         SELF TIME        TOTAL TIME
                                MAXIMUM       AVERAGE  MAXIMUM  AVERAGE  MAXIMUM
 CP2K                                 1  1.0    0.004    0.004    0.588    0.588
 qs_energies                         20  2.0    0.001    0.001    0.553    0.553
 tb_reference_cli_compare            20  3.0    0.301    0.301    0.301    0.301
 scf_env_do_scf                      20  3.0    0.000    0.000    0.150    0.150
 scf_env_do_scf_inner_loop          142  4.1    0.017    0.017    0.149    0.149
 qs_scf_new_mos                     142  5.1    0.002    0.002    0.106    0.106
 calculate_dm_sparse                161  6.1    0.000    0.000    0.075    0.075
 cp_dbcsr_plus_fm_fm_t              162  7.1    0.001    0.001    0.075    0.075
 dbcsr_multiply_generic             228  8.0    0.005    0.005    0.069    0.069
 build_tblite_matrices               21  4.0    0.055    0.055    0.061    0.061
 qs_energies_init_hamiltonians       20  3.0    0.000    0.000    0.059    0.059
 init_scf_run                        20  3.0    0.000    0.000    0.044    0.044
 qs_forces                            1  2.0    0.000    0.000    0.041    0.041
 scf_env_initial_rho_setup           20  4.0    0.000    0.000    0.041    0.041
 wfi_extrapolate                     20  5.0    0.001    0.001    0.041    0.041
 make_m2s                           456  9.0    0.002    0.002    0.036    0.036
 dbcsr_complete_redistribute        618  8.2    0.012    0.012    0.029    0.029
 copy_dbcsr_to_fm                   228  6.2    0.002    0.002    0.028    0.028
 cp_dbcsr_sm_fm_multiply             66  6.0    0.000    0.000    0.026    0.026
 rebuild_ks_matrix                  162  5.8    0.000    0.000    0.025    0.025
 build_tblite_ks_matrix             162  6.8    0.021    0.021    0.025    0.025
 qs_ks_update_qs_env                161  4.8    0.000    0.000    0.021    0.021
 eigensolver                        142  6.1    0.005    0.005    0.020    0.020
 copy_fm_to_dbcsr                   390  7.9    0.001    0.001    0.020    0.020
 make_images                        456 10.0    0.004    0.004    0.017    0.017
 multiply_cannon                    228  9.0    0.010    0.010    0.017    0.017
 cp_dbcsr_sm_fm_multiply_core        66  7.0    0.000    0.000    0.014    0.014
 cp_fm_syevd                        142  7.1    0.000    0.000    0.013    0.013
 dbcsr_create_new                  5162  9.4    0.010    0.010    0.013    0.013
 dbcsr_finalize                    3426  8.8    0.004    0.004    0.013    0.013
 -------------------------------------------------------------------------------

 The number of warnings for this run is : 1
 
 -------------------------------------------------------------------------------
  **** **** ******  **  PROGRAM ENDED AT                 2026-07-21 16:09:55.086
 ***** ** ***  *** **   PROGRAM RAN ON                                     terok
 **    ****   ******    PROGRAM RAN BY                                  kuehne88
 ***** **    ** ** **   PROGRAM PROCESS ID                               1024811
  **** **  *******  **  PROGRAM STOPPED IN /home/kuehne88/work/h2o-molecular-lim
                                           it-20260721/stress_debug_8_50/raw/H2O
                                           _stress_L12
