 DBCSR| CPU Multiplication driver                                           XSMM (U)
 DBCSR| Multrec recursion limit                                              512 (U)
 DBCSR| Multiplication stack size                                           1000 (D)
 DBCSR| Maximum elements for images                                    UNLIMITED (U)
 DBCSR| Multiplicative factor virtual images                                   1 (U)
 DBCSR| Use multiplication densification                                       T (D)
 DBCSR| Multiplication size stacks                                             3 (U)
 DBCSR| Use memory pool for CPU allocation                                     F (U)
 DBCSR| Number of 3D layers                                               SINGLE (U)
 DBCSR| Use MPI memory allocation                                              F (U)
 DBCSR| Use RMA algorithm                                                      F (U)
 DBCSR| Use Communication thread                                               T (U)
 DBCSR| Communication thread load                                             87 (D)
 DBCSR| MPI: My process id                                                     0
 DBCSR| MPI: Number of processes                                               1
 DBCSR| OMP: Current number of threads                                         1
 DBCSR| OMP: Max number of threads                                             1
 DBCSR| Split modifier for TAS multiplication algorithm                  1.0E+00 (U)


  **** **** ******  **  PROGRAM STARTED AT               2026-05-23 22:46:52.759
 ***** ** ***  *** **   PROGRAM STARTED ON                            spark-c86c
 **    ****   ******    PROGRAM STARTED BY                              kuehne88
 ***** **    ** ** **   PROGRAM PROCESS ID                               2265953
  **** **  *******  **  PROGRAM STARTED IN /home/kuehne88/periodic-gfn2-benchmar
                                           ks/X23b/runs/cellopt_gamma/GFN1/oxali
                                           c_acid_alpha_GFN1_gamma_cellopt

 CP2K| version string:                 CP2K version 2026.1 (Development Version)
 CP2K| source code revision number:                                   0622d442e4
 CP2K| cp2kflags: omp fftw3 libxc parallel scalapack mpi_f08 xsmm spglib libdftd
 CP2K|            4 dftd4_v3 mctc-lib tblite
 CP2K| is freely available from                            https://www.cp2k.org/
 CP2K| Program compiled at                                   2026-05-23 22:05:08
 CP2K| Program compiled on                                            spark-c86c
 CP2K| Program compiled for                                              aarch64
 CP2K| Data directory path    /home/kuehne88/cp2k-master-tblite-20260523/install
 CP2K| Input file name                  oxalic_acid_alpha_GFN1_gamma_cellopt.inp

 GLOBAL| Force Environment number                                              1
 GLOBAL| Basis set file name                                           BASIS_SET
 GLOBAL| Potential file name                                           POTENTIAL
 GLOBAL| MM Potential file name                                     MM_POTENTIAL
 GLOBAL| Coordinate file name                                      __STD_INPUT__
 GLOBAL| Method name                                                        CP2K
 GLOBAL| Project name                      oxalic_acid_alpha_GFN1_gamma_cell_opt
 GLOBAL| Run type                                                       CELL_OPT
 GLOBAL| FFT library                                                       FFTW3
 GLOBAL| Diagonalization library                                       ScaLAPACK
 GLOBAL| Cholesky decomposition library                                ScaLAPACK
 GLOBAL| DGEMM library                                                      BLAS
 GLOBAL| Direct generalized diagonalization requested                          F
 GLOBAL| Orthonormality check for eigenvectors                          DISABLED
 GLOBAL| Matrix multiplication library                                 ScaLAPACK
 GLOBAL| All-to-all communication in single precision                          F
 GLOBAL| FFTs using library dependent lengths                                  F
 GLOBAL| Grid backend                                                       AUTO
 GLOBAL| Global print level                                                  LOW
 GLOBAL| MPI I/O enabled                                                       T
 GLOBAL| Total number of message passing processes                             1
 GLOBAL| Number of distributed systems (nodes)                                 1
 GLOBAL| Number of threads for this process                                    1
 GLOBAL| This output is from process                                           0
 GLOBAL| OpenMP stack size per thread (OMP_STACKSIZE)                    default
 GLOBAL| CPU model name                                                  UNKNOWN
 GLOBAL| CPUID                                                              2200
 GLOBAL| Compiled for CPUID                                                 2000

 *** HINT in environment.F:970 :: The compiler target flags (arm_arch64)   ***
 *** used to build this binary cannot exploit all extensions of this CPU   ***
 *** model (arm_sve256). Consider compiler target flags as part of FCFLAGS ***
 *** and CFLAGS (ARCH file).                                               ***


 MEMORY| system memory details [Kb]
 MEMORY|                        rank 0           min           max       average
 MEMORY| MemTotal            125508532     125508532     125508532     125508532
 MEMORY| MemFree             102045964     102045964     102045964     102045964
 MEMORY| Buffers                867448        867448        867448        867448
 MEMORY| Cached               13965432      13965432      13965432      13965432
 MEMORY| Slab                  1590500       1590500       1590500       1590500
 MEMORY| SReclaimable           912108        912108        912108        912108
 MEMORY| MemLikelyFree       117790952     117790952     117790952     117790952


 GENERATE|  Preliminary Number of Bonds generated:                             0
 GENERATE|  Achieved consistency in connectivity generation.


                  #####   #####        #     #   #     #       #          
                 #     # #     #      #    ##### #     #   # #####  ####  
                 #     # #           #       #   ###   #       #   #    # 
                 #     #  #####     #        #   #  #  #   #   #   ###### 
                 #   # #       #   #         #   #   # #   #   #   #      
                 #    #  #     #  #          #   #  #  # # #   #    #   # 
                  #### #  #####  #           #   ###   ##  #   #     ###  

                                   GFN1-xTB  
                                 Version 0.0                       
                            Johann V. Pototschnig                  



 TOTAL NUMBERS AND MAXIMUM NUMBERS

  Total number of            - Atomic kinds:                                   3
                             - Atoms:                                         32
                             - Shell sets:                                    64
                             - Shells:                                        64
                             - Primitive Cartesian functions:                376
                             - Cartesian basis functions:                    112
                             - Spherical basis functions:                    112

  Maximum angular momentum of the orbital basis functions:                     1


 SCF PARAMETERS         Density guess:                                     MOPAC
                        --------------------------------------------------------
                        max_scf:                                             300
                        max_scf_history:                                       0
                        max_diis:                                              4
                        --------------------------------------------------------
                        eps_scf:                                        1.00E-09
                        eps_scf_history:                                0.00E+00
                        eps_diis:                                       1.00E-01
                        eps_eigval:                                     1.00E-05
                        --------------------------------------------------------
                        level_shift [a.u.]:                             0.000000
                        added MOs                                        44    0
                        --------------------------------------------------------
                        Mixing method:                           DIRECT_P_MIXING
                        --------------------------------------------------------
                        Smear method:                                FERMI_DIRAC
                        Electronic temperature [K]:                        300.0
                        Electronic temperature [a.u.]:                  9.50E-04
                        Accuracy threshold:                             1.00E-06
                        --------------------------------------------------------
                        No outer SCF

 CELL_OPT| Pressure tolerance [bar]:                                       100.0
 CELL_OPT| Keep volume of cell:                                               NO
 CELL_OPT| Keep angles between the cell vectors:                              NO
 CELL_OPT| Keep cell symmetry:                                                NO
 CELL_OPT| Constraint:                                                      NONE

 BFGS| Use rational function optimization for step estimation:                NO
 BFGS| Use model Hessian for initial guess:                                   NO
 BFGS| Restart Hessian:                                                       NO
 BFGS| Trust radius:                                                       0.472

 *******************************************************************************
 ***                     STARTING   CELL   OPTIMIZATION                      ***
 ***                                   BFGS                                  ***
 *******************************************************************************

 CELL| Volume [angstrom^3]:                                           312.592248
 CELL| Vector a [angstrom]:       6.548     0.000     0.000   |a| =     6.548000
 CELL| Vector b [angstrom]:       0.000     7.844     0.000   |b| =     7.844000
 CELL| Vector c [angstrom]:       0.000     0.000     6.086   |c| =     6.086000
 CELL| Angle (b,c), alpha [degree]:                                    90.000000
 CELL| Angle (a,c), beta  [degree]:                                    90.000000
 CELL| Angle (a,b), gamma [degree]:                                    90.000000
 CELL| Numerically orthorhombic:                                             YES
 CELL| Periodicity                                                           XYZ

 Extrapolation method: initial_guess

 Number of electrons:                                                        136
 Number of occupied orbitals:                                                 68
 Number of molecular orbitals:                                               112

 Number of orbital functions:                                                112
 Number of independent orbital functions:                                    112


 SCF WAVEFUNCTION OPTIMIZATION

  Step     Update method      Time    Convergence         Total energy    Change
  ------------------------------------------------------------------------------
     1 TBLite/Diag 0.40E+00    0.0     1.56614791       -94.0186211236 -9.40E+01
     2 TBLite/Diag 0.40E+00    0.0     0.30399222       -96.5273535172 -2.51E+00
     3 TBLite/Diag 0.40E+00    0.0     0.02108835       -96.5367797412 -9.43E-03
     4 TBLite/Diag 0.40E+00    0.0     0.01912758       -96.5383979121 -1.62E-03
     5 TBLite/Diag 0.40E+00    0.0     0.00856621       -96.5384416056 -4.37E-05
     6 TBLite/Diag 0.40E+00    0.0     0.00468073       -96.5387594134 -3.18E-04
     7 TBLite/Diag 0.40E+00    0.0     0.00038599       -96.5387622335 -2.82E-06
     8 TBLite/Diag 0.40E+00    0.0     0.00004869       -96.5387622578 -2.42E-08
     9 TBLite/Diag 0.40E+00    0.0     0.00000928       -96.5387622590 -1.20E-09
    10 TBLite/Diag 0.40E+00    0.0     0.00000055       -96.5387622590 -4.79E-12
    11 TBLite/Diag 0.40E+00    0.0     4.5788E-10       -96.5387622590 -1.14E-13

  *** SCF run converged in    11 steps ***


  Core Hamiltonian energy:                                    -97.83406835663223
  Repulsive potential energy:                                   0.72019203420393
  Electrostatic energy:                                         0.63457846779811
  Self-consistent dispersion energy:                            0.00000000000000
  Non-self consistent dispersion energy:                       -0.05946440434248
  Correction for halogen bonding:                               0.00000000000000
  Electronic entropic energy:                                  -0.00000000000000
  Fermi energy:                                                -0.36213502412263

  Total energy:                                               -96.53876225897267
  Total energy (extrapolated to T->0):                        -96.53876225897267

 ENERGY| Total FORCE_EVAL ( QS ) energy [hartree]            -96.538762258972667

 OPT| **************************************************************************
 OPT| Step number                                                              0
 OPT| Optimization method                                                   BFGS
 OPT| Total energy [hartree]                                      -96.5387622590
 OPT| Internal pressure [bar]                                   28108.6939971639
 OPT| Used time [s]                                                        0.387
 OPT| **************************************************************************
 OPT| Estimated peak process memory [MiB]                                    168

 --------------------------
 OPTIMIZATION STEP:      1
 --------------------------

 CELL| Volume [angstrom^3]:                                           313.632149
 CELL| Vector a [angstrom]:       6.546     0.000     0.000   |a| =     6.546238
 CELL| Vector b [angstrom]:       0.000     7.859     0.000   |b| =     7.859293
 CELL| Vector c [angstrom]:       0.000     0.000     6.096   |c| =     6.096005
 CELL| Angle (b,c), alpha [degree]:                                    90.000000
 CELL| Angle (a,c), beta  [degree]:                                    90.000000
 CELL| Angle (a,b), gamma [degree]:                                    90.000000
 CELL| Numerically orthorhombic:                                             YES
 CELL| Periodicity                                                           XYZ

 Extrapolation method: ASPC

 Number of electrons:                                                        136
 Number of occupied orbitals:                                                 68
 Number of molecular orbitals:                                               112

 Number of orbital functions:                                                112
 Number of independent orbital functions:                                    112


 SCF WAVEFUNCTION OPTIMIZATION

  Step     Update method      Time    Convergence         Total energy    Change
  ------------------------------------------------------------------------------
     1 TBLite/Diag 0.40E+00    0.0     0.06428884       -96.5635821203 -9.66E+01
     2 TBLite/Diag 0.40E+00    0.0     0.00425663       -96.5637695819 -1.87E-04
     3 TBLite/Diag 0.40E+00    0.0     0.00071657       -96.5637717461 -2.16E-06
     4 TBLite/Diag 0.40E+00    0.0     0.00036680       -96.5637732577 -1.51E-06
     5 TBLite/Diag 0.40E+00    0.0     0.00009875       -96.5637733725 -1.15E-07
     6 TBLite/Diag 0.40E+00    0.0     0.00002157       -96.5637733765 -4.04E-09
     7 TBLite/Diag 0.40E+00    0.0     0.00000003       -96.5637733765 -1.99E-13
     8 TBLite/Diag 0.40E+00    0.0     2.8354E-09       -96.5637733765  5.68E-14
     9 TBLite/Diag 0.40E+00    0.0     6.5757E-11       -96.5637733765  1.42E-14

  *** SCF run converged in     9 steps ***


  Core Hamiltonian energy:                                    -97.79572199721420
  Repulsive potential energy:                                   0.65070927351733
  Electrostatic energy:                                         0.64049407179290
  Self-consistent dispersion energy:                            0.00000000000000
  Non-self consistent dispersion energy:                       -0.05925472462867
  Correction for halogen bonding:                               0.00000000000000
  Electronic entropic energy:                                  -0.00000000000000
  Fermi energy:                                                -0.35877290627748

  Total energy:                                               -96.56377337653265
  Total energy (extrapolated to T->0):                        -96.56377337653265

 ENERGY| Total FORCE_EVAL ( QS ) energy [hartree]            -96.563773376532652

 OPT| **************************************************************************
 OPT| Step number                                                              1
 OPT| Optimization method                                                   BFGS
 OPT| Total energy [hartree]                                      -96.5637733765
 OPT| Internal pressure [bar]                                    -484.1773474407
 OPT| Effective energy change [hartree]                            -0.0250111176
 OPT| Predicted energy change [hartree]                            -0.0264528190
 OPT| Scaling factor                                                0.0000000000
 OPT| Step size                                                     0.0432664941
 OPT| Trust radius                                                  0.4724315332
 OPT| Decrease in energy                                                     YES
 OPT| Used time [s]                                                        0.384
 OPT|
 OPT| Maximum step size                                             0.0432664941
 OPT| Convergence limit for maximum step size                       0.0030000000
 OPT| Maximum step size is converged                                          NO
 OPT|
 OPT| RMS step size                                                 0.0227746070
 OPT| Convergence limit for RMS step size                           0.0015000000
 OPT| RMS step size is converged                                              NO
 OPT|
 OPT| Maximum gradient                                              0.0247934288
 OPT| Convergence limit for maximum gradient                        0.0004500000
 OPT| Maximum gradient is converged                                           NO
 OPT|
 OPT| RMS gradient                                                  0.0070689174
 OPT| Convergence limit for RMS gradient                            0.0003000000
 OPT| RMS gradient is converged                                               NO
 OPT|
 OPT| Pressure deviation [bar]                                   -484.1773474407
 OPT| Pressure tolerance [bar]                                    100.0000000000
 OPT| Pressure is converged                                                   NO
 OPT| **************************************************************************
 OPT| Estimated peak process memory after this step [MiB]                    169

 --------------------------
 OPTIMIZATION STEP:      2
 --------------------------

 CELL| Volume [angstrom^3]:                                           313.417044
 CELL| Vector a [angstrom]:       6.538     0.000     0.000   |a| =     6.537963
 CELL| Vector b [angstrom]:       0.000     7.874     0.000   |b| =     7.874096
 CELL| Vector c [angstrom]:       0.000     0.000     6.088   |c| =     6.088067
 CELL| Angle (b,c), alpha [degree]:                                    90.000000
 CELL| Angle (a,c), beta  [degree]:                                    90.000000
 CELL| Angle (a,b), gamma [degree]:                                    90.000000
 CELL| Numerically orthorhombic:                                             YES
 CELL| Periodicity                                                           XYZ

 Extrapolation method: ASPC

 Number of electrons:                                                        136
 Number of occupied orbitals:                                                 68
 Number of molecular orbitals:                                               112

 Number of orbital functions:                                                112
 Number of independent orbital functions:                                    112


 SCF WAVEFUNCTION OPTIMIZATION

  Step     Update method      Time    Convergence         Total energy    Change
  ------------------------------------------------------------------------------
     1 TBLite/Diag 0.40E+00    0.0     0.00902938       -96.5683142240 -9.66E+01
     2 TBLite/Diag 0.40E+00    0.0     0.00102267       -96.5683332099 -1.90E-05
     3 TBLite/Diag 0.40E+00    0.0     0.00030028       -96.5683341581 -9.48E-07
     4 TBLite/Diag 0.40E+00    0.0     0.00004011       -96.5683341917 -3.37E-08
     5 TBLite/Diag 0.40E+00    0.0     0.00000469       -96.5683341918 -6.25E-11
     6 TBLite/Diag 0.40E+00    0.0     0.00000186       -96.5683341918 -3.02E-11
     7 TBLite/Diag 0.40E+00    0.0     4.2358E-09       -96.5683341918 -4.26E-14
     8 TBLite/Diag 0.40E+00    0.0     2.3490E-10       -96.5683341918  7.11E-14

  *** SCF run converged in     8 steps ***


  Core Hamiltonian energy:                                    -97.79926938287745
  Repulsive potential energy:                                   0.64794291255397
  Electrostatic energy:                                         0.64229341032661
  Self-consistent dispersion energy:                            0.00000000000000
  Non-self consistent dispersion energy:                       -0.05930113181839
  Correction for halogen bonding:                               0.00000000000000
  Electronic entropic energy:                                  -0.00000000000000
  Fermi energy:                                                -0.36060236738499

  Total energy:                                               -96.56833419181527
  Total energy (extrapolated to T->0):                        -96.56833419181527

 ENERGY| Total FORCE_EVAL ( QS ) energy [hartree]            -96.568334191815268

 OPT| **************************************************************************
 OPT| Step number                                                              2
 OPT| Optimization method                                                   BFGS
 OPT| Total energy [hartree]                                      -96.5683341918
 OPT| Internal pressure [bar]                                   -2038.0664512522
 OPT| Effective energy change [hartree]                            -0.0045608153
 OPT| Predicted energy change [hartree]                            -0.0026160322
 OPT| Scaling factor                                                0.0000000000
 OPT| Step size                                                     0.0279733102
 OPT| Trust radius                                                  0.4724315332
 OPT| Decrease in energy                                                     YES
 OPT| Used time [s]                                                        0.381
 OPT|
 OPT| Maximum step size                                             0.0279733102
 OPT| Convergence limit for maximum step size                       0.0030000000
 OPT| Maximum step size is converged                                          NO
 OPT|
 OPT| RMS step size                                                 0.0075961393
 OPT| Convergence limit for RMS step size                           0.0015000000
 OPT| RMS step size is converged                                              NO
 OPT|
 OPT| Maximum gradient                                              0.0192721154
 OPT| Convergence limit for maximum gradient                        0.0004500000
 OPT| Maximum gradient is converged                                           NO
 OPT|
 OPT| RMS gradient                                                  0.0055630561
 OPT| Convergence limit for RMS gradient                            0.0003000000
 OPT| RMS gradient is converged                                               NO
 OPT|
 OPT| Pressure deviation [bar]                                  -2038.0664512522
 OPT| Pressure tolerance [bar]                                    100.0000000000
 OPT| Pressure is converged                                                   NO
 OPT| **************************************************************************
 OPT| Estimated peak process memory after this step [MiB]                    170

 --------------------------
 OPTIMIZATION STEP:      3
 --------------------------

 CELL| Volume [angstrom^3]:                                           312.250194
 CELL| Vector a [angstrom]:       6.502     0.000     0.000   |a| =     6.502308
 CELL| Vector b [angstrom]:       0.000     7.931     0.000   |b| =     7.931091
 CELL| Vector c [angstrom]:       0.000     0.000     6.055   |c| =     6.054834
 CELL| Angle (b,c), alpha [degree]:                                    90.000000
 CELL| Angle (a,c), beta  [degree]:                                    90.000000
 CELL| Angle (a,b), gamma [degree]:                                    90.000000
 CELL| Numerically orthorhombic:                                             YES
 CELL| Periodicity                                                           XYZ

 Extrapolation method: ASPC

 Number of electrons:                                                        136
 Number of occupied orbitals:                                                 68
 Number of molecular orbitals:                                               112

 Number of orbital functions:                                                112
 Number of independent orbital functions:                                    112


 SCF WAVEFUNCTION OPTIMIZATION

  Step     Update method      Time    Convergence         Total energy    Change
  ------------------------------------------------------------------------------
     1 TBLite/Diag 0.40E+00    0.0     0.03472100       -96.5773880841 -9.66E+01
     2 TBLite/Diag 0.40E+00    0.0     0.00391755       -96.5776314844 -2.43E-04
     3 TBLite/Diag 0.40E+00    0.0     0.00114181       -96.5776448101 -1.33E-05
     4 TBLite/Diag 0.40E+00    0.0     0.00020009       -96.5776454910 -6.81E-07
     5 TBLite/Diag 0.40E+00    0.0     0.00000745       -96.5776454923 -1.25E-09
     6 TBLite/Diag 0.40E+00    0.0     0.00000109       -96.5776454923 -1.12E-11
     7 TBLite/Diag 0.40E+00    0.0     0.00000007       -96.5776454923 -1.56E-13
     8 TBLite/Diag 0.40E+00    0.0     3.5866E-10       -96.5776454923  1.42E-14

  *** SCF run converged in     8 steps ***


  Core Hamiltonian energy:                                    -97.81572401563061
  Repulsive potential energy:                                   0.65225840059620
  Electrostatic energy:                                         0.64538044658901
  Self-consistent dispersion energy:                            0.00000000000000
  Non-self consistent dispersion energy:                       -0.05956032383811
  Correction for halogen bonding:                               0.00000000000000
  Electronic entropic energy:                                  -0.00000000000000
  Fermi energy:                                                -0.36105748355869

  Total energy:                                               -96.57764549228351
  Total energy (extrapolated to T->0):                        -96.57764549228351

 ENERGY| Total FORCE_EVAL ( QS ) energy [hartree]            -96.577645492283509

 OPT| **************************************************************************
 OPT| Step number                                                              3
 OPT| Optimization method                                                   BFGS
 OPT| Total energy [hartree]                                      -96.5776454923
 OPT| Internal pressure [bar]                                    1372.8264806456
 OPT| Effective energy change [hartree]                            -0.0093113005
 OPT| Predicted energy change [hartree]                            -0.0078492112
 OPT| Scaling factor                                                0.0000000000
 OPT| Step size                                                     0.1077056056
 OPT| Trust radius                                                  0.4724315332
 OPT| Decrease in energy                                                     YES
 OPT| Used time [s]                                                        0.385
 OPT|
 OPT| Maximum step size                                             0.1077056056
 OPT| Convergence limit for maximum step size                       0.0030000000
 OPT| Maximum step size is converged                                          NO
 OPT|
 OPT| RMS step size                                                 0.0290572369
 OPT| Convergence limit for RMS step size                           0.0015000000
 OPT| RMS step size is converged                                              NO
 OPT|
 OPT| Maximum gradient                                              0.0096763321
 OPT| Convergence limit for maximum gradient                        0.0004500000
 OPT| Maximum gradient is converged                                           NO
 OPT|
 OPT| RMS gradient                                                  0.0048867989
 OPT| Convergence limit for RMS gradient                            0.0003000000
 OPT| RMS gradient is converged                                               NO
 OPT|
 OPT| Pressure deviation [bar]                                   1372.8264806456
 OPT| Pressure tolerance [bar]                                    100.0000000000
 OPT| Pressure is converged                                                   NO
 OPT| **************************************************************************
 OPT| Estimated peak process memory after this step [MiB]                    170

 --------------------------
 OPTIMIZATION STEP:      4
 --------------------------

 CELL| Volume [angstrom^3]:                                           311.895812
 CELL| Vector a [angstrom]:       6.487     0.000     0.000   |a| =     6.487035
 CELL| Vector b [angstrom]:       0.000     7.955     0.000   |b| =     7.954797
 CELL| Vector c [angstrom]:       0.000     0.000     6.044   |c| =     6.044135
 CELL| Angle (b,c), alpha [degree]:                                    90.000000
 CELL| Angle (a,c), beta  [degree]:                                    90.000000
 CELL| Angle (a,b), gamma [degree]:                                    90.000000
 CELL| Numerically orthorhombic:                                             YES
 CELL| Periodicity                                                           XYZ

 Extrapolation method: ASPC

 Number of electrons:                                                        136
 Number of occupied orbitals:                                                 68
 Number of molecular orbitals:                                               112

 Number of orbital functions:                                                112
 Number of independent orbital functions:                                    112


 SCF WAVEFUNCTION OPTIMIZATION

  Step     Update method      Time    Convergence         Total energy    Change
  ------------------------------------------------------------------------------
     1 TBLite/Diag 0.40E+00    0.0     0.01377566       -96.5803197133 -9.66E+01
     2 TBLite/Diag 0.40E+00    0.0     0.00258992       -96.5803681640 -4.85E-05
     3 TBLite/Diag 0.40E+00    0.0     0.00037878       -96.5803704378 -2.27E-06
     4 TBLite/Diag 0.40E+00    0.0     0.00009434       -96.5803704908 -5.30E-08
     5 TBLite/Diag 0.40E+00    0.0     0.00003414       -96.5803705085 -1.77E-08
     6 TBLite/Diag 0.40E+00    0.0     0.00001009       -96.5803705093 -7.76E-10
     7 TBLite/Diag 0.40E+00    0.0     5.3225E-09       -96.5803705093 -1.14E-13
     8 TBLite/Diag 0.40E+00    0.0     8.3977E-10       -96.5803705093  8.53E-14

  *** SCF run converged in     8 steps ***


  Core Hamiltonian energy:                                    -97.80745150878865
  Repulsive potential energy:                                   0.63973957249950
  Electrostatic energy:                                         0.64699523440964
  Self-consistent dispersion energy:                            0.00000000000000
  Non-self consistent dispersion energy:                       -0.05965380739645
  Correction for halogen bonding:                               0.00000000000000
  Electronic entropic energy:                                  -0.00000000000000
  Fermi energy:                                                -0.36110481161444

  Total energy:                                               -96.58037050927594
  Total energy (extrapolated to T->0):                        -96.58037050927594

 ENERGY| Total FORCE_EVAL ( QS ) energy [hartree]            -96.580370509275937

 OPT| **************************************************************************
 OPT| Step number                                                              4
 OPT| Optimization method                                                   BFGS
 OPT| Total energy [hartree]                                      -96.5803705093
 OPT| Internal pressure [bar]                                   -7996.3340713116
 OPT| Effective energy change [hartree]                            -0.0027250170
 OPT| Predicted energy change [hartree]                            -0.0017872903
 OPT| Scaling factor                                                0.0000000000
 OPT| Step size                                                     0.0447989400
 OPT| Trust radius                                                  0.4724315332
 OPT| Decrease in energy                                                     YES
 OPT| Used time [s]                                                        0.386
 OPT|
 OPT| Maximum step size                                             0.0447989400
 OPT| Convergence limit for maximum step size                       0.0030000000
 OPT| Maximum step size is converged                                          NO
 OPT|
 OPT| RMS step size                                                 0.0124156805
 OPT| Convergence limit for RMS step size                           0.0015000000
 OPT| RMS step size is converged                                              NO
 OPT|
 OPT| Maximum gradient                                              0.0097568208
 OPT| Convergence limit for maximum gradient                        0.0004500000
 OPT| Maximum gradient is converged                                           NO
 OPT|
 OPT| RMS gradient                                                  0.0043450823
 OPT| Convergence limit for RMS gradient                            0.0003000000
 OPT| RMS gradient is converged                                               NO
 OPT|
 OPT| Pressure deviation [bar]                                  -7996.3340713116
 OPT| Pressure tolerance [bar]                                    100.0000000000
 OPT| Pressure is converged                                                   NO
 OPT| **************************************************************************
 OPT| Estimated peak process memory after this step [MiB]                    171

 --------------------------
 OPTIMIZATION STEP:      5
 --------------------------

 CELL| Volume [angstrom^3]:                                           310.676046
 CELL| Vector a [angstrom]:       6.459     0.000     0.000   |a| =     6.459147
 CELL| Vector b [angstrom]:       0.000     7.984     0.000   |b| =     7.984392
 CELL| Vector c [angstrom]:       0.000     0.000     6.024   |c| =     6.024080
 CELL| Angle (b,c), alpha [degree]:                                    90.000000
 CELL| Angle (a,c), beta  [degree]:                                    90.000000
 CELL| Angle (a,b), gamma [degree]:                                    90.000000
 CELL| Numerically orthorhombic:                                             YES
 CELL| Periodicity                                                           XYZ

 Extrapolation method: ASPC

 Number of electrons:                                                        136
 Number of occupied orbitals:                                                 68
 Number of molecular orbitals:                                               112

 Number of orbital functions:                                                112
 Number of independent orbital functions:                                    112


 SCF WAVEFUNCTION OPTIMIZATION

  Step     Update method      Time    Convergence         Total energy    Change
  ------------------------------------------------------------------------------
     1 TBLite/Diag 0.40E+00    0.0     0.02270453       -96.5834382291 -9.66E+01
     2 TBLite/Diag 0.40E+00    0.0     0.00096840       -96.5834564823 -1.83E-05
     3 TBLite/Diag 0.40E+00    0.0     0.00030909       -96.5834569153 -4.33E-07
     4 TBLite/Diag 0.40E+00    0.0     0.00013621       -96.5834571663 -2.51E-07
     5 TBLite/Diag 0.40E+00    0.0     0.00000806       -96.5834571678 -1.54E-09
     6 TBLite/Diag 0.40E+00    0.0     0.00000709       -96.5834571682 -3.92E-10
     7 TBLite/Diag 0.40E+00    0.0     2.7811E-09       -96.5834571682  0.00E+00
     8 TBLite/Diag 0.40E+00    0.0     4.8979E-10       -96.5834571682 -4.26E-14

  *** SCF run converged in     8 steps ***


  Core Hamiltonian energy:                                    -97.80126046152236
  Repulsive potential energy:                                   0.63361401836274
  Electrostatic energy:                                         0.64413032925399
  Self-consistent dispersion energy:                            0.00000000000000
  Non-self consistent dispersion energy:                       -0.05994105430568
  Correction for halogen bonding:                               0.00000000000000
  Electronic entropic energy:                                  -0.00000000000000
  Fermi energy:                                                -0.35772716592914

  Total energy:                                               -96.58345716821132
  Total energy (extrapolated to T->0):                        -96.58345716821132

 ENERGY| Total FORCE_EVAL ( QS ) energy [hartree]            -96.583457168211325

 OPT| **************************************************************************
 OPT| Step number                                                              5
 OPT| Optimization method                                                   BFGS
 OPT| Total energy [hartree]                                      -96.5834571682
 OPT| Internal pressure [bar]                                  -16313.7361317250
 OPT| Effective energy change [hartree]                            -0.0030866589
 OPT| Predicted energy change [hartree]                            -0.0024743488
 OPT| Scaling factor                                                0.0000000000
 OPT| Step size                                                     0.0559251991
 OPT| Trust radius                                                  0.4724315332
 OPT| Decrease in energy                                                     YES
 OPT| Used time [s]                                                        0.389
 OPT|
 OPT| Maximum step size                                             0.0559251991
 OPT| Convergence limit for maximum step size                       0.0030000000
 OPT| Maximum step size is converged                                          NO
 OPT|
 OPT| RMS step size                                                 0.0196989695
 OPT| Convergence limit for RMS step size                           0.0015000000
 OPT| RMS step size is converged                                              NO
 OPT|
 OPT| Maximum gradient                                              0.0143679666
 OPT| Convergence limit for maximum gradient                        0.0004500000
 OPT| Maximum gradient is converged                                           NO
 OPT|
 OPT| RMS gradient                                                  0.0031699494
 OPT| Convergence limit for RMS gradient                            0.0003000000
 OPT| RMS gradient is converged                                               NO
 OPT|
 OPT| Pressure deviation [bar]                                 -16313.7361317250
 OPT| Pressure tolerance [bar]                                    100.0000000000
 OPT| Pressure is converged                                                   NO
 OPT| **************************************************************************
 OPT| Estimated peak process memory after this step [MiB]                    171

 --------------------------
 OPTIMIZATION STEP:      6
 --------------------------

 CELL| Volume [angstrom^3]:                                           309.435599
 CELL| Vector a [angstrom]:       6.443     0.000     0.000   |a| =     6.443367
 CELL| Vector b [angstrom]:       0.000     7.986     0.000   |b| =     7.985514
 CELL| Vector c [angstrom]:       0.000     0.000     6.014   |c| =     6.013877
 CELL| Angle (b,c), alpha [degree]:                                    90.000000
 CELL| Angle (a,c), beta  [degree]:                                    90.000000
 CELL| Angle (a,b), gamma [degree]:                                    90.000000
 CELL| Numerically orthorhombic:                                             YES
 CELL| Periodicity                                                           XYZ

 Extrapolation method: ASPC

 Number of electrons:                                                        136
 Number of occupied orbitals:                                                 68
 Number of molecular orbitals:                                               112

 Number of orbital functions:                                                112
 Number of independent orbital functions:                                    112


 SCF WAVEFUNCTION OPTIMIZATION

  Step     Update method      Time    Convergence         Total energy    Change
  ------------------------------------------------------------------------------
     1 TBLite/Diag 0.40E+00    0.0     0.01134913       -96.5849617096 -9.66E+01
     2 TBLite/Diag 0.40E+00    0.0     0.00113943       -96.5849744897 -1.28E-05
     3 TBLite/Diag 0.40E+00    0.0     0.00012515       -96.5849747352 -2.45E-07
     4 TBLite/Diag 0.40E+00    0.0     0.00006923       -96.5849747469 -1.17E-08
     5 TBLite/Diag 0.40E+00    0.0     0.00003099       -96.5849747627 -1.59E-08
     6 TBLite/Diag 0.40E+00    0.0     0.00000728       -96.5849747631 -4.04E-10
     7 TBLite/Diag 0.40E+00    0.0     1.7068E-09       -96.5849747631 -2.84E-14
     8 TBLite/Diag 0.40E+00    0.0     6.2056E-10       -96.5849747631  5.68E-14

  *** SCF run converged in     8 steps ***


  Core Hamiltonian energy:                                    -97.79253473932947
  Repulsive potential energy:                                   0.62467026689663
  Electrostatic energy:                                         0.64309953487981
  Self-consistent dispersion energy:                            0.00000000000000
  Non-self consistent dispersion energy:                       -0.06020982559524
  Correction for halogen bonding:                               0.00000000000000
  Electronic entropic energy:                                  -0.00000000000000
  Fermi energy:                                                -0.35678087690205

  Total energy:                                               -96.58497476314828
  Total energy (extrapolated to T->0):                        -96.58497476314828

 ENERGY| Total FORCE_EVAL ( QS ) energy [hartree]            -96.584974763148281

 OPT| **************************************************************************
 OPT| Step number                                                              6
 OPT| Optimization method                                                   BFGS
 OPT| Total energy [hartree]                                      -96.5849747631
 OPT| Internal pressure [bar]                                  -23820.0077331256
 OPT| Effective energy change [hartree]                            -0.0015175949
 OPT| Predicted energy change [hartree]                            -0.0010288094
 OPT| Scaling factor                                                0.0000000000
 OPT| Step size                                                     0.0298199405
 OPT| Trust radius                                                  0.4724315332
 OPT| Decrease in energy                                                     YES
 OPT| Used time [s]                                                        0.391
 OPT|
 OPT| Maximum step size                                             0.0298199405
 OPT| Convergence limit for maximum step size                       0.0030000000
 OPT| Maximum step size is converged                                          NO
 OPT|
 OPT| RMS step size                                                 0.0099262470
 OPT| Convergence limit for RMS step size                           0.0015000000
 OPT| RMS step size is converged                                              NO
 OPT|
 OPT| Maximum gradient                                              0.0175694275
 OPT| Convergence limit for maximum gradient                        0.0004500000
 OPT| Maximum gradient is converged                                           NO
 OPT|
 OPT| RMS gradient                                                  0.0030916436
 OPT| Convergence limit for RMS gradient                            0.0003000000
 OPT| RMS gradient is converged                                               NO
 OPT|
 OPT| Pressure deviation [bar]                                 -23820.0077331256
 OPT| Pressure tolerance [bar]                                    100.0000000000
 OPT| Pressure is converged                                                   NO
 OPT| **************************************************************************
 OPT| Estimated peak process memory after this step [MiB]                    171

 --------------------------
 OPTIMIZATION STEP:      7
 --------------------------

 CELL| Volume [angstrom^3]:                                           306.289845
 CELL| Vector a [angstrom]:       6.412     0.000     0.000   |a| =     6.412322
 CELL| Vector b [angstrom]:       0.000     7.974     0.000   |b| =     7.973818
 CELL| Vector c [angstrom]:       0.000     0.000     5.990   |c| =     5.990333
 CELL| Angle (b,c), alpha [degree]:                                    90.000000
 CELL| Angle (a,c), beta  [degree]:                                    90.000000
 CELL| Angle (a,b), gamma [degree]:                                    90.000000
 CELL| Numerically orthorhombic:                                             YES
 CELL| Periodicity                                                           XYZ

 Extrapolation method: ASPC

 Number of electrons:                                                        136
 Number of occupied orbitals:                                                 68
 Number of molecular orbitals:                                               112

 Number of orbital functions:                                                112
 Number of independent orbital functions:                                    112


 SCF WAVEFUNCTION OPTIMIZATION

  Step     Update method      Time    Convergence         Total energy    Change
  ------------------------------------------------------------------------------
     1 TBLite/Diag 0.40E+00    0.0     0.01841814       -96.5871376762 -9.66E+01
     2 TBLite/Diag 0.40E+00    0.0     0.00079804       -96.5871455369 -7.86E-06
     3 TBLite/Diag 0.40E+00    0.0     0.00022586       -96.5871461006 -5.64E-07
     4 TBLite/Diag 0.40E+00    0.0     0.00005551       -96.5871461493 -4.88E-08
     5 TBLite/Diag 0.40E+00    0.0     0.00000336       -96.5871461496 -2.66E-10
     6 TBLite/Diag 0.40E+00    0.0     0.00000388       -96.5871461497 -1.21E-10
     7 TBLite/Diag 0.40E+00    0.0     9.4487E-10       -96.5871461497  1.42E-13

  *** SCF run converged in     7 steps ***


  Core Hamiltonian energy:                                    -97.78807113926776
  Repulsive potential energy:                                   0.62136563434294
  Electrostatic energy:                                         0.64042965426044
  Self-consistent dispersion energy:                            0.00000000000000
  Non-self consistent dispersion energy:                       -0.06087029906918
  Correction for halogen bonding:                               0.00000000000000
  Electronic entropic energy:                                  -0.00000000000000
  Fermi energy:                                                -0.35473690880562

  Total energy:                                               -96.58714614973356
  Total energy (extrapolated to T->0):                        -96.58714614973356

 ENERGY| Total FORCE_EVAL ( QS ) energy [hartree]            -96.587146149733556

 OPT| **************************************************************************
 OPT| Step number                                                              7
 OPT| Optimization method                                                   BFGS
 OPT| Total energy [hartree]                                      -96.5871461497
 OPT| Internal pressure [bar]                                  -26470.5050476553
 OPT| Effective energy change [hartree]                            -0.0021713866
 OPT| Predicted energy change [hartree]                            -0.0014605844
 OPT| Scaling factor                                                0.0000000000
 OPT| Step size                                                     0.0586672833
 OPT| Trust radius                                                  0.4724315332
 OPT| Decrease in energy                                                     YES
 OPT| Used time [s]                                                        0.385
 OPT|
 OPT| Maximum step size                                             0.0586672833
 OPT| Convergence limit for maximum step size                       0.0030000000
 OPT| Maximum step size is converged                                          NO
 OPT|
 OPT| RMS step size                                                 0.0162393530
 OPT| Convergence limit for RMS step size                           0.0015000000
 OPT| RMS step size is converged                                              NO
 OPT|
 OPT| Maximum gradient                                              0.0168535636
 OPT| Convergence limit for maximum gradient                        0.0004500000
 OPT| Maximum gradient is converged                                           NO
 OPT|
 OPT| RMS gradient                                                  0.0034765553
 OPT| Convergence limit for RMS gradient                            0.0003000000
 OPT| RMS gradient is converged                                               NO
 OPT|
 OPT| Pressure deviation [bar]                                 -26470.5050476553
 OPT| Pressure tolerance [bar]                                    100.0000000000
 OPT| Pressure is converged                                                   NO
 OPT| **************************************************************************
 OPT| Estimated peak process memory after this step [MiB]                    171

 --------------------------
 OPTIMIZATION STEP:      8
 --------------------------

 CELL| Volume [angstrom^3]:                                           300.786923
 CELL| Vector a [angstrom]:       6.363     0.000     0.000   |a| =     6.363150
 CELL| Vector b [angstrom]:       0.000     7.945     0.000   |b| =     7.944889
 CELL| Vector c [angstrom]:       0.000     0.000     5.950   |c| =     5.949753
 CELL| Angle (b,c), alpha [degree]:                                    90.000000
 CELL| Angle (a,c), beta  [degree]:                                    90.000000
 CELL| Angle (a,b), gamma [degree]:                                    90.000000
 CELL| Numerically orthorhombic:                                             YES
 CELL| Periodicity                                                           XYZ

 Extrapolation method: ASPC

 Number of electrons:                                                        136
 Number of occupied orbitals:                                                 68
 Number of molecular orbitals:                                               112

 Number of orbital functions:                                                112
 Number of independent orbital functions:                                    112


 SCF WAVEFUNCTION OPTIMIZATION

  Step     Update method      Time    Convergence         Total energy    Change
  ------------------------------------------------------------------------------
     1 TBLite/Diag 0.40E+00    0.0     0.02513535       -96.5897686883 -9.66E+01
     2 TBLite/Diag 0.40E+00    0.0     0.00216695       -96.5898164502 -4.78E-05
     3 TBLite/Diag 0.40E+00    0.0     0.00046070       -96.5898200416 -3.59E-06
     4 TBLite/Diag 0.40E+00    0.0     0.00005523       -96.5898200685 -2.69E-08
     5 TBLite/Diag 0.40E+00    0.0     0.00000800       -96.5898200689 -4.91E-10
     6 TBLite/Diag 0.40E+00    0.0     0.00000090       -96.5898200690 -9.86E-12
     7 TBLite/Diag 0.40E+00    0.0     0.00000001       -96.5898200690  0.00E+00
     8 TBLite/Diag 0.40E+00    0.0     2.5526E-10       -96.5898200690 -7.11E-14

  *** SCF run converged in     8 steps ***


  Core Hamiltonian energy:                                    -97.78513788090395
  Repulsive potential energy:                                   0.61851802402117
  Electrostatic energy:                                         0.63882912064181
  Self-consistent dispersion energy:                            0.00000000000000
  Non-self consistent dispersion energy:                       -0.06202933271339
  Correction for halogen bonding:                               0.00000000000000
  Electronic entropic energy:                                  -0.00000000000000
  Fermi energy:                                                -0.35345629869561

  Total energy:                                               -96.58982006895435
  Total energy (extrapolated to T->0):                        -96.58982006895435

 ENERGY| Total FORCE_EVAL ( QS ) energy [hartree]            -96.589820068954353

 OPT| **************************************************************************
 OPT| Step number                                                              8
 OPT| Optimization method                                                   BFGS
 OPT| Total energy [hartree]                                      -96.5898200690
 OPT| Internal pressure [bar]                                  -25398.2088009769
 OPT| Effective energy change [hartree]                            -0.0026739192
 OPT| Predicted energy change [hartree]                            -0.0017999644
 OPT| Scaling factor                                                0.0000000000
 OPT| Step size                                                     0.0929214079
 OPT| Trust radius                                                  0.4724315332
 OPT| Decrease in energy                                                     YES
 OPT| Used time [s]                                                        0.395
 OPT|
 OPT| Maximum step size                                             0.0929214079
 OPT| Convergence limit for maximum step size                       0.0030000000
 OPT| Maximum step size is converged                                          NO
 OPT|
 OPT| RMS step size                                                 0.0231035792
 OPT| Convergence limit for RMS step size                           0.0015000000
 OPT| RMS step size is converged                                              NO
 OPT|
 OPT| Maximum gradient                                              0.0174186113
 OPT| Convergence limit for maximum gradient                        0.0004500000
 OPT| Maximum gradient is converged                                           NO
 OPT|
 OPT| RMS gradient                                                  0.0037851526
 OPT| Convergence limit for RMS gradient                            0.0003000000
 OPT| RMS gradient is converged                                               NO
 OPT|
 OPT| Pressure deviation [bar]                                 -25398.2088009769
 OPT| Pressure tolerance [bar]                                    100.0000000000
 OPT| Pressure is converged                                                   NO
 OPT| **************************************************************************
 OPT| Estimated peak process memory after this step [MiB]                    171

 --------------------------
 OPTIMIZATION STEP:      9
 --------------------------

 CELL| Volume [angstrom^3]:                                           294.047419
 CELL| Vector a [angstrom]:       6.305     0.000     0.000   |a| =     6.305361
 CELL| Vector b [angstrom]:      -0.000     7.907     0.000   |b| =     7.907147
 CELL| Vector c [angstrom]:       0.000    -0.000     5.898   |c| =     5.897766
 CELL| Angle (b,c), alpha [degree]:                                    90.000000
 CELL| Angle (a,c), beta  [degree]:                                    90.000000
 CELL| Angle (a,b), gamma [degree]:                                    90.000000
 CELL| Numerically orthorhombic:                                              NO
 CELL| Periodicity                                                           XYZ

 Extrapolation method: ASPC

 Number of electrons:                                                        136
 Number of occupied orbitals:                                                 68
 Number of molecular orbitals:                                               112

 Number of orbital functions:                                                112
 Number of independent orbital functions:                                    112


 SCF WAVEFUNCTION OPTIMIZATION

  Step     Update method      Time    Convergence         Total energy    Change
  ------------------------------------------------------------------------------
     1 TBLite/Diag 0.40E+00    0.0     0.02474610       -96.5921317618 -9.66E+01
     2 TBLite/Diag 0.40E+00    0.0     0.00291510       -96.5922265384 -9.48E-05
     3 TBLite/Diag 0.40E+00    0.0     0.00060756       -96.5922332782 -6.74E-06
     4 TBLite/Diag 0.40E+00    0.0     0.00004971       -96.5922332936 -1.54E-08
     5 TBLite/Diag 0.40E+00    0.0     0.00000389       -96.5922332940 -4.09E-10
     6 TBLite/Diag 0.40E+00    0.0     0.00000272       -96.5922332941 -5.58E-11
     7 TBLite/Diag 0.40E+00    0.0     1.3862E-09       -96.5922332941  1.14E-13
     8 TBLite/Diag 0.40E+00    0.0     2.4614E-10       -96.5922332941 -1.42E-13

  *** SCF run converged in     8 steps ***


  Core Hamiltonian energy:                                    -97.78732269928656
  Repulsive potential energy:                                   0.61953504543317
  Electrostatic energy:                                         0.63903683479572
  Self-consistent dispersion energy:                            0.00000000000000
  Non-self consistent dispersion energy:                       -0.06348247501035
  Correction for halogen bonding:                               0.00000000000000
  Electronic entropic energy:                                  -0.00000000000000
  Fermi energy:                                                -0.35347441688537

  Total energy:                                               -96.59223329406802
  Total energy (extrapolated to T->0):                        -96.59223329406802

 ENERGY| Total FORCE_EVAL ( QS ) energy [hartree]            -96.592233294068023

 OPT| **************************************************************************
 OPT| Step number                                                              9
 OPT| Optimization method                                                   BFGS
 OPT| Total energy [hartree]                                      -96.5922332941
 OPT| Internal pressure [bar]                                  -17662.3927648750
 OPT| Effective energy change [hartree]                            -0.0024132251
 OPT| Predicted energy change [hartree]                            -0.0016770285
 OPT| Scaling factor                                                0.0000000000
 OPT| Step size                                                     0.1092040090
 OPT| Trust radius                                                  0.4724315332
 OPT| Decrease in energy                                                     YES
 OPT| Used time [s]                                                        0.230
 OPT|
 OPT| Maximum step size                                             0.1092040090
 OPT| Convergence limit for maximum step size                       0.0030000000
 OPT| Maximum step size is converged                                          NO
 OPT|
 OPT| RMS step size                                                 0.0245176589
 OPT| Convergence limit for RMS step size                           0.0015000000
 OPT| RMS step size is converged                                              NO
 OPT|
 OPT| Maximum gradient                                              0.0157808853
 OPT| Convergence limit for maximum gradient                        0.0004500000
 OPT| Maximum gradient is converged                                           NO
 OPT|
 OPT| RMS gradient                                                  0.0032953108
 OPT| Convergence limit for RMS gradient                            0.0003000000
 OPT| RMS gradient is converged                                               NO
 OPT|
 OPT| Pressure deviation [bar]                                 -17662.3927648750
 OPT| Pressure tolerance [bar]                                    100.0000000000
 OPT| Pressure is converged                                                   NO
 OPT| **************************************************************************
 OPT| Estimated peak process memory after this step [MiB]                    171

 --------------------------
 OPTIMIZATION STEP:     10
 --------------------------

 CELL| Volume [angstrom^3]:                                           289.338545
 CELL| Vector a [angstrom]:       6.267     0.000     0.000   |a| =     6.266807
 CELL| Vector b [angstrom]:       0.000     7.880     0.000   |b| =     7.880323
 CELL| Vector c [angstrom]:       0.000     0.000     5.859   |c| =     5.858899
 CELL| Angle (b,c), alpha [degree]:                                    90.000000
 CELL| Angle (a,c), beta  [degree]:                                    90.000000
 CELL| Angle (a,b), gamma [degree]:                                    90.000000
 CELL| Numerically orthorhombic:                                             YES
 CELL| Periodicity                                                           XYZ

 Extrapolation method: ASPC

 Number of electrons:                                                        136
 Number of occupied orbitals:                                                 68
 Number of molecular orbitals:                                               112

 Number of orbital functions:                                                112
 Number of independent orbital functions:                                    112


 SCF WAVEFUNCTION OPTIMIZATION

  Step     Update method      Time    Convergence         Total energy    Change
  ------------------------------------------------------------------------------
     1 TBLite/Diag 0.40E+00    0.0     0.01112138       -96.5935977786 -9.66E+01
     2 TBLite/Diag 0.40E+00    0.0     0.00228494       -96.5936488094 -5.10E-05
     3 TBLite/Diag 0.40E+00    0.0     0.00042384       -96.5936522974 -3.49E-06
     4 TBLite/Diag 0.40E+00    0.0     0.00003482       -96.5936523028 -5.44E-09
     5 TBLite/Diag 0.40E+00    0.0     0.00000406       -96.5936523034 -5.20E-10
     6 TBLite/Diag 0.40E+00    0.0     0.00000364       -96.5936523035 -1.14E-10
     7 TBLite/Diag 0.40E+00    0.0     0.00000001       -96.5936523035  1.14E-13
     8 TBLite/Diag 0.40E+00    0.0     4.3329E-10       -96.5936523035 -2.13E-13

  *** SCF run converged in     8 steps ***


  Core Hamiltonian energy:                                    -97.79316704742946
  Repulsive potential energy:                                   0.62311916764042
  Electrostatic energy:                                         0.64091752331918
  Self-consistent dispersion energy:                            0.00000000000000
  Non-self consistent dispersion energy:                       -0.06452194701042
  Correction for halogen bonding:                               0.00000000000000
  Electronic entropic energy:                                  -0.00000000000000
  Fermi energy:                                                -0.35480953341520

  Total energy:                                               -96.59365230348028
  Total energy (extrapolated to T->0):                        -96.59365230348028

 ENERGY| Total FORCE_EVAL ( QS ) energy [hartree]            -96.593652303480283

 OPT| **************************************************************************
 OPT| Step number                                                             10
 OPT| Optimization method                                                   BFGS
 OPT| Total energy [hartree]                                      -96.5936523035
 OPT| Internal pressure [bar]                                   -7860.6134561178
 OPT| Effective energy change [hartree]                            -0.0014190094
 OPT| Predicted energy change [hartree]                            -0.0010294214
 OPT| Scaling factor                                                0.0000000000
 OPT| Step size                                                     0.0734490531
 OPT| Trust radius                                                  0.4724315332
 OPT| Decrease in energy                                                     YES
 OPT| Used time [s]                                                        0.198
 OPT|
 OPT| Maximum step size                                             0.0734490531
 OPT| Convergence limit for maximum step size                       0.0030000000
 OPT| Maximum step size is converged                                          NO
 OPT|
 OPT| RMS step size                                                 0.0146832459
 OPT| Convergence limit for RMS step size                           0.0015000000
 OPT| RMS step size is converged                                              NO
 OPT|
 OPT| Maximum gradient                                              0.0112092645
 OPT| Convergence limit for maximum gradient                        0.0004500000
 OPT| Maximum gradient is converged                                           NO
 OPT|
 OPT| RMS gradient                                                  0.0024732688
 OPT| Convergence limit for RMS gradient                            0.0003000000
 OPT| RMS gradient is converged                                               NO
 OPT|
 OPT| Pressure deviation [bar]                                  -7860.6134561178
 OPT| Pressure tolerance [bar]                                    100.0000000000
 OPT| Pressure is converged                                                   NO
 OPT| **************************************************************************
 OPT| Estimated peak process memory after this step [MiB]                    171

 --------------------------
 OPTIMIZATION STEP:     11
 --------------------------

 CELL| Volume [angstrom^3]:                                           286.950591
 CELL| Vector a [angstrom]:       6.248     0.000     0.000   |a| =     6.248383
 CELL| Vector b [angstrom]:      -0.000     7.870     0.000   |b| =     7.869866
 CELL| Vector c [angstrom]:       0.000    -0.000     5.835   |c| =     5.835421
 CELL| Angle (b,c), alpha [degree]:                                    90.000000
 CELL| Angle (a,c), beta  [degree]:                                    90.000000
 CELL| Angle (a,b), gamma [degree]:                                    90.000000
 CELL| Numerically orthorhombic:                                              NO
 CELL| Periodicity                                                           XYZ

 Extrapolation method: ASPC

 Number of electrons:                                                        136
 Number of occupied orbitals:                                                 68
 Number of molecular orbitals:                                               112

 Number of orbital functions:                                                112
 Number of independent orbital functions:                                    112


 SCF WAVEFUNCTION OPTIMIZATION

  Step     Update method      Time    Convergence         Total energy    Change
  ------------------------------------------------------------------------------
     1 TBLite/Diag 0.40E+00    0.0     0.00653234       -96.5946053014 -9.66E+01
     2 TBLite/Diag 0.40E+00    0.0     0.00119649       -96.5946185682 -1.33E-05
     3 TBLite/Diag 0.40E+00    0.0     0.00021368       -96.5946194490 -8.81E-07
     4 TBLite/Diag 0.40E+00    0.0     0.00001391       -96.5946194498 -7.90E-10
     5 TBLite/Diag 0.40E+00    0.0     0.00000283       -96.5946194500 -1.60E-10
     6 TBLite/Diag 0.40E+00    0.0     0.00000164       -96.5946194500 -2.32E-11
     7 TBLite/Diag 0.40E+00    0.0     2.5051E-09       -96.5946194500 -7.11E-14
     8 TBLite/Diag 0.40E+00    0.0     3.6088E-10       -96.5946194500  1.14E-13

  *** SCF run converged in     8 steps ***


  Core Hamiltonian energy:                                    -97.80005043119696
  Repulsive potential energy:                                   0.62751256511059
  Electrostatic energy:                                         0.64297283564441
  Self-consistent dispersion energy:                            0.00000000000000
  Non-self consistent dispersion energy:                       -0.06505441957239
  Correction for halogen bonding:                               0.00000000000000
  Electronic entropic energy:                                  -0.00000000000000
  Fermi energy:                                                -0.35625351221628

  Total energy:                                               -96.59461945001436
  Total energy (extrapolated to T->0):                        -96.59461945001436

 ENERGY| Total FORCE_EVAL ( QS ) energy [hartree]            -96.594619450014363

 OPT| **************************************************************************
 OPT| Step number                                                             11
 OPT| Optimization method                                                   BFGS
 OPT| Total energy [hartree]                                      -96.5946194500
 OPT| Internal pressure [bar]                                   -1041.2875827525
 OPT| Effective energy change [hartree]                            -0.0009671465
 OPT| Predicted energy change [hartree]                            -0.0006878875
 OPT| Scaling factor                                                0.0000000000
 OPT| Step size                                                     0.0443669339
 OPT| Trust radius                                                  0.4724315332
 OPT| Decrease in energy                                                     YES
 OPT| Used time [s]                                                        0.199
 OPT|
 OPT| Maximum step size                                             0.0443669339
 OPT| Convergence limit for maximum step size                       0.0030000000
 OPT| Maximum step size is converged                                          NO
 OPT|
 OPT| RMS step size                                                 0.0074286922
 OPT| Convergence limit for RMS step size                           0.0015000000
 OPT| RMS step size is converged                                              NO
 OPT|
 OPT| Maximum gradient                                              0.0061383906
 OPT| Convergence limit for maximum gradient                        0.0004500000
 OPT| Maximum gradient is converged                                           NO
 OPT|
 OPT| RMS gradient                                                  0.0021996808
 OPT| Convergence limit for RMS gradient                            0.0003000000
 OPT| RMS gradient is converged                                               NO
 OPT|
 OPT| Pressure deviation [bar]                                  -1041.2875827525
 OPT| Pressure tolerance [bar]                                    100.0000000000
 OPT| Pressure is converged                                                   NO
 OPT| **************************************************************************
 OPT| Estimated peak process memory after this step [MiB]                    171

 --------------------------
 OPTIMIZATION STEP:     12
 --------------------------

 CELL| Volume [angstrom^3]:                                           284.013925
 CELL| Vector a [angstrom]:       6.223     0.000     0.000   |a| =     6.222994
 CELL| Vector b [angstrom]:       0.000     7.864     0.000   |b| =     7.864105
 CELL| Vector c [angstrom]:       0.000     0.000     5.804   |c| =     5.803513
 CELL| Angle (b,c), alpha [degree]:                                    90.000000
 CELL| Angle (a,c), beta  [degree]:                                    90.000000
 CELL| Angle (a,b), gamma [degree]:                                    90.000000
 CELL| Numerically orthorhombic:                                             YES
 CELL| Periodicity                                                           XYZ

 Extrapolation method: ASPC

 Number of electrons:                                                        136
 Number of occupied orbitals:                                                 68
 Number of molecular orbitals:                                               112

 Number of orbital functions:                                                112
 Number of independent orbital functions:                                    112


 SCF WAVEFUNCTION OPTIMIZATION

  Step     Update method      Time    Convergence         Total energy    Change
  ------------------------------------------------------------------------------
     1 TBLite/Diag 0.40E+00    0.0     0.00645908       -96.5955203272 -9.66E+01
     2 TBLite/Diag 0.40E+00    0.0     0.00145930       -96.5955387318 -1.84E-05
     3 TBLite/Diag 0.40E+00    0.0     0.00024433       -96.5955398658 -1.13E-06
     4 TBLite/Diag 0.40E+00    0.0     0.00002089       -96.5955398685 -2.71E-09
     5 TBLite/Diag 0.40E+00    0.0     0.00000488       -96.5955398689 -4.41E-10
     6 TBLite/Diag 0.40E+00    0.0     0.00000269       -96.5955398690 -6.34E-11
     7 TBLite/Diag 0.40E+00    0.0     2.9963E-09       -96.5955398690 -1.42E-14
     8 TBLite/Diag 0.40E+00    0.0     3.0158E-10       -96.5955398690  1.14E-13

  *** SCF run converged in     8 steps ***


  Core Hamiltonian energy:                                    -97.80479658878419
  Repulsive potential energy:                                   0.63039571986515
  Electrostatic energy:                                         0.64459113532546
  Self-consistent dispersion energy:                            0.00000000000000
  Non-self consistent dispersion energy:                       -0.06573013539128
  Correction for halogen bonding:                               0.00000000000000
  Electronic entropic energy:                                  -0.00000000000000
  Fermi energy:                                                -0.35708304056735

  Total energy:                                               -96.59553986898486
  Total energy (extrapolated to T->0):                        -96.59553986898486

 ENERGY| Total FORCE_EVAL ( QS ) energy [hartree]            -96.595539868984858

 OPT| **************************************************************************
 OPT| Step number                                                             12
 OPT| Optimization method                                                   BFGS
 OPT| Total energy [hartree]                                      -96.5955398690
 OPT| Internal pressure [bar]                                    4162.6843261415
 OPT| Effective energy change [hartree]                            -0.0009204190
 OPT| Predicted energy change [hartree]                            -0.0006355130
 OPT| Scaling factor                                                0.0000000000
 OPT| Step size                                                     0.0602967640
 OPT| Trust radius                                                  0.4724315332
 OPT| Decrease in energy                                                     YES
 OPT| Used time [s]                                                        0.206
 OPT|
 OPT| Maximum step size                                             0.0602967640
 OPT| Convergence limit for maximum step size                       0.0030000000
 OPT| Maximum step size is converged                                          NO
 OPT|
 OPT| RMS step size                                                 0.0098425657
 OPT| Convergence limit for RMS step size                           0.0015000000
 OPT| RMS step size is converged                                              NO
 OPT|
 OPT| Maximum gradient                                              0.0060547194
 OPT| Convergence limit for maximum gradient                        0.0004500000
 OPT| Maximum gradient is converged                                           NO
 OPT|
 OPT| RMS gradient                                                  0.0024445429
 OPT| Convergence limit for RMS gradient                            0.0003000000
 OPT| RMS gradient is converged                                               NO
 OPT|
 OPT| Pressure deviation [bar]                                   4162.6843261415
 OPT| Pressure tolerance [bar]                                    100.0000000000
 OPT| Pressure is converged                                                   NO
 OPT| **************************************************************************
 OPT| Estimated peak process memory after this step [MiB]                    171

 --------------------------
 OPTIMIZATION STEP:     13
 --------------------------

 CELL| Volume [angstrom^3]:                                           280.454032
 CELL| Vector a [angstrom]:       6.192     0.000     0.000   |a| =     6.191534
 CELL| Vector b [angstrom]:      -0.000     7.860     0.000   |b| =     7.859530
 CELL| Vector c [angstrom]:       0.000    -0.000     5.763   |c| =     5.763242
 CELL| Angle (b,c), alpha [degree]:                                    90.000000
 CELL| Angle (a,c), beta  [degree]:                                    90.000000
 CELL| Angle (a,b), gamma [degree]:                                    90.000000
[...]
 CELL| Angle (a,c), beta  [degree]:                                    90.000000
 CELL| Angle (a,b), gamma [degree]:                                    90.000000
 CELL| Numerically orthorhombic:                                              NO
 CELL| Periodicity                                                           XYZ

 Extrapolation method: ASPC

 Number of electrons:                                                        136
 Number of occupied orbitals:                                                 68
 Number of molecular orbitals:                                               112

 Number of orbital functions:                                                112
 Number of independent orbital functions:                                    112


 SCF WAVEFUNCTION OPTIMIZATION

  Step     Update method      Time    Convergence         Total energy    Change
  ------------------------------------------------------------------------------
     1 TBLite/Diag 0.40E+00    0.0     0.00032353       -96.6043714571 -9.66E+01
     2 TBLite/Diag 0.40E+00    0.0     0.00002155       -96.6043714614 -4.35E-09
     3 TBLite/Diag 0.40E+00    0.0     0.00000421       -96.6043714617 -2.96E-10
     4 TBLite/Diag 0.40E+00    0.0     0.00000158       -96.6043714618 -3.09E-11
     5 TBLite/Diag 0.40E+00    0.0     0.00000017       -96.6043714618 -4.83E-13
     6 TBLite/Diag 0.40E+00    0.0     0.00000004       -96.6043714618  4.26E-14
     7 TBLite/Diag 0.40E+00    0.0     1.4896E-11       -96.6043714618 -1.42E-14

  *** SCF run converged in     7 steps ***


  Core Hamiltonian energy:                                    -97.79471976002317
  Repulsive potential energy:                                   0.61514518700975
  Electrostatic energy:                                         0.64378422962163
  Self-consistent dispersion energy:                            0.00000000000000
  Non-self consistent dispersion energy:                       -0.06858111837877
  Correction for halogen bonding:                               0.00000000000000
  Electronic entropic energy:                                  -0.00000000000000
  Fermi energy:                                                -0.35533331494789

  Total energy:                                               -96.60437146177057
  Total energy (extrapolated to T->0):                        -96.60437146177057

 ENERGY| Total FORCE_EVAL ( QS ) energy [hartree]            -96.604371461770569

 OPT| **************************************************************************
 OPT| Step number                                                             55
 OPT| Optimization method                                                   BFGS
 OPT| Total energy [hartree]                                      -96.6043714618
 OPT| Internal pressure [bar]                                     -76.4419324695
 OPT| Effective energy change [hartree]                            -0.0000002182
 OPT| Predicted energy change [hartree]                            -0.0000001872
 OPT| Scaling factor                                                0.0000000000
 OPT| Step size                                                     0.0016656935
 OPT| Trust radius                                                  0.4724315332
 OPT| Decrease in energy                                                     YES
 OPT| Used time [s]                                                        0.200
 OPT|
 OPT| Maximum step size                                             0.0016656935
 OPT| Convergence limit for maximum step size                       0.0030000000
 OPT| Maximum step size is converged                                         YES
 OPT|
 OPT| RMS step size                                                 0.0004040411
 OPT| Convergence limit for RMS step size                           0.0015000000
 OPT| RMS step size is converged                                             YES
 OPT|
 OPT| Maximum gradient                                              0.0000810136
 OPT| Convergence limit for maximum gradient                        0.0004500000
 OPT| Maximum gradient is converged                                          YES
 OPT|
 OPT| RMS gradient                                                  0.0000247866
 OPT| Convergence limit for RMS gradient                            0.0003000000
 OPT| RMS gradient is converged                                              YES
 OPT|
 OPT| Pressure deviation [bar]                                    -76.4419324695
 OPT| Pressure tolerance [bar]                                    100.0000000000
 OPT| Pressure is converged                                                  YES
 OPT| **************************************************************************
 OPT| Estimated peak process memory after this step [MiB]                    171

 *******************************************************************************
 ***                    GEOMETRY OPTIMIZATION COMPLETED                      ***
 *******************************************************************************

 write_final_structure: Optimization converged, writing XYZ file gladly:
  oxalic_acid_alpha_GFN1_gamma_cell_opt-FINAL-1_55.xyz

 write_final_structure: Optimization converged, writing CIF file gladly:
  oxalic_acid_alpha_GFN1_gamma_cell_opt-FINAL-1_55.cif

 write_final_structure: Done!

                    Reevaluating energy at the minimum

 CELL| Volume [angstrom^3]:                                           272.704804
 CELL| Vector a [angstrom]:       6.345     0.000     0.000   |a| =     6.344996
 CELL| Vector b [angstrom]:       0.000     7.527     0.000   |b| =     7.526517
 CELL| Vector c [angstrom]:       0.000    -0.000     5.710   |c| =     5.710411
 CELL| Angle (b,c), alpha [degree]:                                    90.000000
 CELL| Angle (a,c), beta  [degree]:                                    90.000000
 CELL| Angle (a,b), gamma [degree]:                                    90.000000
 CELL| Numerically orthorhombic:                                              NO
 CELL| Periodicity                                                           XYZ

 Extrapolation method: ASPC

 Number of electrons:                                                        136
 Number of occupied orbitals:                                                 68
 Number of molecular orbitals:                                               112

 Number of orbital functions:                                                112
 Number of independent orbital functions:                                    112


 SCF WAVEFUNCTION OPTIMIZATION

  Step     Update method      Time    Convergence         Total energy    Change
  ------------------------------------------------------------------------------
     1 TBLite/Diag 0.40E+00    0.0     1.2850E-11       -96.6043714618 -9.66E+01

  *** SCF run converged in     1 steps ***


  Core Hamiltonian energy:                                    -97.79471976001227
  Repulsive potential energy:                                   0.61514518700975
  Electrostatic energy:                                         0.64378422961072
  Self-consistent dispersion energy:                            0.00000000000000
  Non-self consistent dispersion energy:                       -0.06858111837877
  Correction for halogen bonding:                               0.00000000000000
  Electronic entropic energy:                                  -0.00000000000000
  Fermi energy:                                                -0.35533331494802

  Total energy:                                               -96.60437146177058
  Total energy (extrapolated to T->0):                        -96.60437146177058

 ENERGY| Total FORCE_EVAL ( QS ) energy [hartree]            -96.604371461770583

 -------------------------------------------------------------------------------
 -                                                                             -
 -                                DBCSR STATISTICS                             -
 -                                                                             -
 -------------------------------------------------------------------------------
 COUNTER                                    TOTAL       BLAS       SMM       ACC
 flops     2 x    16 x     2              2211840       0.0%    100.0%      0.0%     
 flops     2 x    32 x     2             13271040       0.0%    100.0%      0.0%     
 flops     2 x    16 x     4             13271040       0.0%    100.0%      0.0%     
 flops     4 x    16 x     2             13271040       0.0%    100.0%      0.0%     
 flops     2 x     2 x   112             16837632       0.0%    100.0%      0.0%     
 flops     2 x    32 x     4             79626240       0.0%    100.0%      0.0%     
 flops     4 x    32 x     2             79626240       0.0%    100.0%      0.0%     
 flops     4 x    16 x     4             79626240       0.0%    100.0%      0.0%     
 flops     2 x     4 x   112             89800704       0.0%    100.0%      0.0%     
 flops     4 x     2 x   112             89800704       0.0%    100.0%      0.0%     
 flops     4 x    32 x     4            477757440       0.0%    100.0%      0.0%     
 flops     4 x     4 x   112            561254400       0.0%    100.0%      0.0%     
 flops inhomo. stacks                           0       0.0%      0.0%      0.0%
 flops total                         1.516355E+09       0.0%    100.0%      0.0%
 flops max/rank                      1.516355E+09       0.0%    100.0%      0.0%
 matmuls inhomo. stacks                         0       0.0%      0.0%      0.0%
 matmuls total                            1381536       0.0%    100.0%      0.0%
 number of processed stacks                  4518       0.0%    100.0%      0.0%
 average stack size                                     0.0     305.8       0.0
 marketing flops                     1.649185E+09
 -------------------------------------------------------------------------------
 # multiplications                            792
 max memory usage/rank              13.674512E+09
 # max total images/rank                        1
 # max 3D layers                                1
 # MPI messages exchanged                       0
 -------------------------------------------------------------------------------
 -                                                                             -
 -                      DBCSR MESSAGE PASSING PERFORMANCE                      -
 -                                                                             -
 -------------------------------------------------------------------------------
 ROUTINE             CALLS      AVE VOLUME [Bytes]
 MP_Bcast               13                     12.
 MP_Allreduce         3463                      8.
 MP_Alltoall         23862                  64552.
 MP_ISend             3168                   5615.
 MP_IRecv             3168                   5615.
 -------------------------------------------------------------------------------

 -------------------------------------------------------------------------------
 -                                                                             -
 -                          OFFLOAD MEMPOOL STATISTICS                         -
 -                                                                             -
 -------------------------------------------------------------------------------
 Memory consumption                Number of allocations  Used [MiB]  Size [MiB]
 Device                                                1           0           0
 Host                                                  1           0           0
 -------------------------------------------------------------------------------

 MEMORY| Estimated peak process memory [MiB]                                 171

 -------------------------------------------------------------------------------
 -                                                                             -
 -                         MESSAGE PASSING PERFORMANCE                         -
 -                                                                             -
 -------------------------------------------------------------------------------

 ROUTINE             CALLS      AVE VOLUME [Bytes]
 MP_Group               56
 MP_Bcast             1042                    446.
 MP_Allreduce         9657                    219.
 MP_Sync               577
 MP_comm_split         521
 -------------------------------------------------------------------------------


 -------------------------------------------------------------------------------
 -                                                                             -
 -                           R E F E R E N C E S                               -
 -                                                                             -
 -------------------------------------------------------------------------------
 
 CP2K version 2026.1 (Development Version), the CP2K developers group (2026).
 CP2K is freely available from https://www.cp2k.org/ .
 
 M. Iannuzzi, J. Wilhelm, F. Stein, A. Bussy, H. Elgabarty, D. Golze, A. Hehn, 
 M. Graml, S. Marek, B. Sertcan Gökmen, C. Schran, H. Forbert, R. Z. 
 Khaliullin, A. Kozhevnikov, M. Taillefumier, R. Meli, V. V. Rybkin, M. Brehm, 
 R. Schade, O. Schütt, J. V. Pototschnig, H. Mirhosseini, A. Knüpfer, D. Marx, 
 M. Krack, J. Hutter, T. D. Kühne.
 J. Phys. Chem. B 130, 1237-1310 (2026).
 The CP2K Program Package Made Simple.
 https://doi.org/10.1021/acs.jpcb.5c05851

 A. Katbashev, M. Stahn, T. Rose, V. Alizadeh, M. Friede, C. Plett, P. 
 Steinbach, S. Ehlert.
 J. Phys. Chem. A 129, 2667-2682 (2025).
 Overview on Building Blocks and Applications of Efficient and Robust Extended 
 Tight Binding.
 https://doi.org/10.1021/acs.jpca.4c08263

 T. D. Kühne, M. Iannuzzi, M. Del Ben, V. V. Rybkin, P. Seewald, F. Stein, T. 
 Laino, R. Z. Khaliullin, O. Schütt, F. Schiffmann, D. Golze, J. Wilhelm, S. 
 Chulkov, M. H. Bani-Hashemian, V. Weber, U. Borstnik, M. Taillefumier, A. S. 
 Jakobovits, A. Lazzaro, H. Pabst, T. Müller, R. Schade, M. Guidon, S. 
 Andermatt, N. Holmberg, G. K. Schenter, A. Hehn, A. Bussy, F. Belleflamme, G. 
 Tabacchi, A. Glöß, M. Lass, I. Bethune, C. J. Mundy, C. Plessl, M. Watkins, 
 J. VandeVondele, M. Krack, J. Hutter.
 J. Chem. Phys. 152, 194103 (2020).
 CP2K: An electronic structure and molecular dynamics software package - 
 Quickstep: Efficient and accurate electronic structure calculations.
 https://doi.org/10.1063/5.0007045

 P. Pracht, E. Caldeweyher, S. Ehlert, S. Grimme.
 ChemRxiv, (2019).
 A Robust Non-Self-Consistent Tight-Binding Quantum Chemistry Method for large 
 Molecules.
 https://doi.org/10.26434/chemrxiv.8326202.v1

 S. Grimme, C. Bannwarth, P. Shushkov.
 J. Chem. Theory Comput. 13, 1989 (2017).
 A Robust and Accurate Tight-Binding Quantum Chemical Method for Structures, 
 Vibrational Frequencies, and Noncovalent Interactions of Large Molecular 
 Systems Parametrized for All spd-Block Elements (Z = 1-86).
 https://doi.org/10.1021/acs.jctc.7b00118

 O. Schuett, P. Messmer, J. Hutter, J. VandeVondele.
 Electronic Structure Calculations on Graphics Processing Units, 173-190 (2016).
 GPU-Accelerated Sparse Matrix-Matrix Multiplication for Linear Scaling Density 
 Functional Theory.
 https://doi.org/10.1002/9781118670712.ch8

 A. Heinecke, G. Henry, M. Hutchinson, H. Pabst.
 Proceedings of Intl. Supercomputing Conference, 981-991 (2016).
 LIBXSMM: Accelerating Small Matrix Multiplications by Runtime Code Generation.
 https://doi.org/10.1109/SC.2016.83

 U. Borstnik, J. VandeVondele, V. Weber, J. Hutter.
 Parallel Comput. 40, 47-58 (2014).
 Sparse matrix multiplication: The distributed block-compressed sparse row 
 library.
 https://doi.org/10.1016/j.parco.2014.03.012

 T. D. Kühne, M. Krack, F. R. Mohamed, M. Parrinello.
 Phys. Rev. Lett. 98, 066401 (2007).
 Efficient and accurate Car-Parrinello-like approach to Born-Oppenheimer 
 molecular dynamics.
 https://doi.org/10.1103/PhysRevLett.98.066401

 M. Frigo, S. G. Johnson.
 Proc. IEEE 93, 216-231 (2005).
 The design and implementation of FFTW3.
 https://doi.org/10.1109/JPROC.2004.840301

 J. Kolafa.
 J. Comput. Chem. 25, 335-342 (2004).
 Time-reversible always stable predictor-corrector method for molecular dynamics 
 of polarizable molecules.
 https://doi.org/10.1002/jcc.10385

 N. D. Mermin.
 Phys. Rev. 137, A1441-A1443 (1965).
 Thermal Properties of the Inhomogeneous Electron Gas.
 https://doi.org/10.1103/PhysRev.137.A1441


 -------------------------------------------------------------------------------
 -                                                                             -
 -                                T I M I N G                                  -
 -                                                                             -
 -------------------------------------------------------------------------------
 SUBROUTINE                       CALLS  ASD         SELF TIME        TOTAL TIME
                                MAXIMUM       AVERAGE  MAXIMUM  AVERAGE  MAXIMUM
 CP2K                                 1  1.0    0.002    0.002   15.478   15.478
 cp_cell_opt                          1  2.0    0.000    0.000   15.471   15.471
 geoopt_bfgs                          1  3.0    0.006    0.006   15.471   15.471
 cp_eval_at                          57  4.0    0.007    0.007   15.369   15.369
 qs_forces                           56  5.0    0.003    0.003   15.317   15.317
 build_tblite_matrices              113  7.0    6.687    6.687    6.752    6.752
 rebuild_ks_matrix                  466  9.6    0.001    0.001    6.362    6.362
 build_tblite_ks_matrix             466 10.6    6.357    6.357    6.362    6.362
 qs_ks_update_qs_env_forces          56  6.0    0.000    0.000    6.263    6.263
 qs_energies                         57  6.0    0.002    0.002    5.093    5.093
 qs_energies_init_hamiltonians       57  7.0    0.000    0.000    2.863    2.863
 scf_env_do_scf                      57  7.0    0.001    0.001    1.686    1.686
 scf_env_do_scf_inner_loop          410  8.0    0.046    0.046    1.681    1.681
 qs_scf_new_mos                     410  9.0    0.002    0.002    1.444    1.444
 eigensolver                        410 10.0    0.007    0.007    0.591    0.591
 cp_fm_syevd                        521 10.5    0.002    0.002    0.569    0.569
 cp_fm_syevd_base                   521 11.5    0.529    0.529    0.529    0.529
 cp_dbcsr_plus_fm_fm_t              522 10.8    0.003    0.003    0.508    0.508
 dbcsr_multiply_generic             792 12.0    0.017    0.017    0.478    0.478
 init_scf_run                        57  7.0    0.001    0.001    0.463    0.463
 calculate_dm_sparse                466 10.0    0.003    0.003    0.461    0.461
 scf_env_initial_rho_setup           57  8.0    0.001    0.001    0.434    0.434
 wfi_extrapolate                     57  9.0    0.002    0.002    0.433    0.433
 dbcsr_complete_redistribute       2404 12.2    0.289    0.289    0.388    0.388
 copy_dbcsr_to_fm                  1090 10.6    0.006    0.006    0.351    0.351
 -------------------------------------------------------------------------------

 The number of warnings for this run is : 0
 
 -------------------------------------------------------------------------------
  **** **** ******  **  PROGRAM ENDED AT                 2026-05-23 22:47:08.589
 ***** ** ***  *** **   PROGRAM RAN ON                                spark-c86c
 **    ****   ******    PROGRAM RAN BY                                  kuehne88
 ***** **    ** ** **   PROGRAM PROCESS ID                               2265953
  **** **  *******  **  PROGRAM STOPPED IN /home/kuehne88/periodic-gfn2-benchmar
                                           ks/X23b/runs/cellopt_gamma/GFN1/oxali
                                           c_acid_alpha_GFN1_gamma_cellopt
