 DBCSR| CPU Multiplication driver                                           BLAS (U)
 DBCSR| Multrec recursion limit                                              512 (U)
 DBCSR| Multiplication stack size                                           1000 (D)
 DBCSR| Maximum elements for images                                    UNLIMITED (U)
 DBCSR| Multiplicative factor virtual images                                   1 (U)
 DBCSR| Use multiplication densification                                       T (D)
 DBCSR| Multiplication size stacks                                             3 (U)
 DBCSR| Use memory pool for CPU allocation                                     F (U)
 DBCSR| Number of 3D layers                                               SINGLE (U)
 DBCSR| Use MPI memory allocation                                              F (U)
 DBCSR| Use RMA algorithm                                                      F (U)
 DBCSR| Use Communication thread                                               T (U)
 DBCSR| Communication thread load                                             87 (D)
 DBCSR| MPI: My process id                                                     0
 DBCSR| MPI: Number of processes                                               1
 DBCSR| OMP: Current number of threads                                         1
 DBCSR| OMP: Max number of threads                                             1
 DBCSR| Split modifier for TAS multiplication algorithm                  1.0E+00 (U)


  **** **** ******  **  PROGRAM STARTED AT               2026-07-21 16:10:35.930
 ***** ** ***  *** **   PROGRAM STARTED ON                                 terok
 **    ****   ******    PROGRAM STARTED BY                              kuehne88
 ***** **    ** ** **   PROGRAM PROCESS ID                               1037314
  **** **  *******  **  PROGRAM STARTED IN /home/kuehne88/work/h2o-molecular-lim
                                           it-20260721/stress_debug_8_50/raw/H2O
                                           _stress_L20

 CP2K| version string:                 CP2K version 2026.2 (Development Version)
 CP2K| source code revision number:                                    8520b2e59
 CP2K| cp2kflags: omp parallel scalapack spglib s_dftd3 mctc-lib tblite tblite_g
 CP2K|            xtb
 CP2K| is freely available from                            https://www.cp2k.org/
 CP2K| Program compiled at                                   2026-07-18 23:48:15
 CP2K| Program compiled on                                                 terok
 CP2K| Program compiled for                                               x86_64
 CP2K| Data directory path                            /usr/local/share/cp2k/data
 CP2K| Input file name        /home/kuehne88/work/h2o-molecular-limit-20260721/s

 GLOBAL| Force Environment number                                              1
 GLOBAL| Basis set file name                                           BASIS_SET
 GLOBAL| Potential file name                                           POTENTIAL
 GLOBAL| MM Potential file name                                     MM_POTENTIAL
 GLOBAL| Coordinate file name                                      __STD_INPUT__
 GLOBAL| Method name                                                        CP2K
 GLOBAL| Project name                                             H2O_stress_L20
 GLOBAL| Run type                                                          DEBUG
 GLOBAL| FFT library                                                       FFTW3
 GLOBAL| Diagonalization library                                       ScaLAPACK
 GLOBAL| Cholesky decomposition library                                ScaLAPACK
 GLOBAL| DGEMM library                                                      BLAS
 GLOBAL| Direct generalized diagonalization requested                          F
 GLOBAL| Orthonormality check for eigenvectors                          DISABLED
 GLOBAL| Matrix multiplication library                                 ScaLAPACK
 GLOBAL| All-to-all communication in single precision                          F
 GLOBAL| FFTs using library dependent lengths                                  F
 GLOBAL| Grid backend                                                       AUTO
 GLOBAL| Global print level                                               MEDIUM
 GLOBAL| MPI I/O enabled                                                       T
 GLOBAL| Total number of message passing processes                             1
 GLOBAL| Number of distributed systems (nodes)                                 1
 GLOBAL| Number of threads for this process                                    1
 GLOBAL| This output is from process                                           0
 GLOBAL| OpenMP stack size per thread (OMP_STACKSIZE)                    default
 GLOBAL| CPU model name                                       AMD EPYC Processor
 GLOBAL| CPUID                                                              1002

 MEMORY| system memory details [Kb]
 MEMORY|                        rank 0           min           max       average
 MEMORY| MemTotal            528104804     528104804     528104804     528104804
 MEMORY| MemFree             511714300     511714300     511714300     511714300
 MEMORY| Buffers                    20            20            20            20
 MEMORY| Cached               12273468      12273468      12273468      12273468
 MEMORY| Slab                  2373532       2373532       2373532       2373532
 MEMORY| SReclaimable          1020500       1020500       1020500       1020500
 MEMORY| MemLikelyFree       525008288     525008288     525008288     525008288


 *** WARNING in environment.F:1098 :: FFT library FFTW3 is not available. ***
 *** Trying FFT library FFTSG.                                            ***


 *** Fundamental physical constants (SI units) ***

 *** Literature: B. J. Mohr and B. N. Taylor,
 ***             CODATA recommended values of the fundamental physical
 ***             constants: 2006, Web Version 5.1
 ***             http://physics.nist.gov/constants

 Speed of light in vacuum [m/s]                             2.99792458000000E+08
 Magnetic constant or permeability of vacuum [N/A**2]       1.25663706143592E-06
 Electric constant or permittivity of vacuum [F/m]          8.85418781762039E-12
 Planck constant (h) [J*s]                                  6.62606896000000E-34
 Planck constant (h-bar) [J*s]                              1.05457162825177E-34
 Elementary charge [C]                                      1.60217648700000E-19
 Electron mass [kg]                                         9.10938215000000E-31
 Electron g factor [ ]                                     -2.00231930436220E+00
 Proton mass [kg]                                           1.67262163700000E-27
 Fine-structure constant                                    7.29735253760000E-03
 Rydberg constant [1/m]                                     1.09737315685270E+07
 Avogadro constant [1/mol]                                  6.02214179000000E+23
 Boltzmann constant [J/K]                                   1.38065040000000E-23
 Atomic mass unit [kg]                                      1.66053878200000E-27
 Bohr radius [m]                                            5.29177208590000E-11

 *** Conversion factors ***

 [u] -> [a.u.]                                              1.82288848426455E+03
 [Angstrom] -> [Bohr] = [a.u.]                              1.88972613288564E+00
 [a.u.] = [Bohr] -> [Angstrom]                              5.29177208590000E-01
 [a.u.] -> [s]                                              2.41888432650478E-17
 [a.u.] -> [fs]                                             2.41888432650478E-02
 [a.u.] -> [J]                                              4.35974393937059E-18
 [a.u.] -> [N]                                              8.23872205491840E-08
 [a.u.] -> [K]                                              3.15774647902944E+05
 [a.u.] -> [kJ/mol]                                         2.62549961709828E+03
 [a.u.] -> [kcal/mol]                                       6.27509468713739E+02
 [a.u.] -> [Pa]                                             2.94210107994716E+13
 [a.u.] -> [bar]                                            2.94210107994716E+08
 [a.u.] -> [atm]                                            2.90362800883016E+08
 [a.u.] -> [eV]                                             2.72113838565563E+01
 [a.u.] -> [Hz]                                             6.57968392072181E+15
 [a.u.] -> [1/cm] (wave numbers)                            2.19474631370540E+05
 [a.u./Bohr**2] -> [1/cm]                                   5.14048714338585E+03
 

 CELL| Volume [angstrom^3]:                                          8000.000000
 CELL| Vector a [angstrom]:      20.000     0.000     0.000   |a| =    20.000000
 CELL| Vector b [angstrom]:       0.000    20.000     0.000   |b| =    20.000000
 CELL| Vector c [angstrom]:       0.000     0.000    20.000   |c| =    20.000000
 CELL| Angle (b,c), alpha [degree]:                                    90.000000
 CELL| Angle (a,c), beta  [degree]:                                    90.000000
 CELL| Angle (a,b), gamma [degree]:                                    90.000000
 CELL| Numerically orthorhombic:                                             YES
 CELL| Periodicity                                                           XYZ

 CELL_REF| Volume [angstrom^3]:                                      8000.000000
 CELL_REF| Vector a [angstrom    20.000     0.000     0.000   |a| =    20.000000
 CELL_REF| Vector b [angstrom     0.000    20.000     0.000   |b| =    20.000000
 CELL_REF| Vector c [angstrom     0.000     0.000    20.000   |c| =    20.000000
 CELL_REF| Angle (b,c), alpha [degree]:                                90.000000
 CELL_REF| Angle (a,c), beta  [degree]:                                90.000000
 CELL_REF| Angle (a,b), gamma [degree]:                                90.000000
 CELL_REF| Numerically orthorhombic:                                         YES
 CELL_REF| Periodicity                                                       XYZ

 GENERATE|  Preliminary Number of Bonds generated:                             0
 GENERATE|  Achieved consistency in connectivity generation.


                  #####   #####        #     #   #     #       #          
                 #     # #     #      #    ##### #     #   # #####  ####  
                 #     # #           #       #   ###   #       #   #    # 
                 #     #  #####     #        #   #  #  #   #   #   ###### 
                 #   # #       #   #         #   #   # #   #   #   #      
                 #    #  #     #  #          #   #  #  # # #   #    #   # 
                  #### #  #####  #           #   ###   ##  #   #     ###  

                                     g-xTB   
                                 Version 0.0                       
                            Johann V. Pototschnig                  

                tblite provider: SAVE
                tblite source revision: 15915c9435644eb257178ca8f8bf7220c38b1a84
                g-xTB support: enabled

 xTB| Parameter file                                             xTB1_parameters
 xTB| Basis expansion STO-NG                                                   6
 xTB| Basis expansion STO-NG for Hydrogen                                      4
 xTB| Repulsive pair potential accuracy                               0.1000E-09
 xTB| Repulsive enhancement factor                                      0.000000
 xTB| Halogen interaction potential                                            T
 xTB| Halogen interaction potential cutoff radius                         20.000
 xTB| Nonbonded interactions                                                   F
 xTB| vdW potential type:                                              DFTD3(BJ)
 xTB| D3 Dispersion: Parameter                                         dftd3.dat
 xTB| Huckel constants ks kp kd                        1.850     2.250     2.000
 xTB| Huckel constants ksp k2sh                                  2.080     2.850
 xTB| Mataga-Nishimoto exponent                                            2.000
 xTB| Repulsion potential exponent                                         1.500
 xTB| Coordination number scaling kcn(s) kcn(p) kc     0.006    -0.003    -0.005
 xTB| Electronegativity scaling                                           -0.007
 xTB| Halogen potential scaling kxr kx2                          1.300     0.440
 xTB| SCC mixer:                                                       TBLITE
 xTB| tblite accuracy:                                                 1.000E-01
 xTB| tblite SCC mixer damping:                                            0.400
 xTB| tblite SCC mixer iterations:                                           300
 xTB| tblite SCC mixer memory:                                               300
 xTB| tblite SCC mixer solver:                                         GVD
 xTB| tblite SCC mixer omega0:                                         1.000E-02
 xTB| tblite SCC mixer min weight:                                     1.000E+00
 xTB| tblite SCC mixer max weight:                                     1.000E+05
 xTB| tblite SCC mixer weight factor:                                  1.000E-02




 ATOMIC KIND INFORMATION

  1. Atomic kind: O                                     Number of atoms:       1

     Orbital Basis Set                                                 O _STO-6G

       Number of orbital shell sets:                                           2
       Number of orbital shells:                                               2
       Number of primitive Cartesian functions:                               12
       Number of Cartesian basis functions:                                    4
       Number of spherical basis functions:                                    4
       Norm type:                                                              3

       Normalised Cartesian orbitals:

                        Set   Shell   Orbital            Exponent    Coefficient

                          1       1    1s                3.483595      -1.313024
                                                         2.859866       1.114872
                                                         0.740681       0.294549
                                                         0.344927       0.081390
                                                         0.261979       0.039458
                                                         0.094616       0.012363

                          2       1    2px              37.641471       1.474721
                                                         9.713089       1.794175
                                                         3.137177       1.303626
                                                         1.121381       0.633327
                                                         0.398078       0.183090
                                                         0.123048       0.019124
                          2       1    2py              37.641471       1.474721
                                                         9.713089       1.794175
                                                         3.137177       1.303626
                                                         1.121381       0.633327
                                                         0.398078       0.183090
                                                         0.123048       0.019124
                          2       1    2pz              37.641471       1.474721
                                                         9.713089       1.794175
                                                         3.137177       1.303626
                                                         1.121381       0.633327
                                                         0.398078       0.183090
                                                         0.123048       0.019124

     AE Potential information for                                         Oxygen

       Description:                                       Bare Coulomb Potential
                                                             Valence charge only

       Gaussian exponent of the core charge distribution:               3.753049
       Electronic configuration (s p d ...):                       2   4   0   0

  2. Atomic kind: H                                     Number of atoms:       2

     Orbital Basis Set                                                 H _STO-8G

       Number of orbital shell sets:                                           1
       Number of orbital shells:                                               1
       Number of primitive Cartesian functions:                                8
       Number of Cartesian basis functions:                                    1
       Number of spherical basis functions:                                    1
       Norm type:                                                              3

       Normalised Cartesian orbitals:

                        Set   Shell   Orbital            Exponent    Coefficient

                          1       1    1s              337.005012       0.038636
                                                        53.310531       0.064369
                                                        12.208253       0.119184
                                                         3.418827       0.179125
                                                         1.108790       0.225727
                                                         0.478718       0.127521
                                                         0.212137       0.089380
                                                         0.069058      -0.000553

     AE Potential information for                                       Hydrogen

       Description:                                       Bare Coulomb Potential
                                                              Full atomic charge

       Gaussian exponent of the core charge distribution:              12.500000
       Electronic configuration (s p d ...):                       1   0   0   0


 MOLECULE KIND INFORMATION


 All atoms are their own molecule, skipping detailed information


 TOTAL NUMBERS AND MAXIMUM NUMBERS

  Total number of            - Atomic kinds:                                   2
                             - Atoms:                                          3
                             - Shell sets:                                     4
                             - Shells:                                         4
                             - Primitive Cartesian functions:                 28
                             - Cartesian basis functions:                      6
                             - Spherical basis functions:                      6

  Maximum angular momentum of the orbital basis functions:                     1


 MODULE QUICKSTEP: ATOMIC COORDINATES IN ANGSTROM

   Atom Kind Element         X             Y             Z       Z(eff)     Mass
      1    1 O     8      0.000000      0.000000      0.000000   6.0000  15.9994
      2    2 H     1      0.758602      0.000000      0.504284   1.0000   1.0079
      3    2 H     1     -0.758602      0.000000      0.504284   1.0000   1.0079



 SCF PARAMETERS         Density guess:                                     MOPAC
                        --------------------------------------------------------
                        max_scf:                                             300
                        max_scf_history:                                       0
                        max_diis:                                              4
                        --------------------------------------------------------
                        eps_scf:                                        1.00E-10
                        eps_scf_history:                                0.00E+00
                        eps_diis:                                       1.00E-01
                        eps_eigval:                                     1.00E-05
                        --------------------------------------------------------
                        level_shift [a.u.]:                             0.000000
                        added MOs                                         2    0
                        --------------------------------------------------------
                        Mixing method:                           DIRECT_P_MIXING
                        --------------------------------------------------------
                        No outer SCF

 PW_GRID| Information for grid number                                          1
 PW_GRID| Cutoff [a.u.]                                                      1.0
 PW_GRID| spherical cutoff:                                                   NO
 PW_GRID|   Bounds   1             -9       8                Points:          18
 PW_GRID|   Bounds   2             -9       8                Points:          18
 PW_GRID|   Bounds   3             -9       8                Points:          18
 PW_GRID| Volume element (a.u.^3)   9.257         Volume (a.u.^3)     53986.6767
 PW_GRID| Grid span                                                    FULLSPACE

 POISSON| Solver                                                        PERIODIC
 POISSON| Periodicity                                                        XYZ

 RS_GRID| Information for grid number                                          1
 RS_GRID|   Bounds   1             -9       8                Points:          18
 RS_GRID|   Bounds   2             -9       8                Points:          18
 RS_GRID|   Bounds   3             -9       8                Points:          18

 Extrapolation method: initial_guess

 Number of electrons:                                                          8
 Number of occupied orbitals:                                                  4
 Number of molecular orbitals:                                                 6

 Number of orbital functions:                                                  6
 Number of independent orbital functions:                                      6


 SCF WAVEFUNCTION OPTIMIZATION

  Step     Update method      Time    Convergence         Total energy    Change
  ------------------------------------------------------------------------------
     1 GXTB-Raw    0.10E+01    0.0     0.75095994       -76.4048131213 -7.64E+01
     2 GXTB-Simple 0.20E+00    0.0     0.06447993       -76.4198364483 -1.50E-02
     3 GXTB-Simple 0.20E+00    0.0     0.04434874       -76.4273246470 -7.49E-03
     4 GXTB-FDIIS  0.10E+01    0.0     0.09833967       -76.4349093567 -7.58E-03
     5 GXTB-FDIIS  0.10E+01    0.0     0.01072236       -76.4350040054 -9.46E-05
     6 GXTB-FDIIS  0.10E+01    0.0     0.00160414       -76.4350054329 -1.43E-06
     7 GXTB-FDIIS  0.10E+01    0.0     0.00011846       -76.4350054363 -3.36E-09
     8 GXTB-FDIIS  0.10E+01    0.0     0.00000734       -76.4350054363 -4.58E-12
     9 GXTB-FDIIS  0.10E+01    0.0     0.00000133       -76.4350054363 -6.11E-13
    10 GXTB-FDIIS  0.10E+01    0.0     0.00000010       -76.4350054363  0.00E+00
    11 GXTB-FDIIS  0.10E+01    0.0     7.9140E-11       -76.4350054363 -1.42E-14

  *** SCF run converged in    11 steps ***


  Core Hamiltonian energy:                                     -6.32294815088577
  Repulsive potential energy:                                   0.41025683121465
  Electrostatic energy:                                         0.14501600159020
  Self-consistent dispersion energy:                           -0.00003921037248
  Non-self consistent dispersion energy:                        0.00000009665358
  Correction for halogen bonding:                               0.00000000000000

  Total energy:                                               -76.43500543631257


 MULLIKEN POPULATION ANALYSIS

  # Atom   Element   Kind        Atomic population                    Net charge
       1     O          1                 6.656599                     -0.656599
       2     H          2                 0.671700                      0.328300
       3     H          2                 0.671700                      0.328300
 # Total charge                           8.000000                     -0.000000


 tblite reference CLI check
 Executable: tblite
 Method:     gxtb
 Guess:      auto
 Solver:     gvd
 Spin-pol.:  F
 Grad file:  H2O_stress_L20_cli.grad
 JSON file:  H2O_stress_L20_cli.json
 Log file:   H2O_stress_L20_cli.log
 Energy CP2K/CLI/absdiff:   -7.643500543631E+01   -7.643500543564E+01    6.722871148668E-10
 Gradient diff sum/max:    8.467168299219E-08    2.120320978516E-08
 Virial diff sum/max:    7.977774039477E-08    5.986457153606E-08

 ENERGY| Total FORCE_EVAL ( QS ) energy [hartree]            -76.435005436312565

 -------------------------------------------------------------------------------
 ----                             MULTIGRID INFO                            ----
 -------------------------------------------------------------------------------
 total grid count     :           420              cutoff [a.u.]            1.00

 PW_GRID| Information for grid number                                          2
 PW_GRID| Cutoff [a.u.]                                                      1.0
 PW_GRID| spherical cutoff:                                                   NO
 PW_GRID|   Bounds   1             -9       8                Points:          18
 PW_GRID|   Bounds   2             -9       8                Points:          18
 PW_GRID|   Bounds   3             -9       8                Points:          18
 PW_GRID| Volume element (a.u.^3)   9.257         Volume (a.u.^3)     53986.8195
 PW_GRID| Grid span                                                    FULLSPACE

 POISSON| Solver                                                        PERIODIC
 POISSON| Periodicity                                                        XYZ

 RS_GRID| Information for grid number                                          2
 RS_GRID|   Bounds   1             -9       8                Points:          18
 RS_GRID|   Bounds   2             -9       8                Points:          18
 RS_GRID|   Bounds   3             -9       8                Points:          18

 Parameters for the always stable predictor-corrector (ASPC) method:

  ASPC order: 0

  B(1) =   1.000000

 Extrapolation method: ASPC

 Number of electrons:                                                          8
 Number of occupied orbitals:                                                  4
 Number of molecular orbitals:                                                 6

 Number of orbital functions:                                                  6
 Number of independent orbital functions:                                      6


 SCF WAVEFUNCTION OPTIMIZATION

  Step     Update method      Time    Convergence         Total energy    Change
  ------------------------------------------------------------------------------
     1 GXTB-Raw    0.10E+01    0.0     0.00000207       -76.4350057083 -7.64E+01
     2 GXTB-Simple 0.20E+00    0.0     0.00000023       -76.4350057083 -1.28E-13
     3 GXTB-Simple 0.20E+00    0.0     0.00000019       -76.4350057083 -8.53E-14
     4 GXTB-FDIIS  0.10E+01    0.0     0.00000085       -76.4350057083 -1.56E-13
     5 GXTB-FDIIS  0.10E+01    0.0     0.00000004       -76.4350057083  0.00E+00
     6 GXTB-FDIIS  0.10E+01    0.0     0.00000002       -76.4350057083  0.00E+00
     7 GXTB-FDIIS  0.10E+01    0.0     3.5725E-10       -76.4350057083  0.00E+00
     8 GXTB-FDIIS  0.10E+01    0.0     1.3878E-15       -76.4350057083 -1.42E-14

  *** SCF run converged in     8 steps ***


  Core Hamiltonian energy:                                     -6.32294583799955
  Repulsive potential energy:                                   0.41025394096283
  Electrostatic energy:                                         0.14501610685905
  Self-consistent dispersion energy:                           -0.00003921060830
  Non-self consistent dispersion energy:                        0.00000009665138
  Correction for halogen bonding:                               0.00000000000000

  Total energy:                                               -76.43500570830500


 MULLIKEN POPULATION ANALYSIS

  # Atom   Element   Kind        Atomic population                    Net charge
       1     O          1                 6.656599                     -0.656599
       2     H          2                 0.671700                      0.328300
       3     H          2                 0.671700                      0.328300
 # Total charge                           8.000000                     -0.000000


 tblite reference CLI check
 Executable: tblite
 Method:     gxtb
 Guess:      auto
 Solver:     gvd
 Spin-pol.:  F
 Grad file:  H2O_stress_L20_cli.grad
 JSON file:  H2O_stress_L20_cli.json
 Log file:   H2O_stress_L20_cli.log
 Energy CP2K/CLI/absdiff:   -7.643500570830E+01   -7.643500570763E+01    6.722729040121E-10
 Gradient diff sum/max:    7.498740482956E-06    1.913114295093E-06
 Virial diff sum/max:    1.658948638665E-01    1.027959677444E-01
 tblite reference CLI deviation exceeded ERROR_LIMIT =   1.0000E-05

 ENERGY| Total FORCE_EVAL ( QS ) energy [hartree]            -76.435005708304999

 -------------------------------------------------------------------------------
 ----                             MULTIGRID INFO                            ----
 -------------------------------------------------------------------------------
 total grid count     :           420              cutoff [a.u.]            1.00

 PW_GRID| Information for grid number                                          3
 PW_GRID| Cutoff [a.u.]                                                      1.0
 PW_GRID| spherical cutoff:                                                   NO
 PW_GRID|   Bounds   1             -9       8                Points:          18
 PW_GRID|   Bounds   2             -9       8                Points:          18
 PW_GRID|   Bounds   3             -9       8                Points:          18
 PW_GRID| Volume element (a.u.^3)   9.257         Volume (a.u.^3)     53986.5338
 PW_GRID| Grid span                                                    FULLSPACE

 POISSON| Solver                                                        PERIODIC
 POISSON| Periodicity                                                        XYZ

 RS_GRID| Information for grid number                                          3
 RS_GRID|   Bounds   1             -9       8                Points:          18
 RS_GRID|   Bounds   2             -9       8                Points:          18
 RS_GRID|   Bounds   3             -9       8                Points:          18

 Parameters for the always stable predictor-corrector (ASPC) method:

  ASPC order: 0

  B(1) =   2.000000
  B(2) =  -1.000000

 Extrapolation method: ASPC

 Number of electrons:                                                          8
 Number of occupied orbitals:                                                  4
 Number of molecular orbitals:                                                 6

 Number of orbital functions:                                                  6
 Number of independent orbital functions:                                      6


 SCF WAVEFUNCTION OPTIMIZATION

  Step     Update method      Time    Convergence         Total energy    Change
  ------------------------------------------------------------------------------
     1 GXTB-Raw    0.10E+01    0.0     0.00000414       -76.4350051643 -7.64E+01
     2 GXTB-Simple 0.20E+00    0.0     0.00000046       -76.4350051643 -5.26E-13
     3 GXTB-Simple 0.20E+00    0.0     0.00000038       -76.4350051643 -3.27E-13
     4 GXTB-FDIIS  0.10E+01    0.0     0.00000169       -76.4350051643 -6.25E-13
     5 GXTB-FDIIS  0.10E+01    0.0     0.00000009       -76.4350051643  0.00E+00
     6 GXTB-FDIIS  0.10E+01    0.0     0.00000004       -76.4350051643 -1.42E-14
     7 GXTB-FDIIS  0.10E+01    0.0     7.1451E-10       -76.4350051643  1.42E-14
     8 GXTB-FDIIS  0.10E+01    0.0     5.9952E-15       -76.4350051643  0.00E+00

  *** SCF run converged in     8 steps ***


  Core Hamiltonian energy:                                     -6.32295046377365
  Repulsive potential energy:                                   0.41025972148382
  Electrostatic energy:                                         0.14501589632259
  Self-consistent dispersion energy:                           -0.00003921013665
  Non-self consistent dispersion energy:                        0.00000009665578
  Correction for halogen bonding:                               0.00000000000000

  Total energy:                                               -76.43500516430633


 MULLIKEN POPULATION ANALYSIS

  # Atom   Element   Kind        Atomic population                    Net charge
       1     O          1                 6.656600                     -0.656600
       2     H          2                 0.671700                      0.328300
       3     H          2                 0.671700                      0.328300
 # Total charge                           8.000000                     -0.000000


 tblite reference CLI check
 Executable: tblite
 Method:     gxtb
 Guess:      auto
 Solver:     gvd
 Spin-pol.:  F
 Grad file:  H2O_stress_L20_cli.grad
 JSON file:  H2O_stress_L20_cli.json
 Log file:   H2O_stress_L20_cli.log
 Energy CP2K/CLI/absdiff:   -7.643500516431E+01   -7.643500516363E+01    6.723013257215E-10
 Gradient diff sum/max:    7.668171997966E-06    1.955547078547E-06
 Virial diff sum/max:    1.659084273957E-01    1.028058447527E-01
 tblite reference CLI deviation exceeded ERROR_LIMIT =   1.0000E-05

 ENERGY| Total FORCE_EVAL ( QS ) energy [hartree]            -76.435005164306332

 -------------------------------------------------------------------------------
 ----                             MULTIGRID INFO                            ----
 -------------------------------------------------------------------------------
 total grid count     :           420              cutoff [a.u.]            1.00

 PW_GRID| Information for grid number                                          4
 PW_GRID| Cutoff [a.u.]                                                      1.0
 PW_GRID| spherical cutoff:                                                   NO
 PW_GRID|   Bounds   1             -9       8                Points:          18
 PW_GRID|   Bounds   2             -9       8                Points:          18
 PW_GRID|   Bounds   3             -9       8                Points:          18
 PW_GRID| Volume element (a.u.^3)   9.257         Volume (a.u.^3)     53986.6767
 PW_GRID| Grid span                                                    FULLSPACE

 POISSON| Solver                                                        PERIODIC
 POISSON| Periodicity                                                        XYZ

 RS_GRID| Information for grid number                                          4
 RS_GRID|   Bounds   1             -9       8                Points:          18
 RS_GRID|   Bounds   2             -9       8                Points:          18
 RS_GRID|   Bounds   3             -9       8                Points:          18

 Parameters for the always stable predictor-corrector (ASPC) method:

  ASPC order: 1

  B(1) =   2.500000
  B(2) =  -2.000000
  B(3) =   0.500000

 Extrapolation method: ASPC

 Number of electrons:                                                          8
 Number of occupied orbitals:                                                  4
 Number of molecular orbitals:                                                 6

 Number of orbital functions:                                                  6
 Number of independent orbital functions:                                      6


 SCF WAVEFUNCTION OPTIMIZATION

  Step     Update method      Time    Convergence         Total energy    Change
  ------------------------------------------------------------------------------
     1 GXTB-Raw    0.10E+01    0.0     0.00000207       -76.4350054363 -7.64E+01
     2 GXTB-Simple 0.20E+00    0.0     0.00000023       -76.4350054363 -1.28E-13
     3 GXTB-Simple 0.20E+00    0.0     0.00000019       -76.4350054363 -8.53E-14
     4 GXTB-FDIIS  0.10E+01    0.0     0.00000085       -76.4350054363 -1.56E-13
     5 GXTB-FDIIS  0.10E+01    0.0     0.00000004       -76.4350054363  0.00E+00
     6 GXTB-FDIIS  0.10E+01    0.0     0.00000002       -76.4350054363  0.00E+00
     7 GXTB-FDIIS  0.10E+01    0.0     3.5725E-10       -76.4350054363  0.00E+00
     8 GXTB-FDIIS  0.10E+01    0.0     1.1102E-15       -76.4350054363  0.00E+00

  *** SCF run converged in     8 steps ***


  Core Hamiltonian energy:                                     -6.32294815088578
  Repulsive potential energy:                                   0.41025683121464
  Electrostatic energy:                                         0.14501600159021
  Self-consistent dispersion energy:                           -0.00003921037248
  Non-self consistent dispersion energy:                        0.00000009665358
  Correction for halogen bonding:                               0.00000000000000

  Total energy:                                               -76.43500543631254


 MULLIKEN POPULATION ANALYSIS

  # Atom   Element   Kind        Atomic population                    Net charge
       1     O          1                 6.656599                     -0.656599
       2     H          2                 0.671700                      0.328300
       3     H          2                 0.671700                      0.328300
 # Total charge                           8.000000                     -0.000000


 tblite reference CLI check
 Executable: tblite
 Method:     gxtb
 Guess:      auto
 Solver:     gvd
 Spin-pol.:  F
 Grad file:  H2O_stress_L20_cli.grad
 JSON file:  H2O_stress_L20_cli.json
 Log file:   H2O_stress_L20_cli.log
 Energy CP2K/CLI/absdiff:   -7.643500543631E+01   -7.643500543564E+01    6.722871148668E-10
 Gradient diff sum/max:    8.467410737013E-08    2.120320842514E-08
 Virial diff sum/max:    1.659016778925E-01    1.028009062379E-01
 tblite reference CLI deviation exceeded ERROR_LIMIT =   1.0000E-05

 ENERGY| Total FORCE_EVAL ( QS ) energy [hartree]            -76.435005436312537

 -------------------------------------------------------------------------------
 ----                             MULTIGRID INFO                            ----
 -------------------------------------------------------------------------------
 total grid count     :           420              cutoff [a.u.]            1.00

 PW_GRID| Information for grid number                                          5
 PW_GRID| Cutoff [a.u.]                                                      1.0
 PW_GRID| spherical cutoff:                                                   NO
 PW_GRID|   Bounds   1             -9       8                Points:          18
 PW_GRID|   Bounds   2             -9       8                Points:          18
 PW_GRID|   Bounds   3             -9       8                Points:          18
 PW_GRID| Volume element (a.u.^3)   9.257         Volume (a.u.^3)     53986.6767
 PW_GRID| Grid span                                                    FULLSPACE

 POISSON| Solver                                                        PERIODIC
 POISSON| Periodicity                                                        XYZ

 RS_GRID| Information for grid number                                          5
 RS_GRID|   Bounds   1             -9       8                Points:          18
 RS_GRID|   Bounds   2             -9       8                Points:          18
 RS_GRID|   Bounds   3             -9       8                Points:          18

 Parameters for the always stable predictor-corrector (ASPC) method:

  ASPC order: 2

  B(1) =   2.800000
  B(2) =  -2.800000
  B(3) =   1.200000
  B(4) =  -0.200000

 Extrapolation method: ASPC

 Number of electrons:                                                          8
 Number of occupied orbitals:                                                  4
 Number of molecular orbitals:                                                 6

 Number of orbital functions:                                                  6
 Number of independent orbital functions:                                      6


 SCF WAVEFUNCTION OPTIMIZATION

  Step     Update method      Time    Convergence         Total energy    Change
  ------------------------------------------------------------------------------
     1 GXTB-Raw    0.10E+01    0.0     5.8138E-12       -76.4350054363 -7.64E+01

  *** SCF run converged in     1 steps ***


  Core Hamiltonian energy:                                     -6.32294815088578
  Repulsive potential energy:                                   0.41025683121464
  Electrostatic energy:                                         0.14501600159021
  Self-consistent dispersion energy:                           -0.00003921037248
  Non-self consistent dispersion energy:                        0.00000009665358
  Correction for halogen bonding:                               0.00000000000000

  Total energy:                                               -76.43500543631254


 MULLIKEN POPULATION ANALYSIS

  # Atom   Element   Kind        Atomic population                    Net charge
       1     O          1                 6.656599                     -0.656599
       2     H          2                 0.671700                      0.328300
       3     H          2                 0.671700                      0.328300
 # Total charge                           8.000000                     -0.000000


 tblite reference CLI check
 Executable: tblite
 Method:     gxtb
 Guess:      auto
 Solver:     gvd
 Spin-pol.:  F
 Grad file:  H2O_stress_L20_cli.grad
 JSON file:  H2O_stress_L20_cli.json
 Log file:   H2O_stress_L20_cli.log
 Energy CP2K/CLI/absdiff:   -7.643500543631E+01   -7.643500543564E+01    6.722871148668E-10
 Gradient diff sum/max:    8.467410729407E-08    2.120320842514E-08
 Virial diff sum/max:    1.659016778925E-01    1.028009062379E-01
 tblite reference CLI deviation exceeded ERROR_LIMIT =   1.0000E-05

 ENERGY| Total FORCE_EVAL ( QS ) energy [hartree]            -76.435005436312537

 -------------------------------------------------------------------------------
 ----                             MULTIGRID INFO                            ----
 -------------------------------------------------------------------------------
 total grid count     :           420              cutoff [a.u.]            1.00

 PW_GRID| Information for grid number                                          6
 PW_GRID| Cutoff [a.u.]                                                      1.0
 PW_GRID| spherical cutoff:                                                   NO
 PW_GRID|   Bounds   1             -9       8                Points:          18
 PW_GRID|   Bounds   2             -9       8                Points:          18
 PW_GRID|   Bounds   3             -9       8                Points:          18
 PW_GRID| Volume element (a.u.^3)   9.257         Volume (a.u.^3)     53986.6767
 PW_GRID| Grid span                                                    FULLSPACE

 POISSON| Solver                                                        PERIODIC
 POISSON| Periodicity                                                        XYZ

 RS_GRID| Information for grid number                                          6
 RS_GRID|   Bounds   1             -9       8                Points:          18
 RS_GRID|   Bounds   2             -9       8                Points:          18
 RS_GRID|   Bounds   3             -9       8                Points:          18

 Parameters for the always stable predictor-corrector (ASPC) method:

  ASPC order: 3

  B(1) =   3.000000
  B(2) =  -3.428571
  B(3) =   1.928571
  B(4) =  -0.571429
  B(5) =   0.071429

 Extrapolation method: ASPC

 Number of electrons:                                                          8
 Number of occupied orbitals:                                                  4
 Number of molecular orbitals:                                                 6

 Number of orbital functions:                                                  6
 Number of independent orbital functions:                                      6


 SCF WAVEFUNCTION OPTIMIZATION

  Step     Update method      Time    Convergence         Total energy    Change
  ------------------------------------------------------------------------------
     1 GXTB-Raw    0.10E+01    0.0     0.00000065       -76.4350054363 -7.64E+01
     2 GXTB-Simple 0.20E+00    0.0     0.00000007       -76.4350054363 -5.68E-14
     3 GXTB-Simple 0.20E+00    0.0     0.00000006       -76.4350054363 -4.26E-14
     4 GXTB-FDIIS  0.10E+01    0.0     0.00000027       -76.4350054363 -9.95E-14
     5 GXTB-FDIIS  0.10E+01    0.0     9.4755E-09       -76.4350054363  1.42E-14
     6 GXTB-FDIIS  0.10E+01    0.0     1.2558E-09       -76.4350054363  0.00E+00
     7 GXTB-FDIIS  0.10E+01    0.0     1.5013E-10       -76.4350054363  0.00E+00
     8 GXTB-FDIIS  0.10E+01    0.0     3.4417E-15       -76.4350054363  0.00E+00

  *** SCF run converged in     8 steps ***


  Core Hamiltonian energy:                                     -6.32294815088613
  Repulsive potential energy:                                   0.41025683121815
  Electrostatic energy:                                         0.14501600159039
  Self-consistent dispersion energy:                           -0.00003921037248
  Non-self consistent dispersion energy:                        0.00000009665358
  Correction for halogen bonding:                               0.00000000000000

  Total energy:                                               -76.43500543630977


 MULLIKEN POPULATION ANALYSIS

  # Atom   Element   Kind        Atomic population                    Net charge
       1     O          1                 6.656599                     -0.656599
       2     H          2                 0.671700                      0.328300
       3     H          2                 0.671700                      0.328300
 # Total charge                           8.000000                     -0.000000


 tblite reference CLI check
 Executable: tblite
 Method:     gxtb
 Guess:      auto
 Solver:     gvd
 Spin-pol.:  F
 Grad file:  H2O_stress_L20_cli.grad
 JSON file:  H2O_stress_L20_cli.json
 Log file:   H2O_stress_L20_cli.log
 Energy CP2K/CLI/absdiff:   -7.643500543631E+01   -7.643500543564E+01    6.722729040121E-10
 Gradient diff sum/max:    5.993327558761E-06    2.197378513546E-06
 Virial diff sum/max:    1.659058661737E-01    1.028009062409E-01
 tblite reference CLI deviation exceeded ERROR_LIMIT =   1.0000E-05

 ENERGY| Total FORCE_EVAL ( QS ) energy [hartree]            -76.435005436309766

 -------------------------------------------------------------------------------
 ----                             MULTIGRID INFO                            ----
 -------------------------------------------------------------------------------
 total grid count     :           420              cutoff [a.u.]            1.00

 PW_GRID| Information for grid number                                          7
 PW_GRID| Cutoff [a.u.]                                                      1.0
 PW_GRID| spherical cutoff:                                                   NO
 PW_GRID|   Bounds   1             -9       8                Points:          18
 PW_GRID|   Bounds   2             -9       8                Points:          18
 PW_GRID|   Bounds   3             -9       8                Points:          18
 PW_GRID| Volume element (a.u.^3)   9.257         Volume (a.u.^3)     53986.6767
 PW_GRID| Grid span                                                    FULLSPACE

 POISSON| Solver                                                        PERIODIC
 POISSON| Periodicity                                                        XYZ

 RS_GRID| Information for grid number                                          7
 RS_GRID|   Bounds   1             -9       8                Points:          18
 RS_GRID|   Bounds   2             -9       8                Points:          18
 RS_GRID|   Bounds   3             -9       8                Points:          18

 Parameters for the always stable predictor-corrector (ASPC) method:

  ASPC order: 3

  B(1) =   3.000000
  B(2) =  -3.428571
  B(3) =   1.928571
  B(4) =  -0.571429
  B(5) =   0.071429

 Extrapolation method: ASPC

 Number of electrons:                                                          8
 Number of occupied orbitals:                                                  4
 Number of molecular orbitals:                                                 6

 Number of orbital functions:                                                  6
 Number of independent orbital functions:                                      6


 SCF WAVEFUNCTION OPTIMIZATION

  Step     Update method      Time    Convergence         Total energy    Change
  ------------------------------------------------------------------------------
     1 GXTB-Raw    0.10E+01    0.0     0.00000131       -76.4350054363 -7.64E+01
     2 GXTB-Simple 0.20E+00    0.0     0.00000014       -76.4350054363 -2.27E-13
     3 GXTB-Simple 0.20E+00    0.0     0.00000011       -76.4350054363 -1.71E-13
     4 GXTB-FDIIS  0.10E+01    0.0     0.00000053       -76.4350054363 -3.41E-13
     5 GXTB-FDIIS  0.10E+01    0.0     0.00000002       -76.4350054363  0.00E+00
     6 GXTB-FDIIS  0.10E+01    0.0     2.5115E-09       -76.4350054363  0.00E+00
     7 GXTB-FDIIS  0.10E+01    0.0     3.0026E-10       -76.4350054363  0.00E+00
     8 GXTB-FDIIS  0.10E+01    0.0     8.4377E-15       -76.4350054363  0.00E+00

  *** SCF run converged in     8 steps ***


  Core Hamiltonian energy:                                     -6.32294815088612
  Repulsive potential energy:                                   0.41025683121815
  Electrostatic energy:                                         0.14501600159039
  Self-consistent dispersion energy:                           -0.00003921037248
  Non-self consistent dispersion energy:                        0.00000009665358
  Correction for halogen bonding:                               0.00000000000000

  Total energy:                                               -76.43500543630977


 MULLIKEN POPULATION ANALYSIS

  # Atom   Element   Kind        Atomic population                    Net charge
       1     O          1                 6.656599                     -0.656599
       2     H          2                 0.671700                      0.328300
       3     H          2                 0.671700                      0.328300
 # Total charge                           8.000000                      0.000000


 tblite reference CLI check
 Executable: tblite
 Method:     gxtb
 Guess:      auto
 Solver:     gvd
 Spin-pol.:  F
 Grad file:  H2O_stress_L20_cli.grad
 JSON file:  H2O_stress_L20_cli.json
 Log file:   H2O_stress_L20_cli.log
 Energy CP2K/CLI/absdiff:   -7.643500543631E+01   -7.643500543564E+01    6.722729040121E-10
 Gradient diff sum/max:    5.993327553830E-06    2.197378512908E-06
 Virial diff sum/max:    1.659058661737E-01    1.028009062409E-01
 tblite reference CLI deviation exceeded ERROR_LIMIT =   1.0000E-05

 ENERGY| Total FORCE_EVAL ( QS ) energy [hartree]            -76.435005436309766

 -------------------------------------------------------------------------------
 ----                             MULTIGRID INFO                            ----
 -------------------------------------------------------------------------------
 total grid count     :           420              cutoff [a.u.]            1.00

 PW_GRID| Information for grid number                                          8
 PW_GRID| Cutoff [a.u.]                                                      1.0
 PW_GRID| spherical cutoff:                                                   NO
 PW_GRID|   Bounds   1             -9       8                Points:          18
 PW_GRID|   Bounds   2             -9       8                Points:          18
 PW_GRID|   Bounds   3             -9       8                Points:          18
 PW_GRID| Volume element (a.u.^3)   9.257         Volume (a.u.^3)     53986.6767
 PW_GRID| Grid span                                                    FULLSPACE

 POISSON| Solver                                                        PERIODIC
 POISSON| Periodicity                                                        XYZ

 RS_GRID| Information for grid number                                          8
 RS_GRID|   Bounds   1             -9       8                Points:          18
 RS_GRID|   Bounds   2             -9       8                Points:          18
 RS_GRID|   Bounds   3             -9       8                Points:          18

 Parameters for the always stable predictor-corrector (ASPC) method:

  ASPC order: 3

  B(1) =   3.000000
  B(2) =  -3.428571
  B(3) =   1.928571
  B(4) =  -0.571429
  B(5) =   0.071429

 Extrapolation method: ASPC

 Number of electrons:                                                          8
 Number of occupied orbitals:                                                  4
 Number of molecular orbitals:                                                 6

 Number of orbital functions:                                                  6
 Number of independent orbital functions:                                      6


 SCF WAVEFUNCTION OPTIMIZATION

  Step     Update method      Time    Convergence         Total energy    Change
  ------------------------------------------------------------------------------
     1 GXTB-Raw    0.10E+01    0.0     0.00000065       -76.4350054363 -7.64E+01
     2 GXTB-Simple 0.20E+00    0.0     0.00000023       -76.4350054363 -2.42E-13
     3 GXTB-Simple 0.20E+00    0.0     0.00000020       -76.4350054363 -1.56E-13
     4 GXTB-FDIIS  0.10E+01    0.0     0.00000100       -76.4350054363 -4.12E-13
     5 GXTB-FDIIS  0.10E+01    0.0     0.00000006       -76.4350054363  0.00E+00
     6 GXTB-FDIIS  0.10E+01    0.0     1.7996E-09       -76.4350054363  0.00E+00
     7 GXTB-FDIIS  0.10E+01    0.0     4.2498E-10       -76.4350054363  0.00E+00
     8 GXTB-FDIIS  0.10E+01    0.0     6.6116E-12       -76.4350054363  0.00E+00

  *** SCF run converged in     8 steps ***


  Core Hamiltonian energy:                                     -6.32294815088271
  Repulsive potential energy:                                   0.41025683121082
  Electrostatic energy:                                         0.14501600159033
  Self-consistent dispersion energy:                           -0.00003921037248
  Non-self consistent dispersion energy:                        0.00000009665358
  Correction for halogen bonding:                               0.00000000000000

  Total energy:                                               -76.43500543631292


 MULLIKEN POPULATION ANALYSIS

  # Atom   Element   Kind        Atomic population                    Net charge
       1     O          1                 6.656599                     -0.656599
       2     H          2                 0.671700                      0.328300
       3     H          2                 0.671700                      0.328300
 # Total charge                           8.000000                     -0.000000


 tblite reference CLI check
 Executable: tblite
 Method:     gxtb
 Guess:      auto
 Solver:     gvd
 Spin-pol.:  F
 Grad file:  H2O_stress_L20_cli.grad
 JSON file:  H2O_stress_L20_cli.json
 Log file:   H2O_stress_L20_cli.log
 Energy CP2K/CLI/absdiff:   -7.643500543631E+01   -7.643500543564E+01    6.722729040121E-10
 Gradient diff sum/max:    2.856557559016E-07    1.004971979662E-07
 Virial diff sum/max:    1.659021895894E-01    1.028009062307E-01
 tblite reference CLI deviation exceeded ERROR_LIMIT =   1.0000E-05

 ENERGY| Total FORCE_EVAL ( QS ) energy [hartree]            -76.435005436312920

 -------------------------------------------------------------------------------
 ----                             MULTIGRID INFO                            ----
 -------------------------------------------------------------------------------
 total grid count     :           420              cutoff [a.u.]            1.00

 PW_GRID| Information for grid number                                          9
 PW_GRID| Cutoff [a.u.]                                                      1.0
 PW_GRID| spherical cutoff:                                                   NO
 PW_GRID|   Bounds   1             -9       8                Points:          18
 PW_GRID|   Bounds   2             -9       8                Points:          18
 PW_GRID|   Bounds   3             -9       8                Points:          18
 PW_GRID| Volume element (a.u.^3)   9.257         Volume (a.u.^3)     53986.6767
 PW_GRID| Grid span                                                    FULLSPACE

 POISSON| Solver                                                        PERIODIC
 POISSON| Periodicity                                                        XYZ

 RS_GRID| Information for grid number                                          9
 RS_GRID|   Bounds   1             -9       8                Points:          18
 RS_GRID|   Bounds   2             -9       8                Points:          18
 RS_GRID|   Bounds   3             -9       8                Points:          18

 Parameters for the always stable predictor-corrector (ASPC) method:

  ASPC order: 3

  B(1) =   3.000000
  B(2) =  -3.428571
  B(3) =   1.928571
  B(4) =  -0.571429
  B(5) =   0.071429

 Extrapolation method: ASPC

 Number of electrons:                                                          8
 Number of occupied orbitals:                                                  4
 Number of molecular orbitals:                                                 6

 Number of orbital functions:                                                  6
 Number of independent orbital functions:                                      6


 SCF WAVEFUNCTION OPTIMIZATION

  Step     Update method      Time    Convergence         Total energy    Change
  ------------------------------------------------------------------------------
     1 GXTB-Raw    0.10E+01    0.0     0.00000105       -76.4350054363 -7.64E+01
     2 GXTB-Simple 0.20E+00    0.0     0.00000047       -76.4350054363 -7.11E-13
     3 GXTB-Simple 0.20E+00    0.0     0.00000039       -76.4350054363 -5.12E-13
     4 GXTB-FDIIS  0.10E+01    0.0     0.00000203       -76.4350054363 -1.24E-12
     5 GXTB-FDIIS  0.10E+01    0.0     0.00000008       -76.4350054363 -1.42E-14
     6 GXTB-FDIIS  0.10E+01    0.0     5.1337E-13       -76.4350054363  0.00E+00

  *** SCF run converged in     6 steps ***


  Core Hamiltonian energy:                                     -6.32294815088273
  Repulsive potential energy:                                   0.41025683121082
  Electrostatic energy:                                         0.14501600159036
  Self-consistent dispersion energy:                           -0.00003921037248
  Non-self consistent dispersion energy:                        0.00000009665358
  Correction for halogen bonding:                               0.00000000000000

  Total energy:                                               -76.43500543631292


 MULLIKEN POPULATION ANALYSIS

  # Atom   Element   Kind        Atomic population                    Net charge
       1     O          1                 6.656599                     -0.656599
       2     H          2                 0.671700                      0.328300
       3     H          2                 0.671700                      0.328300
 # Total charge                           8.000000                     -0.000000


 tblite reference CLI check
 Executable: tblite
 Method:     gxtb
 Guess:      auto
 Solver:     gvd
 Spin-pol.:  F
 Grad file:  H2O_stress_L20_cli.grad
 JSON file:  H2O_stress_L20_cli.json
 Log file:   H2O_stress_L20_cli.log
 Energy CP2K/CLI/absdiff:   -7.643500543631E+01   -7.643500543564E+01    6.722729040121E-10
 Gradient diff sum/max:    2.856557558255E-07    1.004971979282E-07
 Virial diff sum/max:    1.659021895894E-01    1.028009062307E-01
 tblite reference CLI deviation exceeded ERROR_LIMIT =   1.0000E-05

 ENERGY| Total FORCE_EVAL ( QS ) energy [hartree]            -76.435005436312920

 -------------------------------------------------------------------------------
 ----                             MULTIGRID INFO                            ----
 -------------------------------------------------------------------------------
 total grid count     :           420              cutoff [a.u.]            1.00

 PW_GRID| Information for grid number                                         10
 PW_GRID| Cutoff [a.u.]                                                      1.0
 PW_GRID| spherical cutoff:                                                   NO
 PW_GRID|   Bounds   1             -9       8                Points:          18
 PW_GRID|   Bounds   2             -9       8                Points:          18
 PW_GRID|   Bounds   3             -9       8                Points:          18
 PW_GRID| Volume element (a.u.^3)   9.257         Volume (a.u.^3)     53986.8195
 PW_GRID| Grid span                                                    FULLSPACE

 POISSON| Solver                                                        PERIODIC
 POISSON| Periodicity                                                        XYZ

 RS_GRID| Information for grid number                                         10
 RS_GRID|   Bounds   1             -9       8                Points:          18
 RS_GRID|   Bounds   2             -9       8                Points:          18
 RS_GRID|   Bounds   3             -9       8                Points:          18

 Parameters for the always stable predictor-corrector (ASPC) method:

  ASPC order: 3

  B(1) =   3.000000
  B(2) =  -3.428571
  B(3) =   1.928571
  B(4) =  -0.571429
  B(5) =   0.071429

 Extrapolation method: ASPC

 Number of electrons:                                                          8
 Number of occupied orbitals:                                                  4
 Number of molecular orbitals:                                                 6

 Number of orbital functions:                                                  6
 Number of independent orbital functions:                                      6


 SCF WAVEFUNCTION OPTIMIZATION

  Step     Update method      Time    Convergence         Total energy    Change
  ------------------------------------------------------------------------------
     1 GXTB-Raw    0.10E+01    0.0     0.00000053       -76.4350054202 -7.64E+01
     2 GXTB-Simple 0.20E+00    0.0     0.00000023       -76.4350054202 -1.71E-13
     3 GXTB-Simple 0.20E+00    0.0     0.00000020       -76.4350054202 -1.28E-13
     4 GXTB-FDIIS  0.10E+01    0.0     0.00000102       -76.4350054202 -3.13E-13
     5 GXTB-FDIIS  0.10E+01    0.0     0.00000004       -76.4350054202 -1.42E-14
     6 GXTB-FDIIS  0.10E+01    0.0     1.1590E-09       -76.4350054202  1.42E-14
     7 GXTB-FDIIS  0.10E+01    0.0     5.7111E-12       -76.4350054202 -1.42E-14

  *** SCF run converged in     7 steps ***


  Core Hamiltonian energy:                                     -6.32294814709225
  Repulsive potential energy:                                   0.41025683126214
  Electrostatic energy:                                         0.14501599886016
  Self-consistent dispersion energy:                           -0.00003921037280
  Non-self consistent dispersion energy:                        0.00000009665358
  Correction for halogen bonding:                               0.00000000000000

  Total energy:                                               -76.43500542017787


 MULLIKEN POPULATION ANALYSIS

  # Atom   Element   Kind        Atomic population                    Net charge
       1     O          1                 6.656599                     -0.656599
       2     H          2                 0.671700                      0.328300
       3     H          2                 0.671700                      0.328300
 # Total charge                           8.000000                     -0.000000


 tblite reference CLI check
 Executable: tblite
 Method:     gxtb
 Guess:      auto
 Solver:     gvd
 Spin-pol.:  F
 Grad file:  H2O_stress_L20_cli.grad
 JSON file:  H2O_stress_L20_cli.json
 Log file:   H2O_stress_L20_cli.log
 Energy CP2K/CLI/absdiff:   -7.643500542018E+01   -7.643500541951E+01    6.722729040121E-10
 Gradient diff sum/max:    8.839428784598E-08    2.306688366704E-08
 Virial diff sum/max:    1.659015487577E-01    1.028009062396E-01
 tblite reference CLI deviation exceeded ERROR_LIMIT =   1.0000E-05

 ENERGY| Total FORCE_EVAL ( QS ) energy [hartree]            -76.435005420177873

 -------------------------------------------------------------------------------
 ----                             MULTIGRID INFO                            ----
 -------------------------------------------------------------------------------
 total grid count     :           420              cutoff [a.u.]            1.00

 PW_GRID| Information for grid number                                         11
 PW_GRID| Cutoff [a.u.]                                                      1.0
 PW_GRID| spherical cutoff:                                                   NO
 PW_GRID|   Bounds   1             -9       8                Points:          18
 PW_GRID|   Bounds   2             -9       8                Points:          18
 PW_GRID|   Bounds   3             -9       8                Points:          18
 PW_GRID| Volume element (a.u.^3)   9.257         Volume (a.u.^3)     53986.5338
 PW_GRID| Grid span                                                    FULLSPACE

 POISSON| Solver                                                        PERIODIC
 POISSON| Periodicity                                                        XYZ

 RS_GRID| Information for grid number                                         11
 RS_GRID|   Bounds   1             -9       8                Points:          18
 RS_GRID|   Bounds   2             -9       8                Points:          18
 RS_GRID|   Bounds   3             -9       8                Points:          18

 Parameters for the always stable predictor-corrector (ASPC) method:

  ASPC order: 3

  B(1) =   3.000000
  B(2) =  -3.428571
  B(3) =   1.928571
  B(4) =  -0.571429
  B(5) =   0.071429

 Extrapolation method: ASPC

 Number of electrons:                                                          8
 Number of occupied orbitals:                                                  4
 Number of molecular orbitals:                                                 6

 Number of orbital functions:                                                  6
 Number of independent orbital functions:                                      6


 SCF WAVEFUNCTION OPTIMIZATION

  Step     Update method      Time    Convergence         Total energy    Change
  ------------------------------------------------------------------------------
     1 GXTB-Raw    0.10E+01    0.0     2.7771E-10       -76.4350054524 -7.64E+01
     2 GXTB-Simple 0.20E+00    0.0     3.4765E-09       -76.4350054524  0.00E+00
     3 GXTB-Simple 0.20E+00    0.0     2.4009E-09       -76.4350054524  0.00E+00
     4 GXTB-FDIIS  0.10E+01    0.0     7.7832E-09       -76.4350054524  0.00E+00
     5 GXTB-FDIIS  0.10E+01    0.0     9.7552E-10       -76.4350054524  0.00E+00
     6 GXTB-FDIIS  0.10E+01    0.0     1.7870E-10       -76.4350054524  0.00E+00
     7 GXTB-FDIIS  0.10E+01    0.0     2.8153E-12       -76.4350054524  1.42E-14

  *** SCF run converged in     7 steps ***


  Core Hamiltonian energy:                                     -6.32294815467937
  Repulsive potential energy:                                   0.41025683116714
  Electrostatic energy:                                         0.14501600432032
  Self-consistent dispersion energy:                           -0.00003921037215
  Non-self consistent dispersion energy:                        0.00000009665358
  Correction for halogen bonding:                               0.00000000000000

  Total energy:                                               -76.43500545244754


 MULLIKEN POPULATION ANALYSIS

  # Atom   Element   Kind        Atomic population                    Net charge
       1     O          1                 6.656599                     -0.656599
       2     H          2                 0.671700                      0.328300
       3     H          2                 0.671700                      0.328300
 # Total charge                           8.000000                     -0.000000


 tblite reference CLI check
 Executable: tblite
 Method:     gxtb
 Guess:      auto
 Solver:     gvd
 Spin-pol.:  F
 Grad file:  H2O_stress_L20_cli.grad
 JSON file:  H2O_stress_L20_cli.json
 Log file:   H2O_stress_L20_cli.log
 Energy CP2K/CLI/absdiff:   -7.643500545245E+01   -7.643500545178E+01    6.722586931573E-10
 Gradient diff sum/max:    8.094891746559E-08    2.113499072282E-08
 Virial diff sum/max:    1.659017424674E-01    1.028009062403E-01
 tblite reference CLI deviation exceeded ERROR_LIMIT =   1.0000E-05

 ENERGY| Total FORCE_EVAL ( QS ) energy [hartree]            -76.435005452447541

 -------------------------------------------------------------------------------
 ----                             MULTIGRID INFO                            ----
 -------------------------------------------------------------------------------
 total grid count     :           420              cutoff [a.u.]            1.00

 PW_GRID| Information for grid number                                         12
 PW_GRID| Cutoff [a.u.]                                                      1.0
 PW_GRID| spherical cutoff:                                                   NO
 PW_GRID|   Bounds   1             -9       8                Points:          18
 PW_GRID|   Bounds   2             -9       8                Points:          18
 PW_GRID|   Bounds   3             -9       8                Points:          18
 PW_GRID| Volume element (a.u.^3)   9.257         Volume (a.u.^3)     53986.6767
 PW_GRID| Grid span                                                    FULLSPACE

 POISSON| Solver                                                        PERIODIC
 POISSON| Periodicity                                                        XYZ

 RS_GRID| Information for grid number                                         12
 RS_GRID|   Bounds   1             -9       8                Points:          18
 RS_GRID|   Bounds   2             -9       8                Points:          18
 RS_GRID|   Bounds   3             -9       8                Points:          18

 Parameters for the always stable predictor-corrector (ASPC) method:

  ASPC order: 3

  B(1) =   3.000000
  B(2) =  -3.428571
  B(3) =   1.928571
  B(4) =  -0.571429
  B(5) =   0.071429

 Extrapolation method: ASPC

 Number of electrons:                                                          8
 Number of occupied orbitals:                                                  4
 Number of molecular orbitals:                                                 6

 Number of orbital functions:                                                  6
 Number of independent orbital functions:                                      6


 SCF WAVEFUNCTION OPTIMIZATION

  Step     Update method      Time    Convergence         Total energy    Change
  ------------------------------------------------------------------------------
     1 GXTB-Raw    0.10E+01    0.0     0.00000043       -76.4350054363 -7.64E+01
     2 GXTB-Simple 0.20E+00    0.0     0.00000015       -76.4350054363 -8.53E-14
     3 GXTB-Simple 0.20E+00    0.0     0.00000013       -76.4350054363 -5.68E-14
     4 GXTB-FDIIS  0.10E+01    0.0     0.00000065       -76.4350054363 -1.42E-13
     5 GXTB-FDIIS  0.10E+01    0.0     0.00000002       -76.4350054363  0.00E+00
     6 GXTB-FDIIS  0.10E+01    0.0     1.0445E-09       -76.4350054363  0.00E+00
     7 GXTB-FDIIS  0.10E+01    0.0     2.3446E-12       -76.4350054363  1.42E-14

  *** SCF run converged in     7 steps ***


  Core Hamiltonian energy:                                     -6.32294815088414
  Repulsive potential energy:                                   0.41025683121299
  Electrostatic energy:                                         0.14501600159014
  Self-consistent dispersion energy:                           -0.00003921037248
  Non-self consistent dispersion energy:                        0.00000009665358
  Correction for halogen bonding:                               0.00000000000000

  Total energy:                                               -76.43500543631275


 MULLIKEN POPULATION ANALYSIS

  # Atom   Element   Kind        Atomic population                    Net charge
       1     O          1                 6.656599                     -0.656599
       2     H          2                 0.671700                      0.328300
       3     H          2                 0.671700                      0.328300
 # Total charge                           8.000000                      0.000000


 tblite reference CLI check
 Executable: tblite
 Method:     gxtb
 Guess:      auto
 Solver:     gvd
 Spin-pol.:  F
 Grad file:  H2O_stress_L20_cli.grad
 JSON file:  H2O_stress_L20_cli.json
 Log file:   H2O_stress_L20_cli.log
 Energy CP2K/CLI/absdiff:   -7.643500543631E+01   -7.643500543564E+01    6.722586931573E-10
 Gradient diff sum/max:    4.356120973737E-07    1.754727711318E-07
 Virial diff sum/max:    1.659019474987E-01    1.028009062355E-01
 tblite reference CLI deviation exceeded ERROR_LIMIT =   1.0000E-05

 ENERGY| Total FORCE_EVAL ( QS ) energy [hartree]            -76.435005436312750

 -------------------------------------------------------------------------------
 ----                             MULTIGRID INFO                            ----
 -------------------------------------------------------------------------------
 total grid count     :           420              cutoff [a.u.]            1.00

 PW_GRID| Information for grid number                                         13
 PW_GRID| Cutoff [a.u.]                                                      1.0
 PW_GRID| spherical cutoff:                                                   NO
 PW_GRID|   Bounds   1             -9       8                Points:          18
 PW_GRID|   Bounds   2             -9       8                Points:          18
 PW_GRID|   Bounds   3             -9       8                Points:          18
 PW_GRID| Volume element (a.u.^3)   9.257         Volume (a.u.^3)     53986.6767
 PW_GRID| Grid span                                                    FULLSPACE

 POISSON| Solver                                                        PERIODIC
 POISSON| Periodicity                                                        XYZ

 RS_GRID| Information for grid number                                         13
 RS_GRID|   Bounds   1             -9       8                Points:          18
 RS_GRID|   Bounds   2             -9       8                Points:          18
 RS_GRID|   Bounds   3             -9       8                Points:          18

 Parameters for the always stable predictor-corrector (ASPC) method:

  ASPC order: 3

  B(1) =   3.000000
  B(2) =  -3.428571
  B(3) =   1.928571
  B(4) =  -0.571429
  B(5) =   0.071429

 Extrapolation method: ASPC

 Number of electrons:                                                          8
 Number of occupied orbitals:                                                  4
 Number of molecular orbitals:                                                 6

 Number of orbital functions:                                                  6
 Number of independent orbital functions:                                      6


 SCF WAVEFUNCTION OPTIMIZATION

  Step     Update method      Time    Convergence         Total energy    Change
  ------------------------------------------------------------------------------
     1 GXTB-Raw    0.10E+01    0.0     0.00000085       -76.4350054363 -7.64E+01
     2 GXTB-Simple 0.20E+00    0.0     0.00000031       -76.4350054363 -3.27E-13
     3 GXTB-Simple 0.20E+00    0.0     0.00000026       -76.4350054363 -2.27E-13
     4 GXTB-FDIIS  0.10E+01    0.0     0.00000130       -76.4350054363 -5.40E-13
     5 GXTB-FDIIS  0.10E+01    0.0     0.00000003       -76.4350054363  1.42E-14
     6 GXTB-FDIIS  0.10E+01    0.0     2.4281E-13       -76.4350054363  0.00E+00

  *** SCF run converged in     6 steps ***


  Core Hamiltonian energy:                                     -6.32294815088414
  Repulsive potential energy:                                   0.41025683121299
  Electrostatic energy:                                         0.14501600159014
  Self-consistent dispersion energy:                           -0.00003921037248
  Non-self consistent dispersion energy:                        0.00000009665358
  Correction for halogen bonding:                               0.00000000000000

  Total energy:                                               -76.43500543631275


 MULLIKEN POPULATION ANALYSIS

  # Atom   Element   Kind        Atomic population                    Net charge
       1     O          1                 6.656599                     -0.656599
       2     H          2                 0.671700                      0.328300
       3     H          2                 0.671700                      0.328300
 # Total charge                           8.000000                      0.000000


 tblite reference CLI check
 Executable: tblite
 Method:     gxtb
 Guess:      auto
 Solver:     gvd
 Spin-pol.:  F
 Grad file:  H2O_stress_L20_cli.grad
 JSON file:  H2O_stress_L20_cli.json
 Log file:   H2O_stress_L20_cli.log
 Energy CP2K/CLI/absdiff:   -7.643500543631E+01   -7.643500543564E+01    6.722586931573E-10
 Gradient diff sum/max:    4.356120974089E-07    1.754727711494E-07
 Virial diff sum/max:    1.659019474987E-01    1.028009062355E-01
 tblite reference CLI deviation exceeded ERROR_LIMIT =   1.0000E-05

 ENERGY| Total FORCE_EVAL ( QS ) energy [hartree]            -76.435005436312750

 -------------------------------------------------------------------------------
 ----                             MULTIGRID INFO                            ----
 -------------------------------------------------------------------------------
 total grid count     :           420              cutoff [a.u.]            1.00

 PW_GRID| Information for grid number                                         14
 PW_GRID| Cutoff [a.u.]                                                      1.0
 PW_GRID| spherical cutoff:                                                   NO
 PW_GRID|   Bounds   1             -9       8                Points:          18
 PW_GRID|   Bounds   2             -9       8                Points:          18
 PW_GRID|   Bounds   3             -9       8                Points:          18
 PW_GRID| Volume element (a.u.^3)   9.257         Volume (a.u.^3)     53986.6767
 PW_GRID| Grid span                                                    FULLSPACE

 POISSON| Solver                                                        PERIODIC
 POISSON| Periodicity                                                        XYZ

[...]
     7 GXTB-FDIIS  0.10E+01    0.0     2.2368E-11       -76.4350052855  0.00E+00

  *** SCF run converged in     7 steps ***


  Core Hamiltonian energy:                                     -6.32294938716517
  Repulsive potential energy:                                   0.41025808260410
  Electrostatic energy:                                         0.14501605618362
  Self-consistent dispersion energy:                           -0.00003921031113
  Non-self consistent dispersion energy:                        0.00000009665050
  Correction for halogen bonding:                               0.00000000000000

  Total energy:                                               -76.43500528548884


 MULLIKEN POPULATION ANALYSIS

  # Atom   Element   Kind        Atomic population                    Net charge
       1     O          1                 6.656600                     -0.656600
       2     H          2                 0.671700                      0.328300
       3     H          2                 0.671700                      0.328300
 # Total charge                           8.000000                     -0.000000


 tblite reference CLI check
 Executable: tblite
 Method:     gxtb
 Guess:      auto
 Solver:     gvd
 Spin-pol.:  F
 Grad file:  H2O_stress_L20_cli.grad
 JSON file:  H2O_stress_L20_cli.json
 Log file:   H2O_stress_L20_cli.log
 Energy CP2K/CLI/absdiff:   -7.643500528549E+01   -7.643500528482E+01    6.722871148668E-10
 Gradient diff sum/max:    3.589899396162E-06    1.130262440835E-06
 Virial diff sum/max:    1.659042798573E-01    1.028027495020E-01
 tblite reference CLI deviation exceeded ERROR_LIMIT =   1.0000E-05

 ENERGY| Total FORCE_EVAL ( QS ) energy [hartree]            -76.435005285488842

 -------------------------------------------------------------------------------
 ----                             MULTIGRID INFO                            ----
 -------------------------------------------------------------------------------
 total grid count     :           420              cutoff [a.u.]            1.00

 PW_GRID| Information for grid number                                         20
 PW_GRID| Cutoff [a.u.]                                                      1.0
 PW_GRID| spherical cutoff:                                                   NO
 PW_GRID|   Bounds   1             -9       8                Points:          18
 PW_GRID|   Bounds   2             -9       8                Points:          18
 PW_GRID|   Bounds   3             -9       8                Points:          18
 PW_GRID| Volume element (a.u.^3)   9.257         Volume (a.u.^3)     53986.6767
 PW_GRID| Grid span                                                    FULLSPACE

 POISSON| Solver                                                        PERIODIC
 POISSON| Periodicity                                                        XYZ

 RS_GRID| Information for grid number                                         20
 RS_GRID|   Bounds   1             -9       8                Points:          18
 RS_GRID|   Bounds   2             -9       8                Points:          18
 RS_GRID|   Bounds   3             -9       8                Points:          18

 Parameters for the always stable predictor-corrector (ASPC) method:

  ASPC order: 3

  B(1) =   3.000000
  B(2) =  -3.428571
  B(3) =   1.928571
  B(4) =  -0.571429
  B(5) =   0.071429

 Extrapolation method: ASPC

 Number of electrons:                                                          8
 Number of occupied orbitals:                                                  4
 Number of molecular orbitals:                                                 6

 Number of orbital functions:                                                  6
 Number of independent orbital functions:                                      6


 SCF WAVEFUNCTION OPTIMIZATION

  Step     Update method      Time    Convergence         Total energy    Change
  ------------------------------------------------------------------------------
     1 GXTB-Raw    0.10E+01    0.0     0.00000067       -76.4350054363 -7.64E+01
     2 GXTB-Simple 0.20E+00    0.0     0.00000019       -76.4350054363 -8.53E-14
     3 GXTB-Simple 0.20E+00    0.0     0.00000016       -76.4350054363 -5.68E-14
     4 GXTB-FDIIS  0.10E+01    0.0     0.00000073       -76.4350054363 -9.95E-14
     5 GXTB-FDIIS  0.10E+01    0.0     0.00000004       -76.4350054363  0.00E+00
     6 GXTB-FDIIS  0.10E+01    0.0     0.00000002       -76.4350054363 -1.42E-14
     7 GXTB-FDIIS  0.10E+01    0.0     1.1194E-11       -76.4350054363  0.00E+00

  *** SCF run converged in     7 steps ***


  Core Hamiltonian energy:                                     -6.32294815088579
  Repulsive potential energy:                                   0.41025683121464
  Electrostatic energy:                                         0.14501600159022
  Self-consistent dispersion energy:                           -0.00003921037248
  Non-self consistent dispersion energy:                        0.00000009665358
  Correction for halogen bonding:                               0.00000000000000

  Total energy:                                               -76.43500543631257


 MULLIKEN POPULATION ANALYSIS

  # Atom   Element   Kind        Atomic population                    Net charge
       1     O          1                 6.656599                     -0.656599
       2     H          2                 0.671700                      0.328300
       3     H          2                 0.671700                      0.328300
 # Total charge                           8.000000                     -0.000000


 tblite reference CLI check
 Executable: tblite
 Method:     gxtb
 Guess:      auto
 Solver:     gvd
 Spin-pol.:  F
 Grad file:  H2O_stress_L20_cli.grad
 JSON file:  H2O_stress_L20_cli.json
 Log file:   H2O_stress_L20_cli.log
 Energy CP2K/CLI/absdiff:   -7.643500543631E+01   -7.643500543564E+01    6.722871148668E-10
 Gradient diff sum/max:    8.467168299219E-08    2.120320978516E-08
 Virial diff sum/max:    1.659016456119E-01    1.028009062380E-01
 tblite reference CLI deviation exceeded ERROR_LIMIT =   1.0000E-05

 ENERGY| Total FORCE_EVAL ( QS ) energy [hartree]            -76.435005436312565
 DEBUG| Numerical pv_virial [a.u.]
 DEBUG|                   0.102800849645      0.000000000000      0.000000000000
 DEBUG|                   0.000000000000     -0.006098083459      0.000000001343
 DEBUG|                   0.000000000000      0.000000001343      0.057002633630

 DEBUG| Analytical pv_virial [a.u.]
 DEBUG|                   0.102800846373     -0.000000000000      0.000000000000
 DEBUG|                  -0.000000000000     -0.006098086139      0.000000000000
 DEBUG|                   0.000000000000      0.000000000000      0.057002633322

 DEBUG| Difference pv_virial [a.u.]
 DEBUG|                   0.000000003272      0.000000000000     -0.000000000000
 DEBUG|                   0.000000000000      0.000000002680      0.000000001343
 DEBUG|                  -0.000000000000      0.000000001343      0.000000000308
 DEBUG| Sum of differences                                        0.000000008945

 DEBUG| Relative error pv_virial
 DEBUG| Threshold value for error check [a.u.]                    1.00000000E-05
 DEBUG|                           0.00 %                 - %                 - %
 DEBUG|                              - %             -0.00 %                 - %
 DEBUG|                              - %                 - %              0.00 %
 DEBUG| Maximum accepted error                                            0.20 %

 -------------------------------------------------------------------------------
 -                                                                             -
 -                                DBCSR STATISTICS                             -
 -                                                                             -
 -------------------------------------------------------------------------------
 COUNTER                                    TOTAL       BLAS       SMM       ACC
 flops     1 x     6 x     1                 3168     100.0%      0.0%      0.0%     
 flops     1 x     1 x     6                 5760     100.0%      0.0%      0.0%     
 flops     4 x     6 x     1                 6336     100.0%      0.0%      0.0%     
 flops     1 x     6 x     4                 6336     100.0%      0.0%      0.0%     
 flops     4 x     1 x     6                 7680     100.0%      0.0%      0.0%     
 flops     1 x     4 x     6                 7680     100.0%      0.0%      0.0%     
 flops     4 x     6 x     4                12672     100.0%      0.0%      0.0%     
 flops     4 x     4 x     6                30720     100.0%      0.0%      0.0%     
 flops inhomo. stacks                           0       0.0%      0.0%      0.0%
 flops total                        80.352000E+03     100.0%      0.0%      0.0%
 flops max/rank                     80.352000E+03     100.0%      0.0%      0.0%
 matmuls inhomo. stacks                         0       0.0%      0.0%      0.0%
 matmuls total                               1554     100.0%      0.0%      0.0%
 number of processed stacks                   904     100.0%      0.0%      0.0%
 average stack size                                     1.7       0.0       0.0
 marketing flops                    74.592000E+03
 -------------------------------------------------------------------------------
 # multiplications                            226
 max memory usage/rank               9.876668E+09
 # max total images/rank                        1
 # max 3D layers                                1
 # MPI messages exchanged                       0
 -------------------------------------------------------------------------------
 -                                                                             -
 -                      DBCSR MESSAGE PASSING PERFORMANCE                      -
 -                                                                             -
 -------------------------------------------------------------------------------
 ROUTINE             CALLS      AVE VOLUME [Bytes]
 MP_Bcast                9                     12.
 MP_Allreduce         1033                      9.
 MP_Alltoall          5866                    254.
 MP_ISend              904                     78.
 MP_IRecv              904                     78.
 -------------------------------------------------------------------------------

 -------------------------------------------------------------------------------
 -                                                                             -
 -                          OFFLOAD MEMPOOL STATISTICS                         -
 -                                                                             -
 -------------------------------------------------------------------------------
 Memory consumption                Number of allocations  Used [MiB]  Size [MiB]
 Host                                                  1           0           0
 -------------------------------------------------------------------------------

 MEMORY| Estimated peak process memory [MiB]                                 117

 -------------------------------------------------------------------------------
 ----                             MULTIGRID INFO                            ----
 -------------------------------------------------------------------------------
 total grid count     :           420              cutoff [a.u.]            1.00

 -------------------------------------------------------------------------------
 -                                                                             -
 -                         MESSAGE PASSING PERFORMANCE                         -
 -                                                                             -
 -------------------------------------------------------------------------------

 ROUTINE             CALLS      AVE VOLUME [Bytes]
 MP_Group               20
 MP_Bcast              280                     26.
 MP_Allreduce         4585                     50.
 MP_Sync               160
 MP_comm_split         140
 -------------------------------------------------------------------------------


 -------------------------------------------------------------------------------
 -                                                                             -
 -                           R E F E R E N C E S                               -
 -                                                                             -
 -------------------------------------------------------------------------------
 
 CP2K version 2026.2 (Development Version), the CP2K developers group (2026).
 CP2K is freely available from https://www.cp2k.org/ .
 
 M. Iannuzzi, J. Wilhelm, F. Stein, A. Bussy, H. Elgabarty, D. Golze, A. Hehn, 
 M. Graml, S. Marek, B. Sertcan Gökmen, C. Schran, H. Forbert, R. Z. 
 Khaliullin, A. Kozhevnikov, M. Taillefumier, R. Meli, V. V. Rybkin, M. Brehm, 
 R. Schade, O. Schütt, J. V. Pototschnig, H. Mirhosseini, A. Knüpfer, D. Marx, 
 M. Krack, J. Hutter, T. D. Kühne.
 J. Phys. Chem. B 130, 1237-1310 (2026).
 The CP2K Program Package Made Simple.
 https://doi.org/10.1021/acs.jpcb.5c05851

 A. Katbashev, M. Stahn, T. Rose, V. Alizadeh, M. Friede, C. Plett, P. 
 Steinbach, S. Ehlert.
 J. Phys. Chem. A 129, 2667-2682 (2025).
 Overview on Building Blocks and Applications of Efficient and Robust Extended 
 Tight Binding.
 https://doi.org/10.1021/acs.jpca.4c08263

 T. D. Kühne, M. Iannuzzi, M. Del Ben, V. V. Rybkin, P. Seewald, F. Stein, T. 
 Laino, R. Z. Khaliullin, O. Schütt, F. Schiffmann, D. Golze, J. Wilhelm, S. 
 Chulkov, M. H. Bani-Hashemian, V. Weber, U. Borstnik, M. Taillefumier, A. S. 
 Jakobovits, A. Lazzaro, H. Pabst, T. Müller, R. Schade, M. Guidon, S. 
 Andermatt, N. Holmberg, G. K. Schenter, A. Hehn, A. Bussy, F. Belleflamme, G. 
 Tabacchi, A. Glöß, M. Lass, I. Bethune, C. J. Mundy, C. Plessl, M. Watkins, 
 J. VandeVondele, M. Krack, J. Hutter.
 J. Chem. Phys. 152, 194103 (2020).
 CP2K: An electronic structure and molecular dynamics software package - 
 Quickstep: Efficient and accurate electronic structure calculations.
 https://doi.org/10.1063/5.0007045

 P. Pracht, E. Caldeweyher, S. Ehlert, S. Grimme.
 ChemRxiv, (2019).
 A Robust Non-Self-Consistent Tight-Binding Quantum Chemistry Method for large 
 Molecules.
 https://doi.org/10.26434/chemrxiv.8326202.v1

 S. Grimme, C. Bannwarth, P. Shushkov.
 J. Chem. Theory Comput. 13, 1989 (2017).
 A Robust and Accurate Tight-Binding Quantum Chemical Method for Structures, 
 Vibrational Frequencies, and Noncovalent Interactions of Large Molecular 
 Systems Parametrized for All spd-Block Elements (Z = 1-86).
 https://doi.org/10.1021/acs.jctc.7b00118

 O. Schuett, P. Messmer, J. Hutter, J. VandeVondele.
 Electronic Structure Calculations on Graphics Processing Units, 173-190 (2016).
 GPU-Accelerated Sparse Matrix-Matrix Multiplication for Linear Scaling Density 
 Functional Theory.
 https://doi.org/10.1002/9781118670712.ch8

 U. Borstnik, J. VandeVondele, V. Weber, J. Hutter.
 Parallel Comput. 40, 47-58 (2014).
 Sparse matrix multiplication: The distributed block-compressed sparse row 
 library.
 https://doi.org/10.1016/j.parco.2014.03.012

 T. D. Kühne, M. Krack, F. R. Mohamed, M. Parrinello.
 Phys. Rev. Lett. 98, 066401 (2007).
 Efficient and accurate Car-Parrinello-like approach to Born-Oppenheimer 
 molecular dynamics.
 https://doi.org/10.1103/PhysRevLett.98.066401

 M. Frigo, S. G. Johnson.
 Proc. IEEE 93, 216-231 (2005).
 The design and implementation of FFTW3.
 https://doi.org/10.1109/JPROC.2004.840301

 J. Kolafa.
 J. Comput. Chem. 25, 335-342 (2004).
 Time-reversible always stable predictor-corrector method for molecular dynamics 
 of polarizable molecules.
 https://doi.org/10.1002/jcc.10385


 -------------------------------------------------------------------------------
 -                                                                             -
 -                                T I M I N G                                  -
 -                                                                             -
 -------------------------------------------------------------------------------
 SUBROUTINE                       CALLS  ASD         SELF TIME        TOTAL TIME
                                MAXIMUM       AVERAGE  MAXIMUM  AVERAGE  MAXIMUM
 CP2K                                 1  1.0    0.003    0.003    0.467    0.467
 qs_energies                         20  2.0    0.000    0.000    0.439    0.439
 tb_reference_cli_compare            20  3.0    0.217    0.217    0.217    0.217
 scf_env_do_scf                      20  3.0    0.000    0.000    0.139    0.139
 scf_env_do_scf_inner_loop          140  4.1    0.015    0.015    0.138    0.138
 qs_scf_new_mos                     140  5.1    0.002    0.002    0.100    0.100
 calculate_dm_sparse                159  6.1    0.000    0.000    0.071    0.071
 cp_dbcsr_plus_fm_fm_t              160  7.1    0.001    0.001    0.071    0.071
 dbcsr_multiply_generic             226  8.0    0.004    0.004    0.065    0.065
 init_scf_run                        20  3.0    0.000    0.000    0.041    0.041
 scf_env_initial_rho_setup           20  4.0    0.000    0.000    0.038    0.038
 wfi_extrapolate                     20  5.0    0.001    0.001    0.038    0.038
 build_tblite_matrices               21  4.0    0.030    0.030    0.035    0.035
 make_m2s                           452  9.0    0.002    0.002    0.034    0.034
 qs_energies_init_hamiltonians       20  3.0    0.000    0.000    0.034    0.034
 qs_forces                            1  2.0    0.000    0.000    0.033    0.033
 dbcsr_complete_redistribute        612  8.2    0.011    0.011    0.027    0.027
 copy_dbcsr_to_fm                   226  6.2    0.002    0.002    0.026    0.026
 cp_dbcsr_sm_fm_multiply             66  6.0    0.000    0.000    0.024    0.024
 rebuild_ks_matrix                  160  5.8    0.000    0.000    0.020    0.020
 build_tblite_ks_matrix             160  6.8    0.016    0.016    0.020    0.020
 eigensolver                        140  6.1    0.005    0.005    0.019    0.019
 qs_ks_update_qs_env                159  4.8    0.000    0.000    0.019    0.019
 copy_fm_to_dbcsr                   386  7.9    0.001    0.001    0.019    0.019
 qs_env_rebuild_pw_env               22  3.1    0.000    0.000    0.018    0.018
 pw_env_rebuild                      20  4.0    0.001    0.001    0.018    0.018
 multiply_cannon                    226  9.0    0.009    0.009    0.016    0.016
 make_images                        452 10.0    0.004    0.004    0.016    0.016
 cp_dbcsr_sm_fm_multiply_core        66  7.0    0.000    0.000    0.013    0.013
 cp_fm_syevd                        140  7.1    0.000    0.000    0.012    0.012
 dbcsr_finalize                    3404  8.7    0.003    0.003    0.012    0.012
 dbcsr_create_new                  5114  9.4    0.009    0.009    0.011    0.011
 pw_grid_setup                       20  5.0    0.000    0.000    0.011    0.011
 pw_grid_setup_internal              20  6.0    0.001    0.001    0.011    0.011
 -------------------------------------------------------------------------------

 The number of warnings for this run is : 1
 
 -------------------------------------------------------------------------------
  **** **** ******  **  PROGRAM ENDED AT                 2026-07-21 16:10:38.151
 ***** ** ***  *** **   PROGRAM RAN ON                                     terok
 **    ****   ******    PROGRAM RAN BY                                  kuehne88
 ***** **    ** ** **   PROGRAM PROCESS ID                               1037314
  **** **  *******  **  PROGRAM STOPPED IN /home/kuehne88/work/h2o-molecular-lim
                                           it-20260721/stress_debug_8_50/raw/H2O
                                           _stress_L20
