 DBCSR| CPU Multiplication driver                                           XSMM (U)
 DBCSR| Multrec recursion limit                                              512 (U)
 DBCSR| Multiplication stack size                                           1000 (D)
 DBCSR| Maximum elements for images                                    UNLIMITED (U)
 DBCSR| Multiplicative factor virtual images                                   1 (U)
 DBCSR| Use multiplication densification                                       T (D)
 DBCSR| Multiplication size stacks                                             3 (U)
 DBCSR| Use memory pool for CPU allocation                                     F (U)
 DBCSR| Number of 3D layers                                               SINGLE (U)
 DBCSR| Use MPI memory allocation                                              F (U)
 DBCSR| Use RMA algorithm                                                      F (U)
 DBCSR| Use Communication thread                                               T (U)
 DBCSR| Communication thread load                                             87 (D)
 DBCSR| MPI: My process id                                                     0
 DBCSR| MPI: Number of processes                                               1
 DBCSR| OMP: Current number of threads                                         1
 DBCSR| OMP: Max number of threads                                             1
 DBCSR| Split modifier for TAS multiplication algorithm                  1.0E+00 (U)


  **** **** ******  **  PROGRAM STARTED AT               2026-05-23 22:47:07.807
 ***** ** ***  *** **   PROGRAM STARTED ON                            spark-c86c
 **    ****   ******    PROGRAM STARTED BY                              kuehne88
 ***** **    ** ** **   PROGRAM PROCESS ID                               2267387
  **** **  *******  **  PROGRAM STARTED IN /home/kuehne88/periodic-gfn2-benchmar
                                           ks/X23b/runs/cellopt_gamma/GFN1/urea_
                                           GFN1_gamma_cellopt

 CP2K| version string:                 CP2K version 2026.1 (Development Version)
 CP2K| source code revision number:                                   0622d442e4
 CP2K| cp2kflags: omp fftw3 libxc parallel scalapack mpi_f08 xsmm spglib libdftd
 CP2K|            4 dftd4_v3 mctc-lib tblite
 CP2K| is freely available from                            https://www.cp2k.org/
 CP2K| Program compiled at                                   2026-05-23 22:05:08
 CP2K| Program compiled on                                            spark-c86c
 CP2K| Program compiled for                                              aarch64
 CP2K| Data directory path    /home/kuehne88/cp2k-master-tblite-20260523/install
 CP2K| Input file name                               urea_GFN1_gamma_cellopt.inp

 GLOBAL| Force Environment number                                              1
 GLOBAL| Basis set file name                                           BASIS_SET
 GLOBAL| Potential file name                                           POTENTIAL
 GLOBAL| MM Potential file name                                     MM_POTENTIAL
 GLOBAL| Coordinate file name                                      __STD_INPUT__
 GLOBAL| Method name                                                        CP2K
 GLOBAL| Project name                                   urea_GFN1_gamma_cell_opt
 GLOBAL| Run type                                                       CELL_OPT
 GLOBAL| FFT library                                                       FFTW3
 GLOBAL| Diagonalization library                                       ScaLAPACK
 GLOBAL| Cholesky decomposition library                                ScaLAPACK
 GLOBAL| DGEMM library                                                      BLAS
 GLOBAL| Direct generalized diagonalization requested                          F
 GLOBAL| Orthonormality check for eigenvectors                          DISABLED
 GLOBAL| Matrix multiplication library                                 ScaLAPACK
 GLOBAL| All-to-all communication in single precision                          F
 GLOBAL| FFTs using library dependent lengths                                  F
 GLOBAL| Grid backend                                                       AUTO
 GLOBAL| Global print level                                                  LOW
 GLOBAL| MPI I/O enabled                                                       T
 GLOBAL| Total number of message passing processes                             1
 GLOBAL| Number of distributed systems (nodes)                                 1
 GLOBAL| Number of threads for this process                                    1
 GLOBAL| This output is from process                                           0
 GLOBAL| OpenMP stack size per thread (OMP_STACKSIZE)                    default
 GLOBAL| CPU model name                                                  UNKNOWN
 GLOBAL| CPUID                                                              2200
 GLOBAL| Compiled for CPUID                                                 2000

 *** HINT in environment.F:970 :: The compiler target flags (arm_arch64)   ***
 *** used to build this binary cannot exploit all extensions of this CPU   ***
 *** model (arm_sve256). Consider compiler target flags as part of FCFLAGS ***
 *** and CFLAGS (ARCH file).                                               ***


 MEMORY| system memory details [Kb]
 MEMORY|                        rank 0           min           max       average
 MEMORY| MemTotal            125508532     125508532     125508532     125508532
 MEMORY| MemFree             104239308     104239308     104239308     104239308
 MEMORY| Buffers                867724        867724        867724        867724
 MEMORY| Cached               14061936      14061936      14061936      14061936
 MEMORY| Slab                  1594768       1594768       1594768       1594768
 MEMORY| SReclaimable           916348        916348        916348        916348
 MEMORY| MemLikelyFree       120085316     120085316     120085316     120085316


 GENERATE|  Preliminary Number of Bonds generated:                             0
 GENERATE|  Achieved consistency in connectivity generation.


                  #####   #####        #     #   #     #       #          
                 #     # #     #      #    ##### #     #   # #####  ####  
                 #     # #           #       #   ###   #       #   #    # 
                 #     #  #####     #        #   #  #  #   #   #   ###### 
                 #   # #       #   #         #   #   # #   #   #   #      
                 #    #  #     #  #          #   #  #  # # #   #    #   # 
                  #### #  #####  #           #   ###   ##  #   #     ###  

                                   GFN1-xTB  
                                 Version 0.0                       
                            Johann V. Pototschnig                  



 TOTAL NUMBERS AND MAXIMUM NUMBERS

  Total number of            - Atomic kinds:                                   4
                             - Atoms:                                         16
                             - Shell sets:                                    32
                             - Shells:                                        32
                             - Primitive Cartesian functions:                184
                             - Cartesian basis functions:                     48
                             - Spherical basis functions:                     48

  Maximum angular momentum of the orbital basis functions:                     1


 SCF PARAMETERS         Density guess:                                     MOPAC
                        --------------------------------------------------------
                        max_scf:                                             300
                        max_scf_history:                                       0
                        max_diis:                                              4
                        --------------------------------------------------------
                        eps_scf:                                        1.00E-09
                        eps_scf_history:                                0.00E+00
                        eps_diis:                                       1.00E-01
                        eps_eigval:                                     1.00E-05
                        --------------------------------------------------------
                        level_shift [a.u.]:                             0.000000
                        added MOs                                        24    0
                        --------------------------------------------------------
                        Mixing method:                           DIRECT_P_MIXING
                        --------------------------------------------------------
                        Smear method:                                FERMI_DIRAC
                        Electronic temperature [K]:                        300.0
                        Electronic temperature [a.u.]:                  9.50E-04
                        Accuracy threshold:                             1.00E-06
                        --------------------------------------------------------
                        No outer SCF

 CELL_OPT| Pressure tolerance [bar]:                                       100.0
 CELL_OPT| Keep volume of cell:                                               NO
 CELL_OPT| Keep angles between the cell vectors:                              NO
 CELL_OPT| Keep cell symmetry:                                                NO
 CELL_OPT| Constraint:                                                      NONE

 BFGS| Use rational function optimization for step estimation:                NO
 BFGS| Use model Hessian for initial guess:                                   NO
 BFGS| Restart Hessian:                                                       NO
 BFGS| Trust radius:                                                       0.472

 *******************************************************************************
 ***                     STARTING   CELL   OPTIMIZATION                      ***
 ***                                   BFGS                                  ***
 *******************************************************************************

 CELL| Volume [angstrom^3]:                                           145.059850
 CELL| Vector a [angstrom]:       5.565     0.000     0.000   |a| =     5.565000
 CELL| Vector b [angstrom]:       0.000     5.565     0.000   |b| =     5.565000
 CELL| Vector c [angstrom]:       0.000     0.000     4.684   |c| =     4.684000
 CELL| Angle (b,c), alpha [degree]:                                    90.000000
 CELL| Angle (a,c), beta  [degree]:                                    90.000000
 CELL| Angle (a,b), gamma [degree]:                                    90.000000
 CELL| Numerically orthorhombic:                                             YES
 CELL| Periodicity                                                           XYZ

 Extrapolation method: initial_guess

 Number of electrons:                                                         48
 Number of occupied orbitals:                                                 24
 Number of molecular orbitals:                                                48

 Number of orbital functions:                                                 48
 Number of independent orbital functions:                                     48


 SCF WAVEFUNCTION OPTIMIZATION

  Step     Update method      Time    Convergence         Total energy    Change
  ------------------------------------------------------------------------------
     1 TBLite/Diag 0.40E+00    0.0     1.62194931       -30.3580879337 -3.04E+01
     2 TBLite/Diag 0.40E+00    0.0     0.24072015       -30.8504239096 -4.92E-01
     3 TBLite/Diag 0.40E+00    0.0     0.05386635       -30.8658423831 -1.54E-02
     4 TBLite/Diag 0.40E+00    0.0     0.02389479       -30.8675041321 -1.66E-03
     5 TBLite/Diag 0.40E+00    0.0     0.01071467       -30.8680593399 -5.55E-04
     6 TBLite/Diag 0.40E+00    0.0     0.00591467       -30.8680342845  2.51E-05
     7 TBLite/Diag 0.40E+00    0.0     0.00360260       -30.8681407179 -1.06E-04
     8 TBLite/Diag 0.40E+00    0.0     0.00007631       -30.8681407398 -2.19E-08
     9 TBLite/Diag 0.40E+00    0.0     0.00003556       -30.8681407415 -1.74E-09
    10 TBLite/Diag 0.40E+00    0.0     0.00001481       -30.8681407433 -1.75E-09
    11 TBLite/Diag 0.40E+00    0.0     0.00000029       -30.8681407433 -3.84E-13
    12 TBLite/Diag 0.40E+00    0.0     0.00000003       -30.8681407433 -1.07E-14
    13 TBLite/Diag 0.40E+00    0.0     6.2468E-09       -30.8681407433  1.78E-14
    14 TBLite/Diag 0.40E+00    0.0     1.6673E-11       -30.8681407433 -1.78E-14

  *** SCF run converged in    14 steps ***


  Core Hamiltonian energy:                                    -31.32115549922761
  Repulsive potential energy:                                   0.29759790396282
  Electrostatic energy:                                         0.18013835982523
  Self-consistent dispersion energy:                            0.00000000000000
  Non-self consistent dispersion energy:                       -0.02472150785011
  Correction for halogen bonding:                               0.00000000000000
  Electronic entropic energy:                                  -0.00000000000000
  Fermi energy:                                                -0.24667077818426

  Total energy:                                               -30.86814074328967
  Total energy (extrapolated to T->0):                        -30.86814074328967

 ENERGY| Total FORCE_EVAL ( QS ) energy [hartree]            -30.868140743289672

 OPT| **************************************************************************
 OPT| Step number                                                              0
 OPT| Optimization method                                                   BFGS
 OPT| Total energy [hartree]                                      -30.8681407433
 OPT| Internal pressure [bar]                                  -10114.9657034800
 OPT| Used time [s]                                                        0.174
 OPT| **************************************************************************
 OPT| Estimated peak process memory [MiB]                                    165

 --------------------------
 OPTIMIZATION STEP:      1
 --------------------------

 CELL| Volume [angstrom^3]:                                           144.873082
 CELL| Vector a [angstrom]:       5.565     0.000     0.000   |a| =     5.564992
 CELL| Vector b [angstrom]:       0.000     5.565     0.000   |b| =     5.564992
 CELL| Vector c [angstrom]:       0.000     0.000     4.678   |c| =     4.677982
 CELL| Angle (b,c), alpha [degree]:                                    90.000000
 CELL| Angle (a,c), beta  [degree]:                                    90.000000
 CELL| Angle (a,b), gamma [degree]:                                    90.000000
 CELL| Numerically orthorhombic:                                             YES
 CELL| Periodicity                                                           XYZ

 Extrapolation method: ASPC

 Number of electrons:                                                         48
 Number of occupied orbitals:                                                 24
 Number of molecular orbitals:                                                48

 Number of orbital functions:                                                 48
 Number of independent orbital functions:                                     48


 SCF WAVEFUNCTION OPTIMIZATION

  Step     Update method      Time    Convergence         Total energy    Change
  ------------------------------------------------------------------------------
     1 TBLite/Diag 0.40E+00    0.0     0.04092775       -30.8687252399 -3.09E+01
     2 TBLite/Diag 0.40E+00    0.0     0.00890130       -30.8693065148 -5.81E-04
     3 TBLite/Diag 0.40E+00    0.0     0.00118491       -30.8693125400 -6.03E-06
     4 TBLite/Diag 0.40E+00    0.0     0.00029298       -30.8693128414 -3.01E-07
     5 TBLite/Diag 0.40E+00    0.0     0.00012746       -30.8693129036 -6.23E-08
     6 TBLite/Diag 0.40E+00    0.0     0.00002866       -30.8693129076 -3.94E-09
     7 TBLite/Diag 0.40E+00    0.0     0.00000079       -30.8693129076 -3.83E-12
     8 TBLite/Diag 0.40E+00    0.0     0.00000027       -30.8693129076 -1.74E-13
     9 TBLite/Diag 0.40E+00    0.0     5.8345E-10       -30.8693129076  3.55E-15

  *** SCF run converged in     9 steps ***


  Core Hamiltonian energy:                                    -31.32900533748650
  Repulsive potential energy:                                   0.31007537164146
  Electrostatic energy:                                         0.17437282201740
  Self-consistent dispersion energy:                            0.00000000000000
  Non-self consistent dispersion energy:                       -0.02475576373367
  Correction for halogen bonding:                               0.00000000000000
  Electronic entropic energy:                                  -0.00000000000000
  Fermi energy:                                                -0.24271204041974

  Total energy:                                               -30.86931290756130
  Total energy (extrapolated to T->0):                        -30.86931290756130

 ENERGY| Total FORCE_EVAL ( QS ) energy [hartree]            -30.869312907561302

 OPT| **************************************************************************
 OPT| Step number                                                              1
 OPT| Optimization method                                                   BFGS
 OPT| Total energy [hartree]                                      -30.8693129076
 OPT| Internal pressure [bar]                                    6078.8767278336
 OPT| Effective energy change [hartree]                            -0.0011721643
 OPT| Predicted energy change [hartree]                            -0.0016591002
 OPT| Scaling factor                                                0.0000000000
 OPT| Step size                                                     0.0271215324
 OPT| Trust radius                                                  0.4724315332
 OPT| Decrease in energy                                                     YES
 OPT| Used time [s]                                                        0.169
 OPT|
 OPT| Maximum step size                                             0.0271215324
 OPT| Convergence limit for maximum step size                       0.0030000000
 OPT| Maximum step size is converged                                          NO
 OPT|
 OPT| RMS step size                                                 0.0078388874
 OPT| Convergence limit for RMS step size                           0.0015000000
 OPT| RMS step size is converged                                              NO
 OPT|
 OPT| Maximum gradient                                              0.0126762286
 OPT| Convergence limit for maximum gradient                        0.0004500000
 OPT| Maximum gradient is converged                                           NO
 OPT|
 OPT| RMS gradient                                                  0.0032592158
 OPT| Convergence limit for RMS gradient                            0.0003000000
 OPT| RMS gradient is converged                                               NO
 OPT|
 OPT| Pressure deviation [bar]                                   6078.8767278336
 OPT| Pressure tolerance [bar]                                    100.0000000000
 OPT| Pressure is converged                                                   NO
 OPT| **************************************************************************
 OPT| Estimated peak process memory after this step [MiB]                    166

 --------------------------
 OPTIMIZATION STEP:      2
 --------------------------

 CELL| Volume [angstrom^3]:                                           144.957770
 CELL| Vector a [angstrom]:       5.565     0.000     0.000   |a| =     5.564670
 CELL| Vector b [angstrom]:       0.000     5.565     0.000   |b| =     5.564670
 CELL| Vector c [angstrom]:       0.000     0.000     4.681   |c| =     4.681260
 CELL| Angle (b,c), alpha [degree]:                                    90.000000
 CELL| Angle (a,c), beta  [degree]:                                    90.000000
 CELL| Angle (a,b), gamma [degree]:                                    90.000000
 CELL| Numerically orthorhombic:                                             YES
 CELL| Periodicity                                                           XYZ

 Extrapolation method: ASPC

 Number of electrons:                                                         48
 Number of occupied orbitals:                                                 24
 Number of molecular orbitals:                                                48

 Number of orbital functions:                                                 48
 Number of independent orbital functions:                                     48


 SCF WAVEFUNCTION OPTIMIZATION

  Step     Update method      Time    Convergence         Total energy    Change
  ------------------------------------------------------------------------------
     1 TBLite/Diag 0.40E+00    0.0     0.01037058       -30.8695126262 -3.09E+01
     2 TBLite/Diag 0.40E+00    0.0     0.00232344       -30.8695500294 -3.74E-05
     3 TBLite/Diag 0.40E+00    0.0     0.00026866       -30.8695503420 -3.13E-07
     4 TBLite/Diag 0.40E+00    0.0     0.00006784       -30.8695503594 -1.73E-08
     5 TBLite/Diag 0.40E+00    0.0     0.00003213       -30.8695503625 -3.12E-09
     6 TBLite/Diag 0.40E+00    0.0     0.00000665       -30.8695503627 -1.88E-10
     7 TBLite/Diag 0.40E+00    0.0     0.00000027       -30.8695503627 -2.74E-13
     8 TBLite/Diag 0.40E+00    0.0     0.00000001       -30.8695503627  2.13E-14
     9 TBLite/Diag 0.40E+00    0.0     8.9356E-12       -30.8695503627  0.00E+00

  *** SCF run converged in     9 steps ***


  Core Hamiltonian energy:                                    -31.32816083116832
  Repulsive potential energy:                                   0.30749639068643
  Electrostatic energy:                                         0.17585483920716
  Self-consistent dispersion energy:                            0.00000000000000
  Non-self consistent dispersion energy:                       -0.02474076141582
  Correction for halogen bonding:                               0.00000000000000
  Electronic entropic energy:                                  -0.00000000000000
  Fermi energy:                                                -0.24350692999112

  Total energy:                                               -30.86955036269056
  Total energy (extrapolated to T->0):                        -30.86955036269056

 ENERGY| Total FORCE_EVAL ( QS ) energy [hartree]            -30.869550362690561

 OPT| **************************************************************************
 OPT| Step number                                                              2
 OPT| Optimization method                                                   BFGS
 OPT| Total energy [hartree]                                      -30.8695503627
 OPT| Internal pressure [bar]                                    2719.4436821860
 OPT| Effective energy change [hartree]                            -0.0002374551
 OPT| Predicted energy change [hartree]                            -0.0001958568
 OPT| Scaling factor                                                0.0000000000
 OPT| Step size                                                     0.0085618199
 OPT| Trust radius                                                  0.4724315332
 OPT| Decrease in energy                                                     YES
 OPT| Used time [s]                                                        0.170
 OPT|
 OPT| Maximum step size                                             0.0085618199
 OPT| Convergence limit for maximum step size                       0.0030000000
 OPT| Maximum step size is converged                                          NO
 OPT|
 OPT| RMS step size                                                 0.0022321374
 OPT| Convergence limit for RMS step size                           0.0015000000
 OPT| RMS step size is converged                                              NO
 OPT|
 OPT| Maximum gradient                                              0.0035223060
 OPT| Convergence limit for maximum gradient                        0.0004500000
 OPT| Maximum gradient is converged                                           NO
 OPT|
 OPT| RMS gradient                                                  0.0013257917
 OPT| Convergence limit for RMS gradient                            0.0003000000
 OPT| RMS gradient is converged                                               NO
 OPT|
 OPT| Pressure deviation [bar]                                   2719.4436821860
 OPT| Pressure tolerance [bar]                                    100.0000000000
 OPT| Pressure is converged                                                   NO
 OPT| **************************************************************************
 OPT| Estimated peak process memory after this step [MiB]                    166

 --------------------------
 OPTIMIZATION STEP:      3
 --------------------------

 CELL| Volume [angstrom^3]:                                           145.048242
 CELL| Vector a [angstrom]:       5.564     0.000     0.000   |a| =     5.564423
 CELL| Vector b [angstrom]:       0.000     5.564     0.000   |b| =     5.564423
 CELL| Vector c [angstrom]:       0.000     0.000     4.685   |c| =     4.684597
 CELL| Angle (b,c), alpha [degree]:                                    90.000000
 CELL| Angle (a,c), beta  [degree]:                                    90.000000
 CELL| Angle (a,b), gamma [degree]:                                    90.000000
 CELL| Numerically orthorhombic:                                             YES
 CELL| Periodicity                                                           XYZ

 Extrapolation method: ASPC

 Number of electrons:                                                         48
 Number of occupied orbitals:                                                 24
 Number of molecular orbitals:                                                48

 Number of orbital functions:                                                 48
 Number of independent orbital functions:                                     48


 SCF WAVEFUNCTION OPTIMIZATION

  Step     Update method      Time    Convergence         Total energy    Change
  ------------------------------------------------------------------------------
     1 TBLite/Diag 0.40E+00    0.0     0.00297426       -30.8696855488 -3.09E+01
     2 TBLite/Diag 0.40E+00    0.0     0.00070382       -30.8696883615 -2.81E-06
     3 TBLite/Diag 0.40E+00    0.0     0.00002161       -30.8696883647 -3.21E-09
     4 TBLite/Diag 0.40E+00    0.0     0.00001336       -30.8696883645  2.55E-10
     5 TBLite/Diag 0.40E+00    0.0     0.00000895       -30.8696883649 -4.04E-10
     6 TBLite/Diag 0.40E+00    0.0     0.00000076       -30.8696883649 -2.04E-12
     7 TBLite/Diag 0.40E+00    0.0     0.00000002       -30.8696883649  1.78E-14
     8 TBLite/Diag 0.40E+00    0.0     1.3595E-09       -30.8696883649  0.00E+00
     9 TBLite/Diag 0.40E+00    0.0     5.3177E-11       -30.8696883649 -7.11E-15

  *** SCF run converged in     9 steps ***


  Core Hamiltonian energy:                                    -31.32884027400582
  Repulsive potential energy:                                   0.30756809490431
  Electrostatic energy:                                         0.17630869467118
  Self-consistent dispersion energy:                            0.00000000000000
  Non-self consistent dispersion energy:                       -0.02472488043422
  Correction for halogen bonding:                               0.00000000000000
  Electronic entropic energy:                                  -0.00000000000000
  Fermi energy:                                                -0.24352975946608

  Total energy:                                               -30.86968836486456
  Total energy (extrapolated to T->0):                        -30.86968836486456

 ENERGY| Total FORCE_EVAL ( QS ) energy [hartree]            -30.869688364864558

 OPT| **************************************************************************
 OPT| Step number                                                              3
 OPT| Optimization method                                                   BFGS
 OPT| Total energy [hartree]                                      -30.8696883649
 OPT| Internal pressure [bar]                                    2583.4836083637
 OPT| Effective energy change [hartree]                            -0.0001380022
 OPT| Predicted energy change [hartree]                            -0.0000775650
 OPT| Scaling factor                                                0.0000000000
 OPT| Step size                                                     0.0063065295
 OPT| Trust radius                                                  0.4724315332
 OPT| Decrease in energy                                                     YES
 OPT| Used time [s]                                                        0.171
 OPT|
 OPT| Maximum step size                                             0.0063065295
 OPT| Convergence limit for maximum step size                       0.0030000000
 OPT| Maximum step size is converged                                          NO
 OPT|
 OPT| RMS step size                                                 0.0022025501
 OPT| Convergence limit for RMS step size                           0.0015000000
 OPT| RMS step size is converged                                              NO
 OPT|
 OPT| Maximum gradient                                              0.0044587058
 OPT| Convergence limit for maximum gradient                        0.0004500000
 OPT| Maximum gradient is converged                                           NO
 OPT|
 OPT| RMS gradient                                                  0.0013828912
 OPT| Convergence limit for RMS gradient                            0.0003000000
 OPT| RMS gradient is converged                                               NO
 OPT|
 OPT| Pressure deviation [bar]                                   2583.4836083637
 OPT| Pressure tolerance [bar]                                    100.0000000000
 OPT| Pressure is converged                                                   NO
 OPT| **************************************************************************
 OPT| Estimated peak process memory after this step [MiB]                    166

 --------------------------
 OPTIMIZATION STEP:      4
 --------------------------

 CELL| Volume [angstrom^3]:                                           145.612423
 CELL| Vector a [angstrom]:       5.564     0.000     0.000   |a| =     5.563845
 CELL| Vector b [angstrom]:       0.000     5.564     0.000   |b| =     5.563845
 CELL| Vector c [angstrom]:       0.000     0.000     4.704   |c| =     4.703795
 CELL| Angle (b,c), alpha [degree]:                                    90.000000
 CELL| Angle (a,c), beta  [degree]:                                    90.000000
 CELL| Angle (a,b), gamma [degree]:                                    90.000000
 CELL| Numerically orthorhombic:                                             YES
 CELL| Periodicity                                                           XYZ

 Extrapolation method: ASPC

 Number of electrons:                                                         48
 Number of occupied orbitals:                                                 24
 Number of molecular orbitals:                                                48

 Number of orbital functions:                                                 48
 Number of independent orbital functions:                                     48


 SCF WAVEFUNCTION OPTIMIZATION

  Step     Update method      Time    Convergence         Total energy    Change
  ------------------------------------------------------------------------------
     1 TBLite/Diag 0.40E+00    0.0     0.01109593       -30.8702176362 -3.09E+01
     2 TBLite/Diag 0.40E+00    0.0     0.00172614       -30.8702330720 -1.54E-05
     3 TBLite/Diag 0.40E+00    0.0     0.00009410       -30.8702331132 -4.12E-08
     4 TBLite/Diag 0.40E+00    0.0     0.00004702       -30.8702331115  1.74E-09
     5 TBLite/Diag 0.40E+00    0.0     0.00003177       -30.8702331165 -5.04E-09
     6 TBLite/Diag 0.40E+00    0.0     0.00000448       -30.8702331166 -6.03E-11
     7 TBLite/Diag 0.40E+00    0.0     0.00000014       -30.8702331166 -3.91E-14
     8 TBLite/Diag 0.40E+00    0.0     8.6156E-09       -30.8702331166  1.42E-14
     9 TBLite/Diag 0.40E+00    0.0     1.8886E-10       -30.8702331166 -2.13E-14

  *** SCF run converged in     9 steps ***


  Core Hamiltonian energy:                                    -31.33288758900691
  Repulsive potential energy:                                   0.30976270412603
  Electrostatic energy:                                         0.17751843344176
  Self-consistent dispersion energy:                            0.00000000000000
  Non-self consistent dispersion energy:                       -0.02462666512907
  Correction for halogen bonding:                               0.00000000000000
  Electronic entropic energy:                                  -0.00000000000000
  Fermi energy:                                                -0.24324823902504

  Total energy:                                               -30.87023311656819
  Total energy (extrapolated to T->0):                        -30.87023311656819

 ENERGY| Total FORCE_EVAL ( QS ) energy [hartree]            -30.870233116568187

 OPT| **************************************************************************
 OPT| Step number                                                              4
 OPT| Optimization method                                                   BFGS
 OPT| Total energy [hartree]                                      -30.8702331166
 OPT| Internal pressure [bar]                                    3682.6229936646
 OPT| Effective energy change [hartree]                            -0.0005447517
 OPT| Predicted energy change [hartree]                            -0.0004029940
 OPT| Scaling factor                                                0.0000000000
 OPT| Step size                                                     0.0362784112
 OPT| Trust radius                                                  0.4724315332
 OPT| Decrease in energy                                                     YES
 OPT| Used time [s]                                                        0.171
 OPT|
 OPT| Maximum step size                                             0.0362784112
 OPT| Convergence limit for maximum step size                       0.0030000000
 OPT| Maximum step size is converged                                          NO
 OPT|
 OPT| RMS step size                                                 0.0129843999
 OPT| Convergence limit for RMS step size                           0.0015000000
 OPT| RMS step size is converged                                              NO
 OPT|
 OPT| Maximum gradient                                              0.0089779186
 OPT| Convergence limit for maximum gradient                        0.0004500000
 OPT| Maximum gradient is converged                                           NO
 OPT|
 OPT| RMS gradient                                                  0.0025642218
 OPT| Convergence limit for RMS gradient                            0.0003000000
 OPT| RMS gradient is converged                                               NO
 OPT|
 OPT| Pressure deviation [bar]                                   3682.6229936646
 OPT| Pressure tolerance [bar]                                    100.0000000000
 OPT| Pressure is converged                                                   NO
 OPT| **************************************************************************
 OPT| Estimated peak process memory after this step [MiB]                    166

 --------------------------
 OPTIMIZATION STEP:      5
 --------------------------

 CELL| Volume [angstrom^3]:                                           146.143479
 CELL| Vector a [angstrom]:       5.565     0.000     0.000   |a| =     5.564595
 CELL| Vector b [angstrom]:       0.000     5.565     0.000   |b| =     5.564595
 CELL| Vector c [angstrom]:       0.000     0.000     4.720   |c| =     4.719678
 CELL| Angle (b,c), alpha [degree]:                                    90.000000
 CELL| Angle (a,c), beta  [degree]:                                    90.000000
 CELL| Angle (a,b), gamma [degree]:                                    90.000000
 CELL| Numerically orthorhombic:                                             YES
 CELL| Periodicity                                                           XYZ

 Extrapolation method: ASPC

 Number of electrons:                                                         48
 Number of occupied orbitals:                                                 24
 Number of molecular orbitals:                                                48

 Number of orbital functions:                                                 48
 Number of independent orbital functions:                                     48


 SCF WAVEFUNCTION OPTIMIZATION

  Step     Update method      Time    Convergence         Total energy    Change
  ------------------------------------------------------------------------------
     1 TBLite/Diag 0.40E+00    0.0     0.00970693       -30.8705671948 -3.09E+01
     2 TBLite/Diag 0.40E+00    0.0     0.00062742       -30.8705686934 -1.50E-06
     3 TBLite/Diag 0.40E+00    0.0     0.00014486       -30.8705687994 -1.06E-07
     4 TBLite/Diag 0.40E+00    0.0     0.00005432       -30.8705688086 -9.20E-09
     5 TBLite/Diag 0.40E+00    0.0     0.00000416       -30.8705688087 -2.86E-11
     6 TBLite/Diag 0.40E+00    0.0     0.00000387       -30.8705688087 -4.45E-11
     7 TBLite/Diag 0.40E+00    0.0     0.00000026       -30.8705688087 -1.53E-13
     8 TBLite/Diag 0.40E+00    0.0     5.8872E-10       -30.8705688087  1.07E-14

  *** SCF run converged in     8 steps ***


  Core Hamiltonian energy:                                    -31.33515287827199
  Repulsive potential energy:                                   0.31152938795554
  Electrostatic energy:                                         0.17758961120604
  Self-consistent dispersion energy:                            0.00000000000000
  Non-self consistent dispersion energy:                       -0.02453492960066
  Correction for halogen bonding:                               0.00000000000000
  Electronic entropic energy:                                  -0.00000000000000
  Fermi energy:                                                -0.24303682444450

  Total energy:                                               -30.87056880871107
  Total energy (extrapolated to T->0):                        -30.87056880871107

 ENERGY| Total FORCE_EVAL ( QS ) energy [hartree]            -30.870568808711070

 OPT| **************************************************************************
 OPT| Step number                                                              5
 OPT| Optimization method                                                   BFGS
 OPT| Total energy [hartree]                                      -30.8705688087
 OPT| Internal pressure [bar]                                    4345.4471904644
 OPT| Effective energy change [hartree]                            -0.0003356921
 OPT| Predicted energy change [hartree]                            -0.0002217831
 OPT| Scaling factor                                                0.0000000000
 OPT| Step size                                                     0.0300149631
 OPT| Trust radius                                                  0.4724315332
 OPT| Decrease in energy                                                     YES
 OPT| Used time [s]                                                        0.170
 OPT|
 OPT| Maximum step size                                             0.0300149631
 OPT| Convergence limit for maximum step size                       0.0030000000
 OPT| Maximum step size is converged                                          NO
 OPT|
 OPT| RMS step size                                                 0.0109084880
 OPT| Convergence limit for RMS step size                           0.0015000000
 OPT| RMS step size is converged                                              NO
 OPT|
 OPT| Maximum gradient                                              0.0083524757
 OPT| Convergence limit for maximum gradient                        0.0004500000
 OPT| Maximum gradient is converged                                           NO
 OPT|
 OPT| RMS gradient                                                  0.0024612603
 OPT| Convergence limit for RMS gradient                            0.0003000000
 OPT| RMS gradient is converged                                               NO
 OPT|
 OPT| Pressure deviation [bar]                                   4345.4471904644
 OPT| Pressure tolerance [bar]                                    100.0000000000
 OPT| Pressure is converged                                                   NO
 OPT| **************************************************************************
 OPT| Estimated peak process memory after this step [MiB]                    166

 --------------------------
 OPTIMIZATION STEP:      6
 --------------------------

 CELL| Volume [angstrom^3]:                                           146.822858
 CELL| Vector a [angstrom]:       5.567     0.000     0.000   |a| =     5.567067
 CELL| Vector b [angstrom]:       0.000     5.567     0.000   |b| =     5.567067
 CELL| Vector c [angstrom]:       0.000     0.000     4.737   |c| =     4.737408
 CELL| Angle (b,c), alpha [degree]:                                    90.000000
 CELL| Angle (a,c), beta  [degree]:                                    90.000000
 CELL| Angle (a,b), gamma [degree]:                                    90.000000
 CELL| Numerically orthorhombic:                                             YES
 CELL| Periodicity                                                           XYZ

 Extrapolation method: ASPC

 Number of electrons:                                                         48
 Number of occupied orbitals:                                                 24
 Number of molecular orbitals:                                                48

 Number of orbital functions:                                                 48
 Number of independent orbital functions:                                     48


 SCF WAVEFUNCTION OPTIMIZATION

  Step     Update method      Time    Convergence         Total energy    Change
  ------------------------------------------------------------------------------
     1 TBLite/Diag 0.40E+00    0.0     0.01172332       -30.8708816240 -3.09E+01
     2 TBLite/Diag 0.40E+00    0.0     0.00129533       -30.8708945684 -1.29E-05
     3 TBLite/Diag 0.40E+00    0.0     0.00019695       -30.8708947494 -1.81E-07
     4 TBLite/Diag 0.40E+00    0.0     0.00005443       -30.8708947659 -1.64E-08
     5 TBLite/Diag 0.40E+00    0.0     0.00002454       -30.8708947684 -2.56E-09
     6 TBLite/Diag 0.40E+00    0.0     0.00000134       -30.8708947684 -1.24E-11
     7 TBLite/Diag 0.40E+00    0.0     0.00000029       -30.8708947684 -2.27E-13
     8 TBLite/Diag 0.40E+00    0.0     3.4210E-09       -30.8708947684  1.78E-14
     9 TBLite/Diag 0.40E+00    0.0     1.4315E-11       -30.8708947684 -7.11E-15

  *** SCF run converged in     9 steps ***


  Core Hamiltonian energy:                                    -31.33604860327367
  Repulsive potential energy:                                   0.31253016391552
  Electrostatic energy:                                         0.17704205642402
  Self-consistent dispersion energy:                            0.00000000000000
  Non-self consistent dispersion energy:                       -0.02441838551156
  Correction for halogen bonding:                               0.00000000000000
  Electronic entropic energy:                                  -0.00000000000000
  Fermi energy:                                                -0.24295259819729

  Total energy:                                               -30.87089476844569
  Total energy (extrapolated to T->0):                        -30.87089476844569

 ENERGY| Total FORCE_EVAL ( QS ) energy [hartree]            -30.870894768445691

 OPT| **************************************************************************
 OPT| Step number                                                              6
 OPT| Optimization method                                                   BFGS
 OPT| Total energy [hartree]                                      -30.8708947684
 OPT| Internal pressure [bar]                                    3662.8557945021
 OPT| Effective energy change [hartree]                            -0.0003259597
 OPT| Predicted energy change [hartree]                            -0.0002315029
 OPT| Scaling factor                                                0.0000000000
 OPT| Step size                                                     0.0335044913
 OPT| Trust radius                                                  0.4724315332
 OPT| Decrease in energy                                                     YES
 OPT| Used time [s]                                                        0.171
 OPT|
 OPT| Maximum step size                                             0.0335044913
 OPT| Convergence limit for maximum step size                       0.0030000000
 OPT| Maximum step size is converged                                          NO
 OPT|
 OPT| RMS step size                                                 0.0125547397
 OPT| Convergence limit for RMS step size                           0.0015000000
 OPT| RMS step size is converged                                              NO
 OPT|
 OPT| Maximum gradient                                              0.0045365879
 OPT| Convergence limit for maximum gradient                        0.0004500000
 OPT| Maximum gradient is converged                                           NO
 OPT|
 OPT| RMS gradient                                                  0.0016360718
 OPT| Convergence limit for RMS gradient                            0.0003000000
 OPT| RMS gradient is converged                                               NO
 OPT|
 OPT| Pressure deviation [bar]                                   3662.8557945021
 OPT| Pressure tolerance [bar]                                    100.0000000000
 OPT| Pressure is converged                                                   NO
 OPT| **************************************************************************
 OPT| Estimated peak process memory after this step [MiB]                    166

 --------------------------
 OPTIMIZATION STEP:      7
 --------------------------

 CELL| Volume [angstrom^3]:                                           147.292449
 CELL| Vector a [angstrom]:       5.570     0.000     0.000   |a| =     5.570032
 CELL| Vector b [angstrom]:       0.000     5.570     0.000   |b| =     5.570032
 CELL| Vector c [angstrom]:       0.000     0.000     4.748   |c| =     4.747502
 CELL| Angle (b,c), alpha [degree]:                                    90.000000
 CELL| Angle (a,c), beta  [degree]:                                    90.000000
 CELL| Angle (a,b), gamma [degree]:                                    90.000000
 CELL| Numerically orthorhombic:                                             YES
 CELL| Periodicity                                                           XYZ

 Extrapolation method: ASPC

 Number of electrons:                                                         48
 Number of occupied orbitals:                                                 24
 Number of molecular orbitals:                                                48

 Number of orbital functions:                                                 48
 Number of independent orbital functions:                                     48


 SCF WAVEFUNCTION OPTIMIZATION

  Step     Update method      Time    Convergence         Total energy    Change
  ------------------------------------------------------------------------------
     1 TBLite/Diag 0.40E+00    0.0     0.00747278       -30.8710879475 -3.09E+01
     2 TBLite/Diag 0.40E+00    0.0     0.00115188       -30.8710962516 -8.30E-06
     3 TBLite/Diag 0.40E+00    0.0     0.00009564       -30.8710962968 -4.52E-08
     4 TBLite/Diag 0.40E+00    0.0     0.00003133       -30.8710963004 -3.62E-09
     5 TBLite/Diag 0.40E+00    0.0     0.00001386       -30.8710963015 -1.04E-09
     6 TBLite/Diag 0.40E+00    0.0     0.00000256       -30.8710963015 -4.43E-11
     7 TBLite/Diag 0.40E+00    0.0     0.00000016       -30.8710963015 -8.53E-14
     8 TBLite/Diag 0.40E+00    0.0     2.4043E-09       -30.8710963015  3.20E-14
     9 TBLite/Diag 0.40E+00    0.0     4.4478E-11       -30.8710963015 -7.11E-15

  *** SCF run converged in     9 steps ***


  Core Hamiltonian energy:                                    -31.33524892630832
  Repulsive potential energy:                                   0.31194863360572
  Electrostatic energy:                                         0.17654247296161
  Self-consistent dispersion energy:                            0.00000000000000
  Non-self consistent dispersion energy:                       -0.02433848178910
  Correction for halogen bonding:                               0.00000000000000
  Electronic entropic energy:                                  -0.00000000000000
  Fermi energy:                                                -0.24310274934907

  Total energy:                                               -30.87109630153009
  Total energy (extrapolated to T->0):                        -30.87109630153009

 ENERGY| Total FORCE_EVAL ( QS ) energy [hartree]            -30.871096301530095

 OPT| **************************************************************************
 OPT| Step number                                                              7
 OPT| Optimization method                                                   BFGS
 OPT| Total energy [hartree]                                      -30.8710963015
 OPT| Internal pressure [bar]                                    1642.0779134112
 OPT| Effective energy change [hartree]                            -0.0002015331
 OPT| Predicted energy change [hartree]                            -0.0001342955
 OPT| Scaling factor                                                0.0000000000
 OPT| Step size                                                     0.0235131085
 OPT| Trust radius                                                  0.4724315332
 OPT| Decrease in energy                                                     YES
 OPT| Used time [s]                                                        0.170
 OPT|
 OPT| Maximum step size                                             0.0235131085
 OPT| Convergence limit for maximum step size                       0.0030000000
 OPT| Maximum step size is converged                                          NO
 OPT|
 OPT| RMS step size                                                 0.0080531395
 OPT| Convergence limit for RMS step size                           0.0015000000
 OPT| RMS step size is converged                                              NO
 OPT|
 OPT| Maximum gradient                                              0.0046587469
 OPT| Convergence limit for maximum gradient                        0.0004500000
 OPT| Maximum gradient is converged                                           NO
 OPT|
 OPT| RMS gradient                                                  0.0013500114
 OPT| Convergence limit for RMS gradient                            0.0003000000
 OPT| RMS gradient is converged                                               NO
 OPT|
 OPT| Pressure deviation [bar]                                   1642.0779134112
 OPT| Pressure tolerance [bar]                                    100.0000000000
 OPT| Pressure is converged                                                   NO
 OPT| **************************************************************************
 OPT| Estimated peak process memory after this step [MiB]                    166

 --------------------------
 OPTIMIZATION STEP:      8
 --------------------------

 CELL| Volume [angstrom^3]:                                           147.678122
 CELL| Vector a [angstrom]:       5.573     0.000     0.000   |a| =     5.573430
 CELL| Vector b [angstrom]:       0.000     5.573     0.000   |b| =     5.573430
 CELL| Vector c [angstrom]:       0.000     0.000     4.754   |c| =     4.754131
 CELL| Angle (b,c), alpha [degree]:                                    90.000000
 CELL| Angle (a,c), beta  [degree]:                                    90.000000
 CELL| Angle (a,b), gamma [degree]:                                    90.000000
 CELL| Numerically orthorhombic:                                             YES
 CELL| Periodicity                                                           XYZ

 Extrapolation method: ASPC

 Number of electrons:                                                         48
 Number of occupied orbitals:                                                 24
 Number of molecular orbitals:                                                48

 Number of orbital functions:                                                 48
 Number of independent orbital functions:                                     48


 SCF WAVEFUNCTION OPTIMIZATION

  Step     Update method      Time    Convergence         Total energy    Change
  ------------------------------------------------------------------------------
     1 TBLite/Diag 0.40E+00    0.0     0.00584423       -30.8712643141 -3.09E+01
     2 TBLite/Diag 0.40E+00    0.0     0.00061939       -30.8712663937 -2.08E-06
     3 TBLite/Diag 0.40E+00    0.0     0.00001748       -30.8712663971 -3.38E-09
     4 TBLite/Diag 0.40E+00    0.0     0.00001996       -30.8712663974 -2.97E-10
     5 TBLite/Diag 0.40E+00    0.0     0.00000835       -30.8712663977 -2.81E-10
     6 TBLite/Diag 0.40E+00    0.0     0.00000240       -30.8712663977 -2.65E-11
     7 TBLite/Diag 0.40E+00    0.0     0.00000006       -30.8712663977  3.55E-14
     8 TBLite/Diag 0.40E+00    0.0     6.3356E-10       -30.8712663977  0.00E+00

  *** SCF run converged in     8 steps ***


  Core Hamiltonian energy:                                    -31.33360120939600
  Repulsive potential energy:                                   0.31024485644642
  Electrostatic energy:                                         0.17636312653816
  Self-consistent dispersion energy:                            0.00000000000000
  Non-self consistent dispersion energy:                       -0.02427317131089
  Correction for halogen bonding:                               0.00000000000000
  Electronic entropic energy:                                  -0.00000000000000
  Fermi energy:                                                -0.24343740348312

  Total energy:                                               -30.87126639772232
  Total energy (extrapolated to T->0):                        -30.87126639772232

 ENERGY| Total FORCE_EVAL ( QS ) energy [hartree]            -30.871266397722316

 OPT| **************************************************************************
 OPT| Step number                                                              8
 OPT| Optimization method                                                   BFGS
 OPT| Total energy [hartree]                                      -30.8712663977
 OPT| Internal pressure [bar]                                   -1504.4270574366
 OPT| Effective energy change [hartree]                            -0.0001700962
 OPT| Predicted energy change [hartree]                            -0.0001195968
 OPT| Scaling factor                                                0.0000000000
 OPT| Step size                                                     0.0215269762
 OPT| Trust radius                                                  0.4724315332
 OPT| Decrease in energy                                                     YES
 OPT| Used time [s]                                                        0.168
 OPT|
 OPT| Maximum step size                                             0.0215269762
 OPT| Convergence limit for maximum step size                       0.0030000000
 OPT| Maximum step size is converged                                          NO
 OPT|
 OPT| RMS step size                                                 0.0070815608
 OPT| Convergence limit for RMS step size                           0.0015000000
 OPT| RMS step size is converged                                              NO
 OPT|
 OPT| Maximum gradient                                              0.0062003920
 OPT| Convergence limit for maximum gradient                        0.0004500000
 OPT| Maximum gradient is converged                                           NO
 OPT|
 OPT| RMS gradient                                                  0.0013499330
 OPT| Convergence limit for RMS gradient                            0.0003000000
 OPT| RMS gradient is converged                                               NO
 OPT|
 OPT| Pressure deviation [bar]                                  -1504.4270574366
 OPT| Pressure tolerance [bar]                                    100.0000000000
 OPT| Pressure is converged                                                   NO
 OPT| **************************************************************************
 OPT| Estimated peak process memory after this step [MiB]                    166

 --------------------------
 OPTIMIZATION STEP:      9
 --------------------------

 CELL| Volume [angstrom^3]:                                           147.820320
 CELL| Vector a [angstrom]:       5.575     0.000     0.000   |a| =     5.575226
 CELL| Vector b [angstrom]:       0.000     5.575     0.000   |b| =     5.575226
 CELL| Vector c [angstrom]:       0.000     0.000     4.756   |c| =     4.755643
 CELL| Angle (b,c), alpha [degree]:                                    90.000000
 CELL| Angle (a,c), beta  [degree]:                                    90.000000
 CELL| Angle (a,b), gamma [degree]:                                    90.000000
 CELL| Numerically orthorhombic:                                             YES
 CELL| Periodicity                                                           XYZ

 Extrapolation method: ASPC

 Number of electrons:                                                         48
 Number of occupied orbitals:                                                 24
 Number of molecular orbitals:                                                48

 Number of orbital functions:                                                 48
 Number of independent orbital functions:                                     48


 SCF WAVEFUNCTION OPTIMIZATION

  Step     Update method      Time    Convergence         Total energy    Change
  ------------------------------------------------------------------------------
     1 TBLite/Diag 0.40E+00    0.0     0.00287337       -30.8713570418 -3.09E+01
     2 TBLite/Diag 0.40E+00    0.0     0.00033389       -30.8713579181 -8.76E-07
     3 TBLite/Diag 0.40E+00    0.0     0.00005814       -30.8713579349 -1.68E-08
     4 TBLite/Diag 0.40E+00    0.0     0.00002618       -30.8713579375 -2.67E-09
     5 TBLite/Diag 0.40E+00    0.0     0.00000948       -30.8713579380 -4.15E-10
     6 TBLite/Diag 0.40E+00    0.0     0.00000312       -30.8713579380 -2.93E-11
     7 TBLite/Diag 0.40E+00    0.0     0.00000004       -30.8713579380 -1.42E-14
     8 TBLite/Diag 0.40E+00    0.0     3.0051E-10       -30.8713579380 -1.07E-14

  *** SCF run converged in     8 steps ***


  Core Hamiltonian energy:                                    -31.33242431191196
  Repulsive potential energy:                                   0.30864476668439
  Electrostatic energy:                                         0.17667079496125
  Self-consistent dispersion energy:                            0.00000000000000
  Non-self consistent dispersion energy:                       -0.02424918772729
  Correction for halogen bonding:                               0.00000000000000
  Electronic entropic energy:                                  -0.00000000000000
  Fermi energy:                                                -0.24372175704268

  Total energy:                                               -30.87135793799361
  Total energy (extrapolated to T->0):                        -30.87135793799361

 ENERGY| Total FORCE_EVAL ( QS ) energy [hartree]            -30.871357937993611

 OPT| **************************************************************************
 OPT| Step number                                                              9
 OPT| Optimization method                                                   BFGS
 OPT| Total energy [hartree]                                      -30.8713579380
 OPT| Internal pressure [bar]                                   -3880.4515866953
 OPT| Effective energy change [hartree]                            -0.0000915403
 OPT| Predicted energy change [hartree]                            -0.0000665203
 OPT| Scaling factor                                                0.0000000000
 OPT| Step size                                                     0.0126426285
 OPT| Trust radius                                                  0.4724315332
 OPT| Decrease in energy                                                     YES
 OPT| Used time [s]                                                        0.168
 OPT|
 OPT| Maximum step size                                             0.0126426285
 OPT| Convergence limit for maximum step size                       0.0030000000
 OPT| Maximum step size is converged                                          NO
 OPT|
 OPT| RMS step size                                                 0.0042485307
 OPT| Convergence limit for RMS step size                           0.0015000000
 OPT| RMS step size is converged                                              NO
 OPT|
 OPT| Maximum gradient                                              0.0039899793
 OPT| Convergence limit for maximum gradient                        0.0004500000
 OPT| Maximum gradient is converged                                           NO
 OPT|
 OPT| RMS gradient                                                  0.0009268573
 OPT| Convergence limit for RMS gradient                            0.0003000000
 OPT| RMS gradient is converged                                               NO
 OPT|
 OPT| Pressure deviation [bar]                                  -3880.4515866953
 OPT| Pressure tolerance [bar]                                    100.0000000000
 OPT| Pressure is converged                                                   NO
 OPT| **************************************************************************
 OPT| Estimated peak process memory after this step [MiB]                    166

 --------------------------
 OPTIMIZATION STEP:     10
 --------------------------

 CELL| Volume [angstrom^3]:                                           147.773791
 CELL| Vector a [angstrom]:       5.575     0.000     0.000   |a| =     5.575016
 CELL| Vector b [angstrom]:       0.000     5.575     0.000   |b| =     5.575016
 CELL| Vector c [angstrom]:       0.000     0.000     4.755   |c| =     4.754504
 CELL| Angle (b,c), alpha [degree]:                                    90.000000
 CELL| Angle (a,c), beta  [degree]:                                    90.000000
 CELL| Angle (a,b), gamma [degree]:                                    90.000000
 CELL| Numerically orthorhombic:                                             YES
 CELL| Periodicity                                                           XYZ

 Extrapolation method: ASPC

 Number of electrons:                                                         48
 Number of occupied orbitals:                                                 24
 Number of molecular orbitals:                                                48

 Number of orbital functions:                                                 48
 Number of independent orbital functions:                                     48


 SCF WAVEFUNCTION OPTIMIZATION

  Step     Update method      Time    Convergence         Total energy    Change
  ------------------------------------------------------------------------------
     1 TBLite/Diag 0.40E+00    0.0     0.00284164       -30.8713911765 -3.09E+01
     2 TBLite/Diag 0.40E+00    0.0     0.00065163       -30.8713936550 -2.48E-06
     3 TBLite/Diag 0.40E+00    0.0     0.00003850       -30.8713936665 -1.14E-08
     4 TBLite/Diag 0.40E+00    0.0     0.00001808       -30.8713936681 -1.62E-09
     5 TBLite/Diag 0.40E+00    0.0     0.00000710       -30.8713936684 -3.41E-10
     6 TBLite/Diag 0.40E+00    0.0     0.00000069       -30.8713936684 -3.13E-12
     7 TBLite/Diag 0.40E+00    0.0     0.00000010       -30.8713936684  7.11E-15
     8 TBLite/Diag 0.40E+00    0.0     7.4366E-10       -30.8713936684 -1.78E-14

  *** SCF run converged in     8 steps ***


  Core Hamiltonian energy:                                    -31.33231327021085
  Repulsive potential energy:                                   0.30809214434109
  Electrostatic energy:                                         0.17708460404370
  Self-consistent dispersion energy:                            0.00000000000000
  Non-self consistent dispersion energy:                       -0.02425714659135
  Correction for halogen bonding:                               0.00000000000000
  Electronic entropic energy:                                  -0.00000000000000
  Fermi energy:                                                -0.24377808196773

  Total energy:                                               -30.87139366841742
  Total energy (extrapolated to T->0):                        -30.87139366841742

 ENERGY| Total FORCE_EVAL ( QS ) energy [hartree]            -30.871393668417422

 OPT| **************************************************************************
 OPT| Step number                                                             10
 OPT| Optimization method                                                   BFGS
 OPT| Total energy [hartree]                                      -30.8713936684
 OPT| Internal pressure [bar]                                   -4617.5473392940
 OPT| Effective energy change [hartree]                            -0.0000357304
 OPT| Predicted energy change [hartree]                            -0.0000254703
 OPT| Scaling factor                                                0.0000000000
 OPT| Step size                                                     0.0070659636
 OPT| Trust radius                                                  0.4724315332
 OPT| Decrease in energy                                                     YES
 OPT| Used time [s]                                                        0.168
 OPT|
 OPT| Maximum step size                                             0.0070659636
 OPT| Convergence limit for maximum step size                       0.0030000000
 OPT| Maximum step size is converged                                          NO
 OPT|
 OPT| RMS step size                                                 0.0018989299
 OPT| Convergence limit for RMS step size                           0.0015000000
 OPT| RMS step size is converged                                              NO
 OPT|
 OPT| Maximum gradient                                              0.0016868105
 OPT| Convergence limit for maximum gradient                        0.0004500000
 OPT| Maximum gradient is converged                                           NO
 OPT|
 OPT| RMS gradient                                                  0.0005295828
 OPT| Convergence limit for RMS gradient                            0.0003000000
 OPT| RMS gradient is converged                                               NO
 OPT|
 OPT| Pressure deviation [bar]                                  -4617.5473392940
 OPT| Pressure tolerance [bar]                                    100.0000000000
 OPT| Pressure is converged                                                   NO
 OPT| **************************************************************************
 OPT| Estimated peak process memory after this step [MiB]                    166

 --------------------------
 OPTIMIZATION STEP:     11
 --------------------------

 CELL| Volume [angstrom^3]:                                           147.649942
 CELL| Vector a [angstrom]:       5.574     0.000     0.000   |a| =     5.573670
 CELL| Vector b [angstrom]:       0.000     5.574     0.000   |b| =     5.573670
 CELL| Vector c [angstrom]:       0.000     0.000     4.753   |c| =     4.752813
 CELL| Angle (b,c), alpha [degree]:                                    90.000000
 CELL| Angle (a,c), beta  [degree]:                                    90.000000
 CELL| Angle (a,b), gamma [degree]:                                    90.000000
 CELL| Numerically orthorhombic:                                             YES
 CELL| Periodicity                                                           XYZ

 Extrapolation method: ASPC

 Number of electrons:                                                         48
 Number of occupied orbitals:                                                 24
 Number of molecular orbitals:                                                48

 Number of orbital functions:                                                 48
 Number of independent orbital functions:                                     48


 SCF WAVEFUNCTION OPTIMIZATION

  Step     Update method      Time    Convergence         Total energy    Change
  ------------------------------------------------------------------------------
     1 TBLite/Diag 0.40E+00    0.0     0.00224099       -30.8714159948 -3.09E+01
     2 TBLite/Diag 0.40E+00    0.0     0.00053960       -30.8714175219 -1.53E-06
     3 TBLite/Diag 0.40E+00    0.0     0.00001707       -30.8714175248 -2.90E-09
     4 TBLite/Diag 0.40E+00    0.0     0.00001562       -30.8714175254 -6.30E-10
     5 TBLite/Diag 0.40E+00    0.0     0.00000285       -30.8714175254 -2.37E-11
     6 TBLite/Diag 0.40E+00    0.0     0.00000070       -30.8714175254 -3.01E-12
     7 TBLite/Diag 0.40E+00    0.0     0.00000008       -30.8714175254  2.13E-14
     8 TBLite/Diag 0.40E+00    0.0     5.6999E-10       -30.8714175254 -2.13E-14

  *** SCF run converged in     8 steps ***


  Core Hamiltonian energy:                                    -31.33272950694330
  Repulsive potential energy:                                   0.30819307126378
  Electrostatic energy:                                         0.17739732193902
  Self-consistent dispersion energy:                            0.00000000000000
  Non-self consistent dispersion energy:                       -0.02427841168714
  Correction for halogen bonding:                               0.00000000000000
  Electronic entropic energy:                                  -0.00000000000000
  Fermi energy:                                                -0.24369995546094

  Total energy:                                               -30.87141752542764
  Total energy (extrapolated to T->0):                        -30.87141752542764

 ENERGY| Total FORCE_EVAL ( QS ) energy [hartree]            -30.871417525427638

 OPT| **************************************************************************
 OPT| Step number                                                             11
 OPT| Optimization method                                                   BFGS
 OPT| Total energy [hartree]                                      -30.8714175254
 OPT| Internal pressure [bar]                                   -4537.3645893493
 OPT| Effective energy change [hartree]                            -0.0000238570
 OPT| Predicted energy change [hartree]                            -0.0000148875
 OPT| Scaling factor                                                0.0000000000
 OPT| Step size                                                     0.0046887715
 OPT| Trust radius                                                  0.4724315332
 OPT| Decrease in energy                                                     YES
 OPT| Used time [s]                                                        0.168
 OPT|
 OPT| Maximum step size                                             0.0046887715
 OPT| Convergence limit for maximum step size                       0.0030000000
 OPT| Maximum step size is converged                                          NO
 OPT|
 OPT| RMS step size                                                 0.0014136348
 OPT| Convergence limit for RMS step size                           0.0015000000
 OPT| RMS step size is converged                                             YES
 OPT|
 OPT| Maximum gradient                                              0.0016277203
 OPT| Convergence limit for maximum gradient                        0.0004500000
 OPT| Maximum gradient is converged                                           NO
 OPT|
 OPT| RMS gradient                                                  0.0005867223
 OPT| Convergence limit for RMS gradient                            0.0003000000
 OPT| RMS gradient is converged                                               NO
 OPT|
 OPT| Pressure deviation [bar]                                  -4537.3645893493
 OPT| Pressure tolerance [bar]                                    100.0000000000
 OPT| Pressure is converged                                                   NO
 OPT| **************************************************************************
 OPT| Estimated peak process memory after this step [MiB]                    166

 --------------------------
 OPTIMIZATION STEP:     12
 --------------------------

 CELL| Volume [angstrom^3]:                                           147.328525
 CELL| Vector a [angstrom]:       5.570     0.000     0.000   |a| =     5.569709
 CELL| Vector b [angstrom]:       0.000     5.570     0.000   |b| =     5.569709
 CELL| Vector c [angstrom]:       0.000     0.000     4.749   |c| =     4.749215
 CELL| Angle (b,c), alpha [degree]:                                    90.000000
 CELL| Angle (a,c), beta  [degree]:                                    90.000000
 CELL| Angle (a,b), gamma [degree]:                                    90.000000
 CELL| Numerically orthorhombic:                                             YES
 CELL| Periodicity                                                           XYZ

 Extrapolation method: ASPC

 Number of electrons:                                                         48
 Number of occupied orbitals:                                                 24
 Number of molecular orbitals:                                                48

 Number of orbital functions:                                                 48
 Number of independent orbital functions:                                     48


 SCF WAVEFUNCTION OPTIMIZATION

  Step     Update method      Time    Convergence         Total energy    Change
  ------------------------------------------------------------------------------
     1 TBLite/Diag 0.40E+00    0.0     0.00321405       -30.8714624966 -3.09E+01
     2 TBLite/Diag 0.40E+00    0.0     0.00080002       -30.8714656274 -3.13E-06
     3 TBLite/Diag 0.40E+00    0.0     0.00002684       -30.8714656350 -7.58E-09
     4 TBLite/Diag 0.40E+00    0.0     0.00002215       -30.8714656361 -1.12E-09
     5 TBLite/Diag 0.40E+00    0.0     0.00000698       -30.8714656364 -2.98E-10
     6 TBLite/Diag 0.40E+00    0.0     0.00000124       -30.8714656364 -6.53E-12
     7 TBLite/Diag 0.40E+00    0.0     0.00000011       -30.8714656364 -6.04E-14
     8 TBLite/Diag 0.40E+00    0.0     1.5189E-09       -30.8714656364  2.84E-14
     9 TBLite/Diag 0.40E+00    0.0     3.2551E-11       -30.8714656364  2.49E-14

  *** SCF run converged in     9 steps ***


  Core Hamiltonian energy:                                    -31.33376933769999
  Repulsive potential energy:                                   0.30880016945063
  Electrostatic energy:                                         0.17783758608289
  Self-consistent dispersion energy:                            0.00000000000000
  Non-self consistent dispersion energy:                       -0.02433405421874
  Correction for halogen bonding:                               0.00000000000000
  Electronic entropic energy:                                  -0.00000000000000
  Fermi energy:                                                -0.24346113780015

  Total energy:                                               -30.87146563638522
  Total energy (extrapolated to T->0):                        -30.87146563638522

 ENERGY| Total FORCE_EVAL ( QS ) energy [hartree]            -30.871465636385217

 OPT| **************************************************************************
 OPT| Step number                                                             12
 OPT| Optimization method                                                   BFGS
 OPT| Total energy [hartree]                                      -30.8714656364
 OPT| Internal pressure [bar]                                   -4011.6420632830
 OPT| Effective energy change [hartree]                            -0.0000481110
 OPT| Predicted energy change [hartree]                            -0.0000298093
 OPT| Scaling factor                                                0.0000000000
 OPT| Step size                                                     0.0087295670
 OPT| Trust radius                                                  0.4724315332
 OPT| Decrease in energy                                                     YES
 OPT| Used time [s]                                                        0.171
 OPT|
 OPT| Maximum step size                                             0.0087295670
 OPT| Convergence limit for maximum step size                       0.0030000000
 OPT| Maximum step size is converged                                          NO
 OPT|
 OPT| RMS step size                                                 0.0033193553
 OPT| Convergence limit for RMS step size                           0.0015000000
 OPT| RMS step size is converged                                              NO
 OPT|
 OPT| Maximum gradient                                              0.0040539130
 OPT| Convergence limit for maximum gradient                        0.0004500000
 OPT| Maximum gradient is converged                                           NO
 OPT|
 OPT| RMS gradient                                                  0.0010767317
 OPT| Convergence limit for RMS gradient                            0.0003000000
 OPT| RMS gradient is converged                                               NO
 OPT|
 OPT| Pressure deviation [bar]                                  -4011.6420632830
 OPT| Pressure tolerance [bar]                                    100.0000000000
 OPT| Pressure is converged                                                   NO
 OPT| **************************************************************************
[...]
 CELL| Vector c [angstrom]:       0.000     0.000     4.718   |c| =     4.718231
 CELL| Angle (b,c), alpha [degree]:                                    90.000000
 CELL| Angle (a,c), beta  [degree]:                                    90.000000
 CELL| Angle (a,b), gamma [degree]:                                    90.000000
 CELL| Numerically orthorhombic:                                              NO
 CELL| Periodicity                                                           XYZ

 Extrapolation method: ASPC

 Number of electrons:                                                         48
 Number of occupied orbitals:                                                 24
 Number of molecular orbitals:                                                48

 Number of orbital functions:                                                 48
 Number of independent orbital functions:                                     48


 SCF WAVEFUNCTION OPTIMIZATION

  Step     Update method      Time    Convergence         Total energy    Change
  ------------------------------------------------------------------------------
     1 TBLite/Diag 0.40E+00    0.0     0.00021528       -30.8940961628 -3.09E+01
     2 TBLite/Diag 0.40E+00    0.0     0.00004496       -30.8940961794 -1.66E-08
     3 TBLite/Diag 0.40E+00    0.0     0.00000857       -30.8940961797 -3.29E-10
     4 TBLite/Diag 0.40E+00    0.0     0.00000158       -30.8940961797 -1.33E-11
     5 TBLite/Diag 0.40E+00    0.0     0.00000075       -30.8940961797 -2.74E-12
     6 TBLite/Diag 0.40E+00    0.0     0.00000015       -30.8940961797 -1.67E-13
     7 TBLite/Diag 0.40E+00    0.0     3.5079E-09       -30.8940961797  2.13E-14
     8 TBLite/Diag 0.40E+00    0.0     6.3083E-13       -30.8940961797 -2.13E-14

  *** SCF run converged in     8 steps ***


  Core Hamiltonian energy:                                    -31.34098324569715
  Repulsive potential energy:                                   0.30908534533927
  Electrostatic energy:                                         0.16965905978025
  Self-consistent dispersion energy:                            0.00000000000000
  Non-self consistent dispersion energy:                       -0.03185733913182
  Correction for halogen bonding:                               0.00000000000000
  Electronic entropic energy:                                  -0.00000000000000
  Fermi energy:                                                -0.24461200366700

  Total energy:                                               -30.89409617970944
  Total energy (extrapolated to T->0):                        -30.89409617970944

 ENERGY| Total FORCE_EVAL ( QS ) energy [hartree]            -30.894096179709440

 OPT| **************************************************************************
 OPT| Step number                                                             45
 OPT| Optimization method                                                   BFGS
 OPT| Total energy [hartree]                                      -30.8940961797
 OPT| Internal pressure [bar]                                      -9.6204894763
 OPT| Effective energy change [hartree]                            -0.0000000891
 OPT| Predicted energy change [hartree]                            -0.0000000884
 OPT| Scaling factor                                                0.0702209835
 OPT| Step size                                                     0.0009663398
 OPT| Trust radius                                                  0.4724315332
 OPT| Decrease in energy                                                     YES
 OPT| Used time [s]                                                        0.199
 OPT|
 OPT| Maximum step size                                             0.0009663398
 OPT| Convergence limit for maximum step size                       0.0030000000
 OPT| Maximum step size is converged                                         YES
 OPT|
 OPT| RMS step size                                                 0.0002368902
 OPT| Convergence limit for RMS step size                           0.0015000000
 OPT| RMS step size is converged                                             YES
 OPT|
 OPT| Maximum gradient                                              0.0000130526
 OPT| Convergence limit for maximum gradient                        0.0004500000
 OPT| Maximum gradient is converged                                          YES
 OPT|
 OPT| RMS gradient                                                  0.0000039750
 OPT| Convergence limit for RMS gradient                            0.0003000000
 OPT| RMS gradient is converged                                              YES
 OPT|
 OPT| Pressure deviation [bar]                                     -9.6204894763
 OPT| Pressure tolerance [bar]                                    100.0000000000
 OPT| Pressure is converged                                                  YES
 OPT| **************************************************************************
 OPT| Estimated peak process memory after this step [MiB]                    167

 *******************************************************************************
 ***                    GEOMETRY OPTIMIZATION COMPLETED                      ***
 *******************************************************************************

 write_final_structure: Optimization converged, writing XYZ file gladly:
  urea_GFN1_gamma_cell_opt-FINAL-1_45.xyz

 write_final_structure: Optimization converged, writing CIF file gladly:
  urea_GFN1_gamma_cell_opt-FINAL-1_45.cif

 write_final_structure: Done!

                    Reevaluating energy at the minimum

 CELL| Volume [angstrom^3]:                                           114.169678
 CELL| Vector a [angstrom]:       4.919     0.000     0.000   |a| =     4.919102
 CELL| Vector b [angstrom]:      -0.000     4.919     0.000   |b| =     4.919102
 CELL| Vector c [angstrom]:       0.000     0.000     4.718   |c| =     4.718231
 CELL| Angle (b,c), alpha [degree]:                                    90.000000
 CELL| Angle (a,c), beta  [degree]:                                    90.000000
 CELL| Angle (a,b), gamma [degree]:                                    90.000000
 CELL| Numerically orthorhombic:                                              NO
 CELL| Periodicity                                                           XYZ

 Extrapolation method: ASPC

 Number of electrons:                                                         48
 Number of occupied orbitals:                                                 24
 Number of molecular orbitals:                                                48

 Number of orbital functions:                                                 48
 Number of independent orbital functions:                                     48


 SCF WAVEFUNCTION OPTIMIZATION

  Step     Update method      Time    Convergence         Total energy    Change
  ------------------------------------------------------------------------------
     1 TBLite/Diag 0.40E+00    0.0     9.9039E-12       -30.8940961797 -3.09E+01

  *** SCF run converged in     1 steps ***


  Core Hamiltonian energy:                                    -31.34098324568829
  Repulsive potential energy:                                   0.30908534533927
  Electrostatic energy:                                         0.16965905977141
  Self-consistent dispersion energy:                            0.00000000000000
  Non-self consistent dispersion energy:                       -0.03185733913182
  Correction for halogen bonding:                               0.00000000000000
  Electronic entropic energy:                                  -0.00000000000000
  Fermi energy:                                                -0.24461200366843

  Total energy:                                               -30.89409617970942
  Total energy (extrapolated to T->0):                        -30.89409617970942

 ENERGY| Total FORCE_EVAL ( QS ) energy [hartree]            -30.894096179709422

 -------------------------------------------------------------------------------
 -                                                                             -
 -                                DBCSR STATISTICS                             -
 -                                                                             -
 -------------------------------------------------------------------------------
 COUNTER                                    TOTAL       BLAS       SMM       ACC
 flops     2 x    16 x     2              1802240       0.0%    100.0%      0.0%     
 flops     4 x    16 x     2              3604480       0.0%    100.0%      0.0%     
 flops     2 x    16 x     4              3604480       0.0%    100.0%      0.0%     
 flops     2 x    32 x     2              3604480       0.0%    100.0%      0.0%     
 flops     2 x     2 x    48              6898176       0.0%    100.0%      0.0%     
 flops     4 x    16 x     4              7208960       0.0%    100.0%      0.0%     
 flops     4 x    32 x     2              7208960       0.0%    100.0%      0.0%     
 flops     2 x    32 x     4              7208960       0.0%    100.0%      0.0%     
 flops     4 x     2 x    48             12263424       0.0%    100.0%      0.0%     
 flops     2 x     4 x    48             12263424       0.0%    100.0%      0.0%     
 flops     4 x    32 x     4             14417920       0.0%    100.0%      0.0%     
 flops     4 x     4 x    48             27592704       0.0%    100.0%      0.0%     
 flops inhomo. stacks                           0       0.0%      0.0%      0.0%
 flops total                       107.678208E+06       0.0%    100.0%      0.0%
 flops max/rank                    107.678208E+06       0.0%    100.0%      0.0%
 matmuls inhomo. stacks                         0       0.0%      0.0%      0.0%
 matmuls total                             180504       0.0%    100.0%      0.0%
 number of processed stacks                  3756       0.0%    100.0%      0.0%
 average stack size                                     0.0      48.1       0.0
 marketing flops                   103.845888E+06
 -------------------------------------------------------------------------------
 # multiplications                            719
 max memory usage/rank              13.670752E+09
 # max total images/rank                        1
 # max 3D layers                                1
 # MPI messages exchanged                       0
 -------------------------------------------------------------------------------
 -                                                                             -
 -                      DBCSR MESSAGE PASSING PERFORMANCE                      -
 -                                                                             -
 -------------------------------------------------------------------------------
 ROUTINE             CALLS      AVE VOLUME [Bytes]
 MP_Bcast               13                     12.
 MP_Allreduce         3198                      8.
 MP_Alltoall         22372                  12337.
 MP_ISend             2876                   1325.
 MP_IRecv             2876                   1325.
 -------------------------------------------------------------------------------

 -------------------------------------------------------------------------------
 -                                                                             -
 -                          OFFLOAD MEMPOOL STATISTICS                         -
 -                                                                             -
 -------------------------------------------------------------------------------
 Memory consumption                Number of allocations  Used [MiB]  Size [MiB]
 Device                                                2           0           0
 Host                                                  2           0           0
 -------------------------------------------------------------------------------

 MEMORY| Estimated peak process memory [MiB]                                 167

 -------------------------------------------------------------------------------
 -                                                                             -
 -                         MESSAGE PASSING PERFORMANCE                         -
 -                                                                             -
 -------------------------------------------------------------------------------

 ROUTINE             CALLS      AVE VOLUME [Bytes]
 MP_Group               46
 MP_Bcast              996                    196.
 MP_Allreduce         9536                    104.
 MP_Sync               544
 MP_comm_split         498
 -------------------------------------------------------------------------------


 -------------------------------------------------------------------------------
 -                                                                             -
 -                           R E F E R E N C E S                               -
 -                                                                             -
 -------------------------------------------------------------------------------
 
 CP2K version 2026.1 (Development Version), the CP2K developers group (2026).
 CP2K is freely available from https://www.cp2k.org/ .
 
 M. Iannuzzi, J. Wilhelm, F. Stein, A. Bussy, H. Elgabarty, D. Golze, A. Hehn, 
 M. Graml, S. Marek, B. Sertcan Gökmen, C. Schran, H. Forbert, R. Z. 
 Khaliullin, A. Kozhevnikov, M. Taillefumier, R. Meli, V. V. Rybkin, M. Brehm, 
 R. Schade, O. Schütt, J. V. Pototschnig, H. Mirhosseini, A. Knüpfer, D. Marx, 
 M. Krack, J. Hutter, T. D. Kühne.
 J. Phys. Chem. B 130, 1237-1310 (2026).
 The CP2K Program Package Made Simple.
 https://doi.org/10.1021/acs.jpcb.5c05851

 A. Katbashev, M. Stahn, T. Rose, V. Alizadeh, M. Friede, C. Plett, P. 
 Steinbach, S. Ehlert.
 J. Phys. Chem. A 129, 2667-2682 (2025).
 Overview on Building Blocks and Applications of Efficient and Robust Extended 
 Tight Binding.
 https://doi.org/10.1021/acs.jpca.4c08263

 T. D. Kühne, M. Iannuzzi, M. Del Ben, V. V. Rybkin, P. Seewald, F. Stein, T. 
 Laino, R. Z. Khaliullin, O. Schütt, F. Schiffmann, D. Golze, J. Wilhelm, S. 
 Chulkov, M. H. Bani-Hashemian, V. Weber, U. Borstnik, M. Taillefumier, A. S. 
 Jakobovits, A. Lazzaro, H. Pabst, T. Müller, R. Schade, M. Guidon, S. 
 Andermatt, N. Holmberg, G. K. Schenter, A. Hehn, A. Bussy, F. Belleflamme, G. 
 Tabacchi, A. Glöß, M. Lass, I. Bethune, C. J. Mundy, C. Plessl, M. Watkins, 
 J. VandeVondele, M. Krack, J. Hutter.
 J. Chem. Phys. 152, 194103 (2020).
 CP2K: An electronic structure and molecular dynamics software package - 
 Quickstep: Efficient and accurate electronic structure calculations.
 https://doi.org/10.1063/5.0007045

 P. Pracht, E. Caldeweyher, S. Ehlert, S. Grimme.
 ChemRxiv, (2019).
 A Robust Non-Self-Consistent Tight-Binding Quantum Chemistry Method for large 
 Molecules.
 https://doi.org/10.26434/chemrxiv.8326202.v1

 S. Grimme, C. Bannwarth, P. Shushkov.
 J. Chem. Theory Comput. 13, 1989 (2017).
 A Robust and Accurate Tight-Binding Quantum Chemical Method for Structures, 
 Vibrational Frequencies, and Noncovalent Interactions of Large Molecular 
 Systems Parametrized for All spd-Block Elements (Z = 1-86).
 https://doi.org/10.1021/acs.jctc.7b00118

 O. Schuett, P. Messmer, J. Hutter, J. VandeVondele.
 Electronic Structure Calculations on Graphics Processing Units, 173-190 (2016).
 GPU-Accelerated Sparse Matrix-Matrix Multiplication for Linear Scaling Density 
 Functional Theory.
 https://doi.org/10.1002/9781118670712.ch8

 A. Heinecke, G. Henry, M. Hutchinson, H. Pabst.
 Proceedings of Intl. Supercomputing Conference, 981-991 (2016).
 LIBXSMM: Accelerating Small Matrix Multiplications by Runtime Code Generation.
 https://doi.org/10.1109/SC.2016.83

 U. Borstnik, J. VandeVondele, V. Weber, J. Hutter.
 Parallel Comput. 40, 47-58 (2014).
 Sparse matrix multiplication: The distributed block-compressed sparse row 
 library.
 https://doi.org/10.1016/j.parco.2014.03.012

 T. D. Kühne, M. Krack, F. R. Mohamed, M. Parrinello.
 Phys. Rev. Lett. 98, 066401 (2007).
 Efficient and accurate Car-Parrinello-like approach to Born-Oppenheimer 
 molecular dynamics.
 https://doi.org/10.1103/PhysRevLett.98.066401

 M. Frigo, S. G. Johnson.
 Proc. IEEE 93, 216-231 (2005).
 The design and implementation of FFTW3.
 https://doi.org/10.1109/JPROC.2004.840301

 J. Kolafa.
 J. Comput. Chem. 25, 335-342 (2004).
 Time-reversible always stable predictor-corrector method for molecular dynamics 
 of polarizable molecules.
 https://doi.org/10.1002/jcc.10385

 N. D. Mermin.
 Phys. Rev. 137, A1441-A1443 (1965).
 Thermal Properties of the Inhomogeneous Electron Gas.
 https://doi.org/10.1103/PhysRev.137.A1441


 -------------------------------------------------------------------------------
 -                                                                             -
 -                                T I M I N G                                  -
 -                                                                             -
 -------------------------------------------------------------------------------
 SUBROUTINE                       CALLS  ASD         SELF TIME        TOTAL TIME
                                MAXIMUM       AVERAGE  MAXIMUM  AVERAGE  MAXIMUM
 CP2K                                 1  1.0    0.003    0.003    8.592    8.592
 cp_cell_opt                          1  2.0    0.000    0.000    8.585    8.585
 geoopt_bfgs                          1  3.0    0.006    0.006    8.584    8.584
 cp_eval_at                          47  4.0    0.006    0.006    8.514    8.514
 qs_forces                           46  5.0    0.003    0.003    8.459    8.459
 build_tblite_matrices               93  7.0    4.114    4.114    4.149    4.149
 rebuild_ks_matrix                  453  9.7    0.001    0.001    3.224    3.224
 build_tblite_ks_matrix             453 10.7    3.219    3.219    3.224    3.224
 qs_ks_update_qs_env_forces          46  6.0    0.000    0.000    3.182    3.182
 qs_energies                         47  6.0    0.002    0.002    2.813    2.813
 qs_energies_init_hamiltonians       47  7.0    0.000    0.000    1.745    1.745
 scf_env_do_scf                      47  7.0    0.001    0.001    0.803    0.803
 scf_env_do_scf_inner_loop          407  8.0    0.027    0.027    0.800    0.800
 qs_scf_new_mos                     407  9.0    0.002    0.002    0.677    0.677
 cp_dbcsr_plus_fm_fm_t              499 10.8    0.004    0.004    0.328    0.328
 calculate_dm_sparse                453 10.0    0.002    0.002    0.302    0.302
 dbcsr_multiply_generic             719 12.0    0.016    0.016    0.297    0.297
 init_scf_run                        47  7.0    0.001    0.001    0.218    0.218
 copy_dbcsr_to_fm                  1034 10.6    0.008    0.008    0.212    0.212
 dbcsr_complete_redistribute       2252 12.2    0.120    0.120    0.206    0.206
 scf_env_initial_rho_setup           47  8.0    0.001    0.001    0.204    0.204
 wfi_extrapolate                     47  9.0    0.002    0.002    0.203    0.203
 -------------------------------------------------------------------------------

 The number of warnings for this run is : 0
 
 -------------------------------------------------------------------------------
  **** **** ******  **  PROGRAM ENDED AT                 2026-05-23 22:47:16.740
 ***** ** ***  *** **   PROGRAM RAN ON                                spark-c86c
 **    ****   ******    PROGRAM RAN BY                                  kuehne88
 ***** **    ** ** **   PROGRAM PROCESS ID                               2267387
  **** **  *******  **  PROGRAM STOPPED IN /home/kuehne88/periodic-gfn2-benchmar
                                           ks/X23b/runs/cellopt_gamma/GFN1/urea_
                                           GFN1_gamma_cellopt
