 DBCSR| CPU Multiplication driver                                           BLAS (U)
 DBCSR| Multrec recursion limit                                              512 (U)
 DBCSR| Multiplication stack size                                           1000 (D)
 DBCSR| Maximum elements for images                                    UNLIMITED (U)
 DBCSR| Multiplicative factor virtual images                                   1 (U)
 DBCSR| Use multiplication densification                                       T (D)
 DBCSR| Multiplication size stacks                                             3 (U)
 DBCSR| Use memory pool for CPU allocation                                     F (U)
 DBCSR| Number of 3D layers                                               SINGLE (U)
 DBCSR| Use MPI memory allocation                                              F (U)
 DBCSR| Use RMA algorithm                                                      F (U)
 DBCSR| Use Communication thread                                               T (U)
 DBCSR| Communication thread load                                             87 (D)
 DBCSR| MPI: My process id                                                     0
 DBCSR| MPI: Number of processes                                               1
 DBCSR| OMP: Current number of threads                                         1
 DBCSR| OMP: Max number of threads                                             1
 DBCSR| Split modifier for TAS multiplication algorithm                  1.0E+00 (U)


  **** **** ******  **  PROGRAM STARTED AT               2026-07-21 18:00:22.006
 ***** ** ***  *** **   PROGRAM STARTED ON                                 terok
 **    ****   ******    PROGRAM STARTED BY                              kuehne88
 ***** **    ** ** **   PROGRAM PROCESS ID                               1596714
  **** **  *******  **  PROGRAM STARTED IN /home/kuehne88/work/h2o-molecular-lim
                                           it-fix-20260721/stress/raw/H2O_stress
                                           _L30

 CP2K| version string:                 CP2K version 2026.2 (Development Version)
 CP2K| source code revision number:                                    8520b2e59
 CP2K| cp2kflags: omp parallel scalapack spglib s_dftd3 mctc-lib tblite tblite_g
 CP2K|            xtb
 CP2K| is freely available from                            https://www.cp2k.org/
 CP2K| Program compiled at                                   2026-07-18 23:48:15
 CP2K| Program compiled on                                                 terok
 CP2K| Program compiled for                                               x86_64
 CP2K| Data directory path                            /usr/local/share/cp2k/data
 CP2K| Input file name        /home/kuehne88/work/h2o-molecular-limit-fix-202607

 GLOBAL| Force Environment number                                              1
 GLOBAL| Basis set file name                                           BASIS_SET
 GLOBAL| Potential file name                                           POTENTIAL
 GLOBAL| MM Potential file name                                     MM_POTENTIAL
 GLOBAL| Coordinate file name                                      __STD_INPUT__
 GLOBAL| Method name                                                        CP2K
 GLOBAL| Project name                                             H2O_stress_L30
 GLOBAL| Run type                                                          DEBUG
 GLOBAL| FFT library                                                       FFTW3
 GLOBAL| Diagonalization library                                       ScaLAPACK
 GLOBAL| Cholesky decomposition library                                ScaLAPACK
 GLOBAL| DGEMM library                                                      BLAS
 GLOBAL| Direct generalized diagonalization requested                          F
 GLOBAL| Orthonormality check for eigenvectors                          DISABLED
 GLOBAL| Matrix multiplication library                                 ScaLAPACK
 GLOBAL| All-to-all communication in single precision                          F
 GLOBAL| FFTs using library dependent lengths                                  F
 GLOBAL| Grid backend                                                       AUTO
 GLOBAL| Global print level                                               MEDIUM
 GLOBAL| MPI I/O enabled                                                       T
 GLOBAL| Total number of message passing processes                             1
 GLOBAL| Number of distributed systems (nodes)                                 1
 GLOBAL| Number of threads for this process                                    1
 GLOBAL| This output is from process                                           0
 GLOBAL| OpenMP stack size per thread (OMP_STACKSIZE)                    default
 GLOBAL| CPU model name                                       AMD EPYC Processor
 GLOBAL| CPUID                                                              1002

 MEMORY| system memory details [Kb]
 MEMORY|                        rank 0           min           max       average
 MEMORY| MemTotal            528104804     528104804     528104804     528104804
 MEMORY| MemFree             507941932     507941932     507941932     507941932
 MEMORY| Buffers                    20            20            20            20
 MEMORY| Cached               15189756      15189756      15189756      15189756
 MEMORY| Slab                  2493796       2493796       2493796       2493796
 MEMORY| SReclaimable          1119956       1119956       1119956       1119956
 MEMORY| MemLikelyFree       524251664     524251664     524251664     524251664


 *** WARNING in environment.F:1098 :: FFT library FFTW3 is not available. ***
 *** Trying FFT library FFTSG.                                            ***


 *** Fundamental physical constants (SI units) ***

 *** Literature: B. J. Mohr and B. N. Taylor,
 ***             CODATA recommended values of the fundamental physical
 ***             constants: 2006, Web Version 5.1
 ***             http://physics.nist.gov/constants

 Speed of light in vacuum [m/s]                             2.99792458000000E+08
 Magnetic constant or permeability of vacuum [N/A**2]       1.25663706143592E-06
 Electric constant or permittivity of vacuum [F/m]          8.85418781762039E-12
 Planck constant (h) [J*s]                                  6.62606896000000E-34
 Planck constant (h-bar) [J*s]                              1.05457162825177E-34
 Elementary charge [C]                                      1.60217648700000E-19
 Electron mass [kg]                                         9.10938215000000E-31
 Electron g factor [ ]                                     -2.00231930436220E+00
 Proton mass [kg]                                           1.67262163700000E-27
 Fine-structure constant                                    7.29735253760000E-03
 Rydberg constant [1/m]                                     1.09737315685270E+07
 Avogadro constant [1/mol]                                  6.02214179000000E+23
 Boltzmann constant [J/K]                                   1.38065040000000E-23
 Atomic mass unit [kg]                                      1.66053878200000E-27
 Bohr radius [m]                                            5.29177208590000E-11

 *** Conversion factors ***

 [u] -> [a.u.]                                              1.82288848426455E+03
 [Angstrom] -> [Bohr] = [a.u.]                              1.88972613288564E+00
 [a.u.] = [Bohr] -> [Angstrom]                              5.29177208590000E-01
 [a.u.] -> [s]                                              2.41888432650478E-17
 [a.u.] -> [fs]                                             2.41888432650478E-02
 [a.u.] -> [J]                                              4.35974393937059E-18
 [a.u.] -> [N]                                              8.23872205491840E-08
 [a.u.] -> [K]                                              3.15774647902944E+05
 [a.u.] -> [kJ/mol]                                         2.62549961709828E+03
 [a.u.] -> [kcal/mol]                                       6.27509468713739E+02
 [a.u.] -> [Pa]                                             2.94210107994716E+13
 [a.u.] -> [bar]                                            2.94210107994716E+08
 [a.u.] -> [atm]                                            2.90362800883016E+08
 [a.u.] -> [eV]                                             2.72113838565563E+01
 [a.u.] -> [Hz]                                             6.57968392072181E+15
 [a.u.] -> [1/cm] (wave numbers)                            2.19474631370540E+05
 [a.u./Bohr**2] -> [1/cm]                                   5.14048714338585E+03
 

 CELL| Volume [angstrom^3]:                                         27000.000000
 CELL| Vector a [angstrom]:      30.000     0.000     0.000   |a| =    30.000000
 CELL| Vector b [angstrom]:       0.000    30.000     0.000   |b| =    30.000000
 CELL| Vector c [angstrom]:       0.000     0.000    30.000   |c| =    30.000000
 CELL| Angle (b,c), alpha [degree]:                                    90.000000
 CELL| Angle (a,c), beta  [degree]:                                    90.000000
 CELL| Angle (a,b), gamma [degree]:                                    90.000000
 CELL| Numerically orthorhombic:                                             YES
 CELL| Periodicity                                                           XYZ

 CELL_REF| Volume [angstrom^3]:                                     27000.000000
 CELL_REF| Vector a [angstrom    30.000     0.000     0.000   |a| =    30.000000
 CELL_REF| Vector b [angstrom     0.000    30.000     0.000   |b| =    30.000000
 CELL_REF| Vector c [angstrom     0.000     0.000    30.000   |c| =    30.000000
 CELL_REF| Angle (b,c), alpha [degree]:                                90.000000
 CELL_REF| Angle (a,c), beta  [degree]:                                90.000000
 CELL_REF| Angle (a,b), gamma [degree]:                                90.000000
 CELL_REF| Numerically orthorhombic:                                         YES
 CELL_REF| Periodicity                                                       XYZ

 GENERATE|  Preliminary Number of Bonds generated:                             0
 GENERATE|  Achieved consistency in connectivity generation.


                  #####   #####        #     #   #     #       #          
                 #     # #     #      #    ##### #     #   # #####  ####  
                 #     # #           #       #   ###   #       #   #    # 
                 #     #  #####     #        #   #  #  #   #   #   ###### 
                 #   # #       #   #         #   #   # #   #   #   #      
                 #    #  #     #  #          #   #  #  # # #   #    #   # 
                  #### #  #####  #           #   ###   ##  #   #     ###  

                                     g-xTB   
                                 Version 0.0                       
                            Johann V. Pototschnig                  

                tblite provider: SAVE
                tblite source revision: 15915c9435644eb257178ca8f8bf7220c38b1a84
                g-xTB support: enabled

 xTB| Parameter file                                             xTB1_parameters
 xTB| Basis expansion STO-NG                                                   6
 xTB| Basis expansion STO-NG for Hydrogen                                      4
 xTB| Repulsive pair potential accuracy                               0.1000E-09
 xTB| Repulsive enhancement factor                                      0.000000
 xTB| Halogen interaction potential                                            T
 xTB| Halogen interaction potential cutoff radius                         20.000
 xTB| Nonbonded interactions                                                   F
 xTB| vdW potential type:                                              DFTD3(BJ)
 xTB| D3 Dispersion: Parameter                                         dftd3.dat
 xTB| Huckel constants ks kp kd                        1.850     2.250     2.000
 xTB| Huckel constants ksp k2sh                                  2.080     2.850
 xTB| Mataga-Nishimoto exponent                                            2.000
 xTB| Repulsion potential exponent                                         1.500
 xTB| Coordination number scaling kcn(s) kcn(p) kc     0.006    -0.003    -0.005
 xTB| Electronegativity scaling                                           -0.007
 xTB| Halogen potential scaling kxr kx2                          1.300     0.440
 xTB| SCC mixer:                                                       TBLITE
 xTB| tblite accuracy:                                                 1.000E-01
 xTB| tblite SCC mixer damping:                                            0.400
 xTB| tblite SCC mixer iterations:                                           300
 xTB| tblite SCC mixer memory:                                               300
 xTB| tblite SCC mixer solver:                                         GVD
 xTB| tblite SCC mixer omega0:                                         1.000E-02
 xTB| tblite SCC mixer min weight:                                     1.000E+00
 xTB| tblite SCC mixer max weight:                                     1.000E+05
 xTB| tblite SCC mixer weight factor:                                  1.000E-02




 ATOMIC KIND INFORMATION

  1. Atomic kind: H                                     Number of atoms:       2

     Orbital Basis Set                                                 H _STO-8G

       Number of orbital shell sets:                                           1
       Number of orbital shells:                                               1
       Number of primitive Cartesian functions:                                8
       Number of Cartesian basis functions:                                    1
       Number of spherical basis functions:                                    1
       Norm type:                                                              3

       Normalised Cartesian orbitals:

                        Set   Shell   Orbital            Exponent    Coefficient

                          1       1    1s              337.005012       0.037374
                                                        53.310531       0.063272
                                                        12.208253       0.115774
                                                         3.418827       0.175156
                                                         1.108790       0.218995
                                                         0.478718       0.126311
                                                         0.212137       0.088533
                                                         0.069058       0.001978

     AE Potential information for                                       Hydrogen

       Description:                                       Bare Coulomb Potential
                                                              Full atomic charge

       Gaussian exponent of the core charge distribution:              12.500000
       Electronic configuration (s p d ...):                       1   0   0   0

  2. Atomic kind: O                                     Number of atoms:       1

     Orbital Basis Set                                                 O _STO-6G

       Number of orbital shell sets:                                           2
       Number of orbital shells:                                               2
       Number of primitive Cartesian functions:                               12
       Number of Cartesian basis functions:                                    4
       Number of spherical basis functions:                                    4
       Norm type:                                                              3

       Normalised Cartesian orbitals:

                        Set   Shell   Orbital            Exponent    Coefficient

                          1       1    1s                3.483595      -1.312778
                                                         2.859866       1.114640
                                                         0.740681       0.294469
                                                         0.344927       0.081374
                                                         0.261979       0.039450
                                                         0.094616       0.012404

                          2       1    2px              37.641471       1.473846
                                                         9.713089       1.793230
                                                         3.137177       1.302657
                                                         1.121381       0.632971
                                                         0.398078       0.183037
                                                         0.123048       0.019201
                          2       1    2py              37.641471       1.473846
                                                         9.713089       1.793230
                                                         3.137177       1.302657
                                                         1.121381       0.632971
                                                         0.398078       0.183037
                                                         0.123048       0.019201
                          2       1    2pz              37.641471       1.473846
                                                         9.713089       1.793230
                                                         3.137177       1.302657
                                                         1.121381       0.632971
                                                         0.398078       0.183037
                                                         0.123048       0.019201

     AE Potential information for                                         Oxygen

       Description:                                       Bare Coulomb Potential
                                                             Valence charge only

       Gaussian exponent of the core charge distribution:               3.753049
       Electronic configuration (s p d ...):                       2   4   0   0


 MOLECULE KIND INFORMATION


 All atoms are their own molecule, skipping detailed information


 TOTAL NUMBERS AND MAXIMUM NUMBERS

  Total number of            - Atomic kinds:                                   2
                             - Atoms:                                          3
                             - Shell sets:                                     4
                             - Shells:                                         4
                             - Primitive Cartesian functions:                 28
                             - Cartesian basis functions:                      6
                             - Spherical basis functions:                      6

  Maximum angular momentum of the orbital basis functions:                     1


 MODULE QUICKSTEP: ATOMIC COORDINATES IN ANGSTROM

   Atom Kind Element         X             Y             Z       Z(eff)     Mass
      1    1 H     1     -0.012165      0.000000     -0.932352   1.0000   1.0079
      2    1 H     1      0.875098      0.000000      0.321998   1.0000   1.0079
      3    2 O     8     -0.054364      0.000000      0.038451   6.0000  15.9994



 SCF PARAMETERS         Density guess:                                     MOPAC
                        --------------------------------------------------------
                        max_scf:                                             300
                        max_scf_history:                                       0
                        max_diis:                                              4
                        --------------------------------------------------------
                        eps_scf:                                        1.00E-10
                        eps_scf_history:                                0.00E+00
                        eps_diis:                                       1.00E-01
                        eps_eigval:                                     1.00E-05
                        --------------------------------------------------------
                        level_shift [a.u.]:                             0.000000
                        added MOs                                         2    0
                        --------------------------------------------------------
                        Mixing method:                           DIRECT_P_MIXING
                        --------------------------------------------------------
                        No outer SCF

 PW_GRID| Information for grid number                                          1
 PW_GRID| Cutoff [a.u.]                                                      1.0
 PW_GRID| spherical cutoff:                                                   NO
 PW_GRID|   Bounds   1            -12      12                Points:          25
 PW_GRID|   Bounds   2            -12      12                Points:          25
 PW_GRID|   Bounds   3            -12      12                Points:          25
 PW_GRID| Volume element (a.u.^3)   11.66         Volume (a.u.^3)    182205.0337
 PW_GRID| Grid span                                                    FULLSPACE

 POISSON| Solver                                                        PERIODIC
 POISSON| Periodicity                                                        XYZ

 RS_GRID| Information for grid number                                          1
 RS_GRID|   Bounds   1            -12      12                Points:          25
 RS_GRID|   Bounds   2            -12      12                Points:          25
 RS_GRID|   Bounds   3            -12      12                Points:          25

 Extrapolation method: initial_guess

 Number of electrons:                                                          8
 Number of occupied orbitals:                                                  4
 Number of molecular orbitals:                                                 6

 Number of orbital functions:                                                  6
 Number of independent orbital functions:                                      6


 SCF WAVEFUNCTION OPTIMIZATION

  Step     Update method      Time    Convergence         Total energy    Change
  ------------------------------------------------------------------------------
     1 GXTB-Raw    0.10E+01    0.0     0.73257926       -76.4105723716 -7.64E+01
     2 GXTB-Simple 0.20E+00    0.0     0.05394145       -76.4238893602 -1.33E-02
     3 GXTB-Simple 0.20E+00    0.0     0.03724416       -76.4305885806 -6.70E-03
     4 GXTB-FDIIS  0.10E+01    0.0     0.07303311       -76.4373978809 -6.81E-03
     5 GXTB-FDIIS  0.10E+01    0.0     0.00610161       -76.4374476436 -4.98E-05
     6 GXTB-FDIIS  0.10E+01    0.0     0.00107434       -76.4374481859 -5.42E-07
     7 GXTB-FDIIS  0.10E+01    0.0     0.00005978       -76.4374481878 -1.87E-09
     8 GXTB-FDIIS  0.10E+01    0.0     0.00000380       -76.4374481878 -8.84E-12
     9 GXTB-FDIIS  0.10E+01    0.0     0.00000007       -76.4374481878 -1.42E-14
    10 GXTB-FDIIS  0.10E+01    0.0     0.00000022       -76.4374481878 -2.84E-14
    11 GXTB-FDIIS  0.10E+01    0.0     8.4993E-11       -76.4374481878  1.42E-14

  *** SCF run converged in    11 steps ***


  Core Hamiltonian energy:                                     -6.22699960086886
  Repulsive potential energy:                                   0.31827219640624
  Electrostatic energy:                                         0.14235773861657
  Self-consistent dispersion energy:                           -0.00004481969343
  Non-self consistent dispersion energy:                        0.00000029898137
  Correction for halogen bonding:                               0.00000000000000

  Total energy:                                               -76.43744818779651


 MULLIKEN POPULATION ANALYSIS

  # Atom   Element   Kind        Atomic population                    Net charge
       1     H          1                 0.685449                      0.314551
       2     H          1                 0.685451                      0.314549
       3     O          2                 6.629100                     -0.629100
 # Total charge                           8.000000                      0.000000


 tblite reference CLI check
 Executable: tblite
 Method:     gxtb
 Guess:      auto
 Solver:     gvd
 Spin-pol.:  F
 Grad file:  H2O_stress_L30_cli.grad
 JSON file:  H2O_stress_L30_cli.json
 Log file:   H2O_stress_L30_cli.log
 Energy CP2K/CLI/absdiff:   -7.643744818780E+01   -7.643744818794E+01    1.395505933033E-10
 Gradient diff sum/max:    1.321193687255E-07    3.683188283012E-08
 Virial diff sum/max:    1.149884085974E-07    5.538361061430E-08

 ENERGY| Total FORCE_EVAL ( QS ) energy [hartree]            -76.437448187796505

 -------------------------------------------------------------------------------
 ----                             MULTIGRID INFO                            ----
 -------------------------------------------------------------------------------
 total grid count     :           420              cutoff [a.u.]            1.00

 PW_GRID| Information for grid number                                          2
 PW_GRID| Cutoff [a.u.]                                                      1.0
 PW_GRID| spherical cutoff:                                                   NO
 PW_GRID|   Bounds   1            -12      12                Points:          25
 PW_GRID|   Bounds   2            -12      12                Points:          25
 PW_GRID|   Bounds   3            -12      12                Points:          25
 PW_GRID| Volume element (a.u.^3)   11.66         Volume (a.u.^3)    182205.3551
 PW_GRID| Grid span                                                    FULLSPACE

 POISSON| Solver                                                        PERIODIC
 POISSON| Periodicity                                                        XYZ

 RS_GRID| Information for grid number                                          2
 RS_GRID|   Bounds   1            -12      12                Points:          25
 RS_GRID|   Bounds   2            -12      12                Points:          25
 RS_GRID|   Bounds   3            -12      12                Points:          25

 Parameters for the always stable predictor-corrector (ASPC) method:

  ASPC order: 0

  B(1) =   1.000000

 Extrapolation method: ASPC

 Number of electrons:                                                          8
 Number of occupied orbitals:                                                  4
 Number of molecular orbitals:                                                 6

 Number of orbital functions:                                                  6
 Number of independent orbital functions:                                      6


 SCF WAVEFUNCTION OPTIMIZATION

  Step     Update method      Time    Convergence         Total energy    Change
  ------------------------------------------------------------------------------
     1 GXTB-Raw    0.10E+01    0.0     0.00000061       -76.4374481595 -7.64E+01
     2 GXTB-Simple 0.20E+00    0.0     0.00000013       -76.4374481595 -4.26E-14
     3 GXTB-Simple 0.20E+00    0.0     0.00000010       -76.4374481595 -5.68E-14
     4 GXTB-FDIIS  0.10E+01    0.0     0.00000049       -76.4374481595 -7.11E-14
     5 GXTB-FDIIS  0.10E+01    0.0     0.00000002       -76.4374481595  1.42E-14
     6 GXTB-FDIIS  0.10E+01    0.0     0.00000001       -76.4374481595  0.00E+00
     7 GXTB-FDIIS  0.10E+01    0.0     3.9535E-10       -76.4374481595 -1.42E-14
     8 GXTB-FDIIS  0.10E+01    0.0     4.4174E-11       -76.4374481595  1.42E-14

  *** SCF run converged in     8 steps ***


  Core Hamiltonian energy:                                     -6.22699848708571
  Repulsive potential energy:                                   0.31827113543057
  Electrostatic energy:                                         0.14235774317947
  Self-consistent dispersion energy:                           -0.00004481978754
  Non-self consistent dispersion energy:                        0.00000029898284
  Correction for halogen bonding:                               0.00000000000000

  Total energy:                                               -76.43744815951109


 MULLIKEN POPULATION ANALYSIS

  # Atom   Element   Kind        Atomic population                    Net charge
       1     H          1                 0.685449                      0.314551
       2     H          1                 0.685451                      0.314549
       3     O          2                 6.629100                     -0.629100
 # Total charge                           8.000000                      0.000000


 tblite reference CLI check
 Executable: tblite
 Method:     gxtb
 Guess:      auto
 Solver:     gvd
 Spin-pol.:  F
 Grad file:  H2O_stress_L30_cli.grad
 JSON file:  H2O_stress_L30_cli.json
 Log file:   H2O_stress_L30_cli.log
 Energy CP2K/CLI/absdiff:   -7.643744815951E+01   -7.643744815965E+01    1.395648041580E-10
 Gradient diff sum/max:    3.273785075478E-06    1.233161380464E-06
 Virial diff sum/max:    3.278865563742E-02    1.603658837002E-02
 tblite reference CLI deviation exceeded ERROR_LIMIT =   1.0000E-05

 ENERGY| Total FORCE_EVAL ( QS ) energy [hartree]            -76.437448159511092

 -------------------------------------------------------------------------------
 ----                             MULTIGRID INFO                            ----
 -------------------------------------------------------------------------------
 total grid count     :           420              cutoff [a.u.]            1.00

 PW_GRID| Information for grid number                                          3
 PW_GRID| Cutoff [a.u.]                                                      1.0
 PW_GRID| spherical cutoff:                                                   NO
 PW_GRID|   Bounds   1            -12      12                Points:          25
 PW_GRID|   Bounds   2            -12      12                Points:          25
 PW_GRID|   Bounds   3            -12      12                Points:          25
 PW_GRID| Volume element (a.u.^3)   11.66         Volume (a.u.^3)    182204.7123
 PW_GRID| Grid span                                                    FULLSPACE

 POISSON| Solver                                                        PERIODIC
 POISSON| Periodicity                                                        XYZ

 RS_GRID| Information for grid number                                          3
 RS_GRID|   Bounds   1            -12      12                Points:          25
 RS_GRID|   Bounds   2            -12      12                Points:          25
 RS_GRID|   Bounds   3            -12      12                Points:          25

 Parameters for the always stable predictor-corrector (ASPC) method:

  ASPC order: 0

  B(1) =   2.000000
  B(2) =  -1.000000

 Extrapolation method: ASPC

 Number of electrons:                                                          8
 Number of occupied orbitals:                                                  4
 Number of molecular orbitals:                                                 6

 Number of orbital functions:                                                  6
 Number of independent orbital functions:                                      6


 SCF WAVEFUNCTION OPTIMIZATION

  Step     Update method      Time    Convergence         Total energy    Change
  ------------------------------------------------------------------------------
     1 GXTB-Raw    0.10E+01    0.0     0.00000123       -76.4374482161 -7.64E+01
     2 GXTB-Simple 0.20E+00    0.0     0.00000025       -76.4374482161 -2.27E-13
     3 GXTB-Simple 0.20E+00    0.0     0.00000021       -76.4374482161 -1.28E-13
     4 GXTB-FDIIS  0.10E+01    0.0     0.00000097       -76.4374482161 -3.13E-13
     5 GXTB-FDIIS  0.10E+01    0.0     0.00000004       -76.4374482161  1.42E-14
     6 GXTB-FDIIS  0.10E+01    0.0     0.00000003       -76.4374482161  0.00E+00
     7 GXTB-FDIIS  0.10E+01    0.0     7.9069E-10       -76.4374482161 -1.42E-14
     8 GXTB-FDIIS  0.10E+01    0.0     8.8348E-11       -76.4374482161  0.00E+00

  *** SCF run converged in     8 steps ***


  Core Hamiltonian energy:                                     -6.22700071466127
  Repulsive potential energy:                                   0.31827325738816
  Electrostatic energy:                                         0.14235773405809
  Self-consistent dispersion energy:                           -0.00004481959933
  Non-self consistent dispersion energy:                        0.00000029897991
  Correction for halogen bonding:                               0.00000000000000

  Total energy:                                               -76.43744821607804


 MULLIKEN POPULATION ANALYSIS

  # Atom   Element   Kind        Atomic population                    Net charge
       1     H          1                 0.685449                      0.314551
       2     H          1                 0.685451                      0.314549
       3     O          2                 6.629101                     -0.629101
 # Total charge                           8.000000                     -0.000000


 tblite reference CLI check
 Executable: tblite
 Method:     gxtb
 Guess:      auto
 Solver:     gvd
 Spin-pol.:  F
 Grad file:  H2O_stress_L30_cli.grad
 JSON file:  H2O_stress_L30_cli.json
 Log file:   H2O_stress_L30_cli.log
 Energy CP2K/CLI/absdiff:   -7.643744821608E+01   -7.643744821622E+01    1.395221715939E-10
 Gradient diff sum/max:    3.370046441898E-06    1.306836581066E-06
 Virial diff sum/max:    3.278641871332E-02    1.603211099780E-02
 tblite reference CLI deviation exceeded ERROR_LIMIT =   1.0000E-05

 ENERGY| Total FORCE_EVAL ( QS ) energy [hartree]            -76.437448216078039

 -------------------------------------------------------------------------------
 ----                             MULTIGRID INFO                            ----
 -------------------------------------------------------------------------------
 total grid count     :           420              cutoff [a.u.]            1.00

 PW_GRID| Information for grid number                                          4
 PW_GRID| Cutoff [a.u.]                                                      1.0
 PW_GRID| spherical cutoff:                                                   NO
 PW_GRID|   Bounds   1            -12      12                Points:          25
 PW_GRID|   Bounds   2            -12      12                Points:          25
 PW_GRID|   Bounds   3            -12      12                Points:          25
 PW_GRID| Volume element (a.u.^3)   11.66         Volume (a.u.^3)    182205.0337
 PW_GRID| Grid span                                                    FULLSPACE

 POISSON| Solver                                                        PERIODIC
 POISSON| Periodicity                                                        XYZ

 RS_GRID| Information for grid number                                          4
 RS_GRID|   Bounds   1            -12      12                Points:          25
 RS_GRID|   Bounds   2            -12      12                Points:          25
 RS_GRID|   Bounds   3            -12      12                Points:          25

 Parameters for the always stable predictor-corrector (ASPC) method:

  ASPC order: 1

  B(1) =   2.500000
  B(2) =  -2.000000
  B(3) =   0.500000

 Extrapolation method: ASPC

 Number of electrons:                                                          8
 Number of occupied orbitals:                                                  4
 Number of molecular orbitals:                                                 6

 Number of orbital functions:                                                  6
 Number of independent orbital functions:                                      6


 SCF WAVEFUNCTION OPTIMIZATION

  Step     Update method      Time    Convergence         Total energy    Change
  ------------------------------------------------------------------------------
     1 GXTB-Raw    0.10E+01    0.0     0.00000061       -76.4374481878 -7.64E+01
     2 GXTB-Simple 0.20E+00    0.0     0.00000013       -76.4374481878 -5.68E-14
     3 GXTB-Simple 0.20E+00    0.0     0.00000010       -76.4374481878 -2.84E-14
     4 GXTB-FDIIS  0.10E+01    0.0     0.00000049       -76.4374481878 -8.53E-14
     5 GXTB-FDIIS  0.10E+01    0.0     0.00000002       -76.4374481878  1.42E-14
     6 GXTB-FDIIS  0.10E+01    0.0     0.00000001       -76.4374481878  0.00E+00
     7 GXTB-FDIIS  0.10E+01    0.0     3.9535E-10       -76.4374481878 -1.42E-14
     8 GXTB-FDIIS  0.10E+01    0.0     4.4175E-11       -76.4374481878  1.42E-14

  *** SCF run converged in     8 steps ***


  Core Hamiltonian energy:                                     -6.22699960087243
  Repulsive potential energy:                                   0.31827219640621
  Electrostatic energy:                                         0.14235773861868
  Self-consistent dispersion energy:                           -0.00004481969343
  Non-self consistent dispersion energy:                        0.00000029898137
  Correction for halogen bonding:                               0.00000000000000

  Total energy:                                               -76.43744818779651


 MULLIKEN POPULATION ANALYSIS

  # Atom   Element   Kind        Atomic population                    Net charge
       1     H          1                 0.685449                      0.314551
       2     H          1                 0.685451                      0.314549
       3     O          2                 6.629100                     -0.629100
 # Total charge                           8.000000                      0.000000


 tblite reference CLI check
 Executable: tblite
 Method:     gxtb
 Guess:      auto
 Solver:     gvd
 Spin-pol.:  F
 Grad file:  H2O_stress_L30_cli.grad
 JSON file:  H2O_stress_L30_cli.json
 Log file:   H2O_stress_L30_cli.log
 Energy CP2K/CLI/absdiff:   -7.643744818780E+01   -7.643744818794E+01    1.395648041580E-10
 Gradient diff sum/max:    1.321383673212E-07    3.683188177020E-08
 Virial diff sum/max:    3.278753787865E-02    1.603434969952E-02
 tblite reference CLI deviation exceeded ERROR_LIMIT =   1.0000E-05

 ENERGY| Total FORCE_EVAL ( QS ) energy [hartree]            -76.437448187796505

 -------------------------------------------------------------------------------
 ----                             MULTIGRID INFO                            ----
 -------------------------------------------------------------------------------
 total grid count     :           420              cutoff [a.u.]            1.00

 PW_GRID| Information for grid number                                          5
 PW_GRID| Cutoff [a.u.]                                                      1.0
 PW_GRID| spherical cutoff:                                                   NO
 PW_GRID|   Bounds   1            -12      12                Points:          25
 PW_GRID|   Bounds   2            -12      12                Points:          25
 PW_GRID|   Bounds   3            -12      12                Points:          25
 PW_GRID| Volume element (a.u.^3)   11.66         Volume (a.u.^3)    182205.0337
 PW_GRID| Grid span                                                    FULLSPACE

 POISSON| Solver                                                        PERIODIC
 POISSON| Periodicity                                                        XYZ

 RS_GRID| Information for grid number                                          5
 RS_GRID|   Bounds   1            -12      12                Points:          25
 RS_GRID|   Bounds   2            -12      12                Points:          25
 RS_GRID|   Bounds   3            -12      12                Points:          25

 Parameters for the always stable predictor-corrector (ASPC) method:

  ASPC order: 2

  B(1) =   2.800000
  B(2) =  -2.800000
  B(3) =   1.200000
  B(4) =  -0.200000

 Extrapolation method: ASPC

 Number of electrons:                                                          8
 Number of occupied orbitals:                                                  4
 Number of molecular orbitals:                                                 6

 Number of orbital functions:                                                  6
 Number of independent orbital functions:                                      6


 SCF WAVEFUNCTION OPTIMIZATION

  Step     Update method      Time    Convergence         Total energy    Change
  ------------------------------------------------------------------------------
     1 GXTB-Raw    0.10E+01    0.0     1.6388E-11       -76.4374481878 -7.64E+01

  *** SCF run converged in     1 steps ***


  Core Hamiltonian energy:                                     -6.22699960087246
  Repulsive potential energy:                                   0.31827219640621
  Electrostatic energy:                                         0.14235773861869
  Self-consistent dispersion energy:                           -0.00004481969343
  Non-self consistent dispersion energy:                        0.00000029898137
  Correction for halogen bonding:                               0.00000000000000

  Total energy:                                               -76.43744818779651


 MULLIKEN POPULATION ANALYSIS

  # Atom   Element   Kind        Atomic population                    Net charge
       1     H          1                 0.685449                      0.314551
       2     H          1                 0.685451                      0.314549
       3     O          2                 6.629100                     -0.629100
 # Total charge                           8.000000                      0.000000


 tblite reference CLI check
 Executable: tblite
 Method:     gxtb
 Guess:      auto
 Solver:     gvd
 Spin-pol.:  F
 Grad file:  H2O_stress_L30_cli.grad
 JSON file:  H2O_stress_L30_cli.json
 Log file:   H2O_stress_L30_cli.log
 Energy CP2K/CLI/absdiff:   -7.643744818780E+01   -7.643744818794E+01    1.395648041580E-10
 Gradient diff sum/max:    1.321383672219E-07    3.683188177020E-08
 Virial diff sum/max:    3.278753787865E-02    1.603434969952E-02
 tblite reference CLI deviation exceeded ERROR_LIMIT =   1.0000E-05

 ENERGY| Total FORCE_EVAL ( QS ) energy [hartree]            -76.437448187796505

 -------------------------------------------------------------------------------
 ----                             MULTIGRID INFO                            ----
 -------------------------------------------------------------------------------
 total grid count     :           420              cutoff [a.u.]            1.00

 PW_GRID| Information for grid number                                          6
 PW_GRID| Cutoff [a.u.]                                                      1.0
 PW_GRID| spherical cutoff:                                                   NO
 PW_GRID|   Bounds   1            -12      12                Points:          25
 PW_GRID|   Bounds   2            -12      12                Points:          25
 PW_GRID|   Bounds   3            -12      12                Points:          25
 PW_GRID| Volume element (a.u.^3)   11.66         Volume (a.u.^3)    182205.0337
 PW_GRID| Grid span                                                    FULLSPACE

 POISSON| Solver                                                        PERIODIC
 POISSON| Periodicity                                                        XYZ

 RS_GRID| Information for grid number                                          6
 RS_GRID|   Bounds   1            -12      12                Points:          25
 RS_GRID|   Bounds   2            -12      12                Points:          25
 RS_GRID|   Bounds   3            -12      12                Points:          25

 Parameters for the always stable predictor-corrector (ASPC) method:

  ASPC order: 3

  B(1) =   3.000000
  B(2) =  -3.428571
  B(3) =   1.928571
  B(4) =  -0.571429
  B(5) =   0.071429

 Extrapolation method: ASPC

 Number of electrons:                                                          8
 Number of occupied orbitals:                                                  4
 Number of molecular orbitals:                                                 6

 Number of orbital functions:                                                  6
 Number of independent orbital functions:                                      6


 SCF WAVEFUNCTION OPTIMIZATION

  Step     Update method      Time    Convergence         Total energy    Change
  ------------------------------------------------------------------------------
     1 GXTB-Raw    0.10E+01    0.0     0.00000027       -76.4374481886 -7.64E+01
     2 GXTB-Simple 0.20E+00    0.0     0.00000009       -76.4374481886 -2.84E-14
     3 GXTB-Simple 0.20E+00    0.0     0.00000008       -76.4374481886 -2.84E-14
     4 GXTB-FDIIS  0.10E+01    0.0     0.00000039       -76.4374481886 -5.68E-14
     5 GXTB-FDIIS  0.10E+01    0.0     0.00000002       -76.4374481886  0.00E+00
     6 GXTB-FDIIS  0.10E+01    0.0     2.3363E-09       -76.4374481886  0.00E+00
     7 GXTB-FDIIS  0.10E+01    0.0     3.0178E-10       -76.4374481886  0.00E+00
     8 GXTB-FDIIS  0.10E+01    0.0     2.8921E-11       -76.4374481886  0.00E+00

  *** SCF run converged in     8 steps ***


  Core Hamiltonian energy:                                     -6.22699942441187
  Repulsive potential energy:                                   0.31827191061720
  Electrostatic energy:                                         0.14235777605825
  Self-consistent dispersion energy:                           -0.00004481975108
  Non-self consistent dispersion energy:                        0.00000029898001
  Correction for halogen bonding:                               0.00000000000000

  Total energy:                                               -76.43744818857382


 MULLIKEN POPULATION ANALYSIS

  # Atom   Element   Kind        Atomic population                    Net charge
       1     H          1                 0.685449                      0.314551
       2     H          1                 0.685451                      0.314549
       3     O          2                 6.629100                     -0.629100
 # Total charge                           8.000000                     -0.000000


 tblite reference CLI check
 Executable: tblite
 Method:     gxtb
 Guess:      auto
 Solver:     gvd
 Spin-pol.:  F
 Grad file:  H2O_stress_L30_cli.grad
 JSON file:  H2O_stress_L30_cli.json
 Log file:   H2O_stress_L30_cli.log
 Energy CP2K/CLI/absdiff:   -7.643744818857E+01   -7.643744818871E+01    1.395505933033E-10
 Gradient diff sum/max:    1.314817711000E-06    3.521187977740E-07
 Virial diff sum/max:    3.278731779090E-02    1.603500697832E-02
 tblite reference CLI deviation exceeded ERROR_LIMIT =   1.0000E-05

 ENERGY| Total FORCE_EVAL ( QS ) energy [hartree]            -76.437448188573825

 -------------------------------------------------------------------------------
 ----                             MULTIGRID INFO                            ----
 -------------------------------------------------------------------------------
 total grid count     :           420              cutoff [a.u.]            1.00

 PW_GRID| Information for grid number                                          7
 PW_GRID| Cutoff [a.u.]                                                      1.0
 PW_GRID| spherical cutoff:                                                   NO
 PW_GRID|   Bounds   1            -12      12                Points:          25
 PW_GRID|   Bounds   2            -12      12                Points:          25
 PW_GRID|   Bounds   3            -12      12                Points:          25
 PW_GRID| Volume element (a.u.^3)   11.66         Volume (a.u.^3)    182205.0337
 PW_GRID| Grid span                                                    FULLSPACE

 POISSON| Solver                                                        PERIODIC
 POISSON| Periodicity                                                        XYZ

 RS_GRID| Information for grid number                                          7
 RS_GRID|   Bounds   1            -12      12                Points:          25
 RS_GRID|   Bounds   2            -12      12                Points:          25
 RS_GRID|   Bounds   3            -12      12                Points:          25

 Parameters for the always stable predictor-corrector (ASPC) method:

  ASPC order: 3

  B(1) =   3.000000
  B(2) =  -3.428571
  B(3) =   1.928571
  B(4) =  -0.571429
  B(5) =   0.071429

 Extrapolation method: ASPC

 Number of electrons:                                                          8
 Number of occupied orbitals:                                                  4
 Number of molecular orbitals:                                                 6

 Number of orbital functions:                                                  6
 Number of independent orbital functions:                                      6


 SCF WAVEFUNCTION OPTIMIZATION

  Step     Update method      Time    Convergence         Total energy    Change
  ------------------------------------------------------------------------------
     1 GXTB-Raw    0.10E+01    0.0     0.00000054       -76.4374481870 -7.64E+01
     2 GXTB-Simple 0.20E+00    0.0     0.00000019       -76.4374481870 -1.42E-13
     3 GXTB-Simple 0.20E+00    0.0     0.00000016       -76.4374481870 -9.95E-14
     4 GXTB-FDIIS  0.10E+01    0.0     0.00000078       -76.4374481870 -2.42E-13
     5 GXTB-FDIIS  0.10E+01    0.0     0.00000003       -76.4374481870  1.42E-14
     6 GXTB-FDIIS  0.10E+01    0.0     4.6725E-09       -76.4374481870 -1.42E-14
     7 GXTB-FDIIS  0.10E+01    0.0     6.0356E-10       -76.4374481870  1.42E-14
     8 GXTB-FDIIS  0.10E+01    0.0     5.7842E-11       -76.4374481870 -1.42E-14

  *** SCF run converged in     8 steps ***


  Core Hamiltonian energy:                                     -6.22699977733108
  Repulsive potential energy:                                   0.31827248219388
  Electrostatic energy:                                         0.14235770117949
  Self-consistent dispersion energy:                           -0.00004481963579
  Non-self consistent dispersion energy:                        0.00000029898273
  Correction for halogen bonding:                               0.00000000000000

  Total energy:                                               -76.43744818701833


 MULLIKEN POPULATION ANALYSIS

  # Atom   Element   Kind        Atomic population                    Net charge
       1     H          1                 0.685449                      0.314551
       2     H          1                 0.685451                      0.314549
       3     O          2                 6.629100                     -0.629100
 # Total charge                           8.000000                      0.000000


 tblite reference CLI check
 Executable: tblite
 Method:     gxtb
 Guess:      auto
 Solver:     gvd
 Spin-pol.:  F
 Grad file:  H2O_stress_L30_cli.grad
 JSON file:  H2O_stress_L30_cli.json
 Log file:   H2O_stress_L30_cli.log
 Energy CP2K/CLI/absdiff:   -7.643744818702E+01   -7.643744818716E+01    1.395363824486E-10
 Gradient diff sum/max:    1.368540101967E-06    4.118707902703E-07
 Virial diff sum/max:    3.278775656706E-02    1.603369242061E-02
 tblite reference CLI deviation exceeded ERROR_LIMIT =   1.0000E-05

 ENERGY| Total FORCE_EVAL ( QS ) energy [hartree]            -76.437448187018333

 -------------------------------------------------------------------------------
 ----                             MULTIGRID INFO                            ----
 -------------------------------------------------------------------------------
 total grid count     :           420              cutoff [a.u.]            1.00

 PW_GRID| Information for grid number                                          8
 PW_GRID| Cutoff [a.u.]                                                      1.0
 PW_GRID| spherical cutoff:                                                   NO
 PW_GRID|   Bounds   1            -12      12                Points:          25
 PW_GRID|   Bounds   2            -12      12                Points:          25
 PW_GRID|   Bounds   3            -12      12                Points:          25
 PW_GRID| Volume element (a.u.^3)   11.66         Volume (a.u.^3)    182205.0337
 PW_GRID| Grid span                                                    FULLSPACE

 POISSON| Solver                                                        PERIODIC
 POISSON| Periodicity                                                        XYZ

 RS_GRID| Information for grid number                                          8
 RS_GRID|   Bounds   1            -12      12                Points:          25
 RS_GRID|   Bounds   2            -12      12                Points:          25
 RS_GRID|   Bounds   3            -12      12                Points:          25

 Parameters for the always stable predictor-corrector (ASPC) method:

  ASPC order: 3

  B(1) =   3.000000
  B(2) =  -3.428571
  B(3) =   1.928571
  B(4) =  -0.571429
  B(5) =   0.071429

 Extrapolation method: ASPC

 Number of electrons:                                                          8
 Number of occupied orbitals:                                                  4
 Number of molecular orbitals:                                                 6

 Number of orbital functions:                                                  6
 Number of independent orbital functions:                                      6


 SCF WAVEFUNCTION OPTIMIZATION

  Step     Update method      Time    Convergence         Total energy    Change
  ------------------------------------------------------------------------------
     1 GXTB-Raw    0.10E+01    0.0     0.00000039       -76.4374481878 -7.64E+01
     2 GXTB-Simple 0.20E+00    0.0     0.00000015       -76.4374481878 -8.53E-14
     3 GXTB-Simple 0.20E+00    0.0     0.00000013       -76.4374481878 -5.68E-14
     4 GXTB-FDIIS  0.10E+01    0.0     0.00000067       -76.4374481878 -1.71E-13
     5 GXTB-FDIIS  0.10E+01    0.0     0.00000003       -76.4374481878  1.42E-14
     6 GXTB-FDIIS  0.10E+01    0.0     2.5366E-09       -76.4374481878  0.00E+00
     7 GXTB-FDIIS  0.10E+01    0.0     2.7023E-10       -76.4374481878  0.00E+00
     8 GXTB-FDIIS  0.10E+01    0.0     8.8918E-11       -76.4374481878  0.00E+00

  *** SCF run converged in     8 steps ***


  Core Hamiltonian energy:                                     -6.22699960087128
  Repulsive potential energy:                                   0.31827219640530
  Electrostatic energy:                                         0.14235773861745
  Self-consistent dispersion energy:                           -0.00004481969343
  Non-self consistent dispersion energy:                        0.00000029898137
  Correction for halogen bonding:                               0.00000000000000

  Total energy:                                               -76.43744818779649


 MULLIKEN POPULATION ANALYSIS

  # Atom   Element   Kind        Atomic population                    Net charge
       1     H          1                 0.685449                      0.314551
       2     H          1                 0.685451                      0.314549
       3     O          2                 6.629100                     -0.629100
 # Total charge                           8.000000                     -0.000000


 tblite reference CLI check
 Executable: tblite
 Method:     gxtb
 Guess:      auto
 Solver:     gvd
 Spin-pol.:  F
 Grad file:  H2O_stress_L30_cli.grad
 JSON file:  H2O_stress_L30_cli.json
 Log file:   H2O_stress_L30_cli.log
 Energy CP2K/CLI/absdiff:   -7.643744818780E+01   -7.643744818794E+01    1.395505933033E-10
 Gradient diff sum/max:    1.733784102088E-07    3.683078494271E-08
 Virial diff sum/max:    3.278759524963E-02    1.603434970144E-02
 tblite reference CLI deviation exceeded ERROR_LIMIT =   1.0000E-05

 ENERGY| Total FORCE_EVAL ( QS ) energy [hartree]            -76.437448187796491

 -------------------------------------------------------------------------------
 ----                             MULTIGRID INFO                            ----
 -------------------------------------------------------------------------------
 total grid count     :           420              cutoff [a.u.]            1.00

 PW_GRID| Information for grid number                                          9
 PW_GRID| Cutoff [a.u.]                                                      1.0
 PW_GRID| spherical cutoff:                                                   NO
 PW_GRID|   Bounds   1            -12      12                Points:          25
 PW_GRID|   Bounds   2            -12      12                Points:          25
 PW_GRID|   Bounds   3            -12      12                Points:          25
 PW_GRID| Volume element (a.u.^3)   11.66         Volume (a.u.^3)    182205.0337
 PW_GRID| Grid span                                                    FULLSPACE

 POISSON| Solver                                                        PERIODIC
 POISSON| Periodicity                                                        XYZ

 RS_GRID| Information for grid number                                          9
 RS_GRID|   Bounds   1            -12      12                Points:          25
 RS_GRID|   Bounds   2            -12      12                Points:          25
 RS_GRID|   Bounds   3            -12      12                Points:          25

 Parameters for the always stable predictor-corrector (ASPC) method:

  ASPC order: 3

  B(1) =   3.000000
  B(2) =  -3.428571
  B(3) =   1.928571
  B(4) =  -0.571429
  B(5) =   0.071429

 Extrapolation method: ASPC

 Number of electrons:                                                          8
 Number of occupied orbitals:                                                  4
 Number of molecular orbitals:                                                 6

 Number of orbital functions:                                                  6
 Number of independent orbital functions:                                      6


 SCF WAVEFUNCTION OPTIMIZATION

  Step     Update method      Time    Convergence         Total energy    Change
  ------------------------------------------------------------------------------
     1 GXTB-Raw    0.10E+01    0.0     0.00000078       -76.4374481878 -7.64E+01
     2 GXTB-Simple 0.20E+00    0.0     0.00000031       -76.4374481878 -1.99E-13
     3 GXTB-Simple 0.20E+00    0.0     0.00000026       -76.4374481878 -1.42E-13
     4 GXTB-FDIIS  0.10E+01    0.0     0.00000136       -76.4374481878 -3.69E-13
     5 GXTB-FDIIS  0.10E+01    0.0     0.00000005       -76.4374481878  0.00E+00
     6 GXTB-FDIIS  0.10E+01    0.0     1.2311E-09       -76.4374481878 -1.42E-14
     7 GXTB-FDIIS  0.10E+01    0.0     8.0824E-14       -76.4374481878  1.42E-14

  *** SCF run converged in     7 steps ***


  Core Hamiltonian energy:                                     -6.22699960087148
  Repulsive potential energy:                                   0.31827219640528
  Electrostatic energy:                                         0.14235773861869
  Self-consistent dispersion energy:                           -0.00004481969343
  Non-self consistent dispersion energy:                        0.00000029898137
  Correction for halogen bonding:                               0.00000000000000

  Total energy:                                               -76.43744818779649


 MULLIKEN POPULATION ANALYSIS

  # Atom   Element   Kind        Atomic population                    Net charge
       1     H          1                 0.685449                      0.314551
       2     H          1                 0.685451                      0.314549
       3     O          2                 6.629100                     -0.629100
 # Total charge                           8.000000                     -0.000000


 tblite reference CLI check
 Executable: tblite
 Method:     gxtb
 Guess:      auto
 Solver:     gvd
 Spin-pol.:  F
 Grad file:  H2O_stress_L30_cli.grad
 JSON file:  H2O_stress_L30_cli.json
 Log file:   H2O_stress_L30_cli.log
 Energy CP2K/CLI/absdiff:   -7.643744818780E+01   -7.643744818794E+01    1.395505933033E-10
 Gradient diff sum/max:    1.733784103081E-07    3.683078494271E-08
 Virial diff sum/max:    3.278759524963E-02    1.603434970144E-02
 tblite reference CLI deviation exceeded ERROR_LIMIT =   1.0000E-05

 ENERGY| Total FORCE_EVAL ( QS ) energy [hartree]            -76.437448187796491

 -------------------------------------------------------------------------------
 ----                             MULTIGRID INFO                            ----
 -------------------------------------------------------------------------------
 total grid count     :           420              cutoff [a.u.]            1.00

 PW_GRID| Information for grid number                                         10
 PW_GRID| Cutoff [a.u.]                                                      1.0
 PW_GRID| spherical cutoff:                                                   NO
 PW_GRID|   Bounds   1            -12      12                Points:          25
 PW_GRID|   Bounds   2            -12      12                Points:          25
 PW_GRID|   Bounds   3            -12      12                Points:          25
 PW_GRID| Volume element (a.u.^3)   11.66         Volume (a.u.^3)    182205.3551
 PW_GRID| Grid span                                                    FULLSPACE

 POISSON| Solver                                                        PERIODIC
 POISSON| Periodicity                                                        XYZ

 RS_GRID| Information for grid number                                         10
 RS_GRID|   Bounds   1            -12      12                Points:          25
 RS_GRID|   Bounds   2            -12      12                Points:          25
 RS_GRID|   Bounds   3            -12      12                Points:          25

 Parameters for the always stable predictor-corrector (ASPC) method:

  ASPC order: 3

  B(1) =   3.000000
  B(2) =  -3.428571
  B(3) =   1.928571
  B(4) =  -0.571429
  B(5) =   0.071429

 Extrapolation method: ASPC

 Number of electrons:                                                          8
 Number of occupied orbitals:                                                  4
 Number of molecular orbitals:                                                 6

 Number of orbital functions:                                                  6
 Number of independent orbital functions:                                      6


 SCF WAVEFUNCTION OPTIMIZATION

  Step     Update method      Time    Convergence         Total energy    Change
  ------------------------------------------------------------------------------
     1 GXTB-Raw    0.10E+01    0.0     0.00000039       -76.4374481874 -7.64E+01
     2 GXTB-Simple 0.20E+00    0.0     0.00000015       -76.4374481874 -7.11E-14
     3 GXTB-Simple 0.20E+00    0.0     0.00000013       -76.4374481874 -4.26E-14
     4 GXTB-FDIIS  0.10E+01    0.0     0.00000068       -76.4374481874 -8.53E-14
     5 GXTB-FDIIS  0.10E+01    0.0     0.00000003       -76.4374481874  1.42E-14
     6 GXTB-FDIIS  0.10E+01    0.0     5.9937E-10       -76.4374481874 -1.42E-14
     7 GXTB-FDIIS  0.10E+01    0.0     2.2356E-11       -76.4374481874  1.42E-14

  *** SCF run converged in     7 steps ***


  Core Hamiltonian energy:                                     -6.22699960078547
  Repulsive potential energy:                                   0.31827219640704
  Electrostatic energy:                                         0.14235773855131
  Self-consistent dispersion energy:                           -0.00004481969345
  Non-self consistent dispersion energy:                        0.00000029898137
  Correction for halogen bonding:                               0.00000000000000

  Total energy:                                               -76.43744818742744


 MULLIKEN POPULATION ANALYSIS

  # Atom   Element   Kind        Atomic population                    Net charge
       1     H          1                 0.685449                      0.314551
       2     H          1                 0.685451                      0.314549
       3     O          2                 6.629100                     -0.629100
 # Total charge                           8.000000                      0.000000


 tblite reference CLI check
 Executable: tblite
 Method:     gxtb
 Guess:      auto
 Solver:     gvd
 Spin-pol.:  F
 Grad file:  H2O_stress_L30_cli.grad
 JSON file:  H2O_stress_L30_cli.json
 Log file:   H2O_stress_L30_cli.log
 Energy CP2K/CLI/absdiff:   -7.643744818743E+01   -7.643744818757E+01    1.395648041580E-10
 Gradient diff sum/max:    1.322199823570E-07    3.686927885389E-08
 Virial diff sum/max:    3.278753317938E-02    1.603434965277E-02
 tblite reference CLI deviation exceeded ERROR_LIMIT =   1.0000E-05

 ENERGY| Total FORCE_EVAL ( QS ) energy [hartree]            -76.437448187427435

 -------------------------------------------------------------------------------
 ----                             MULTIGRID INFO                            ----
 -------------------------------------------------------------------------------
 total grid count     :           420              cutoff [a.u.]            1.00

 PW_GRID| Information for grid number                                         11
 PW_GRID| Cutoff [a.u.]                                                      1.0
 PW_GRID| spherical cutoff:                                                   NO
 PW_GRID|   Bounds   1            -12      12                Points:          25
 PW_GRID|   Bounds   2            -12      12                Points:          25
 PW_GRID|   Bounds   3            -12      12                Points:          25
 PW_GRID| Volume element (a.u.^3)   11.66         Volume (a.u.^3)    182204.7123
 PW_GRID| Grid span                                                    FULLSPACE

 POISSON| Solver                                                        PERIODIC
 POISSON| Periodicity                                                        XYZ

 RS_GRID| Information for grid number                                         11
 RS_GRID|   Bounds   1            -12      12                Points:          25
 RS_GRID|   Bounds   2            -12      12                Points:          25
 RS_GRID|   Bounds   3            -12      12                Points:          25

 Parameters for the always stable predictor-corrector (ASPC) method:

  ASPC order: 3

  B(1) =   3.000000
  B(2) =  -3.428571
  B(3) =   1.928571
  B(4) =  -0.571429
  B(5) =   0.071429

 Extrapolation method: ASPC

 Number of electrons:                                                          8
 Number of occupied orbitals:                                                  4
 Number of molecular orbitals:                                                 6

 Number of orbital functions:                                                  6
 Number of independent orbital functions:                                      6


 SCF WAVEFUNCTION OPTIMIZATION

  Step     Update method      Time    Convergence         Total energy    Change
  ------------------------------------------------------------------------------
     1 GXTB-Raw    0.10E+01    0.0     7.0520E-11       -76.4374481882 -7.64E+01

  *** SCF run converged in     1 steps ***


  Core Hamiltonian energy:                                     -6.22699960074932
  Repulsive potential energy:                                   0.31827219640763
  Electrostatic energy:                                         0.14235773852567
  Self-consistent dispersion energy:                           -0.00004481969346
  Non-self consistent dispersion energy:                        0.00000029898137
  Correction for halogen bonding:                               0.00000000000000

  Total energy:                                               -76.43744818816560


 MULLIKEN POPULATION ANALYSIS

  # Atom   Element   Kind        Atomic population                    Net charge
       1     H          1                 0.685449                      0.314551
       2     H          1                 0.685451                      0.314549
       3     O          2                 6.629100                     -0.629100
 # Total charge                           8.000000                      0.000000


 tblite reference CLI check
 Executable: tblite
 Method:     gxtb
 Guess:      auto
 Solver:     gvd
 Spin-pol.:  F
 Grad file:  H2O_stress_L30_cli.grad
 JSON file:  H2O_stress_L30_cli.json
 Log file:   H2O_stress_L30_cli.log
 Energy CP2K/CLI/absdiff:   -7.643744818817E+01   -7.643744818831E+01    1.395363824486E-10
 Gradient diff sum/max:    1.320187526843E-07    3.679448552438E-08
 Virial diff sum/max:    3.278754117381E-02    1.603434973666E-02
 tblite reference CLI deviation exceeded ERROR_LIMIT =   1.0000E-05

 ENERGY| Total FORCE_EVAL ( QS ) energy [hartree]            -76.437448188165604

 -------------------------------------------------------------------------------
 ----                             MULTIGRID INFO                            ----
 -------------------------------------------------------------------------------
 total grid count     :           420              cutoff [a.u.]            1.00

 PW_GRID| Information for grid number                                         12
 PW_GRID| Cutoff [a.u.]                                                      1.0
 PW_GRID| spherical cutoff:                                                   NO
 PW_GRID|   Bounds   1            -12      12                Points:          25
 PW_GRID|   Bounds   2            -12      12                Points:          25
 PW_GRID|   Bounds   3            -12      12                Points:          25
 PW_GRID| Volume element (a.u.^3)   11.66         Volume (a.u.^3)    182205.0337
 PW_GRID| Grid span                                                    FULLSPACE

 POISSON| Solver                                                        PERIODIC
 POISSON| Periodicity                                                        XYZ

 RS_GRID| Information for grid number                                         12
 RS_GRID|   Bounds   1            -12      12                Points:          25
 RS_GRID|   Bounds   2            -12      12                Points:          25
 RS_GRID|   Bounds   3            -12      12                Points:          25

 Parameters for the always stable predictor-corrector (ASPC) method:

  ASPC order: 3

  B(1) =   3.000000
  B(2) =  -3.428571
  B(3) =   1.928571
  B(4) =  -0.571429
  B(5) =   0.071429

 Extrapolation method: ASPC

 Number of electrons:                                                          8
 Number of occupied orbitals:                                                  4
 Number of molecular orbitals:                                                 6

 Number of orbital functions:                                                  6
 Number of independent orbital functions:                                      6


 SCF WAVEFUNCTION OPTIMIZATION

  Step     Update method      Time    Convergence         Total energy    Change
  ------------------------------------------------------------------------------
     1 GXTB-Raw    0.10E+01    0.0     0.00000040       -76.4374481878 -7.64E+01
     2 GXTB-Simple 0.20E+00    0.0     0.00000016       -76.4374481878 -5.68E-14
     3 GXTB-Simple 0.20E+00    0.0     0.00000014       -76.4374481878 -4.26E-14
     4 GXTB-FDIIS  0.10E+01    0.0     0.00000072       -76.4374481878 -1.14E-13
     5 GXTB-FDIIS  0.10E+01    0.0     0.00000003       -76.4374481878  0.00E+00
     6 GXTB-FDIIS  0.10E+01    0.0     4.5480E-10       -76.4374481878  0.00E+00
     7 GXTB-FDIIS  0.10E+01    0.0     5.8158E-11       -76.4374481878  0.00E+00

  *** SCF run converged in     7 steps ***


  Core Hamiltonian energy:                                     -6.22699960087137
  Repulsive potential energy:                                   0.31827219640510
  Electrostatic energy:                                         0.14235773861871
  Self-consistent dispersion energy:                           -0.00004481969343
  Non-self consistent dispersion energy:                        0.00000029898137
  Correction for halogen bonding:                               0.00000000000000

  Total energy:                                               -76.43744818779649


 MULLIKEN POPULATION ANALYSIS

  # Atom   Element   Kind        Atomic population                    Net charge
       1     H          1                 0.685449                      0.314551
       2     H          1                 0.685451                      0.314549
       3     O          2                 6.629100                     -0.629100
 # Total charge                           8.000000                     -0.000000


 tblite reference CLI check
 Executable: tblite
 Method:     gxtb
 Guess:      auto
 Solver:     gvd
 Spin-pol.:  F
 Grad file:  H2O_stress_L30_cli.grad
 JSON file:  H2O_stress_L30_cli.json
 Log file:   H2O_stress_L30_cli.log
 Energy CP2K/CLI/absdiff:   -7.643744818780E+01   -7.643744818794E+01    1.395505933033E-10
 Gradient diff sum/max:    1.616731133743E-07    3.683181176543E-08
 Virial diff sum/max:    3.278759396186E-02    1.603434969970E-02
 tblite reference CLI deviation exceeded ERROR_LIMIT =   1.0000E-05

 ENERGY| Total FORCE_EVAL ( QS ) energy [hartree]            -76.437448187796491

 -------------------------------------------------------------------------------
 ----                             MULTIGRID INFO                            ----
 -------------------------------------------------------------------------------
 total grid count     :           420              cutoff [a.u.]            1.00

 PW_GRID| Information for grid number                                         13
 PW_GRID| Cutoff [a.u.]                                                      1.0
 PW_GRID| spherical cutoff:                                                   NO
 PW_GRID|   Bounds   1            -12      12                Points:          25
 PW_GRID|   Bounds   2            -12      12                Points:          25
 PW_GRID|   Bounds   3            -12      12                Points:          25
 PW_GRID| Volume element (a.u.^3)   11.66         Volume (a.u.^3)    182205.0337
 PW_GRID| Grid span                                                    FULLSPACE

 POISSON| Solver                                                        PERIODIC
 POISSON| Periodicity                                                        XYZ

 RS_GRID| Information for grid number                                         13
 RS_GRID|   Bounds   1            -12      12                Points:          25
 RS_GRID|   Bounds   2            -12      12                Points:          25
 RS_GRID|   Bounds   3            -12      12                Points:          25

 Parameters for the always stable predictor-corrector (ASPC) method:

  ASPC order: 3

  B(1) =   3.000000
  B(2) =  -3.428571
  B(3) =   1.928571
  B(4) =  -0.571429
  B(5) =   0.071429

 Extrapolation method: ASPC

 Number of electrons:                                                          8
 Number of occupied orbitals:                                                  4
 Number of molecular orbitals:                                                 6

 Number of orbital functions:                                                  6
 Number of independent orbital functions:                                      6


 SCF WAVEFUNCTION OPTIMIZATION

  Step     Update method      Time    Convergence         Total energy    Change
  ------------------------------------------------------------------------------
     1 GXTB-Raw    0.10E+01    0.0     0.00000080       -76.4374481878 -7.64E+01
     2 GXTB-Simple 0.20E+00    0.0     0.00000032       -76.4374481878 -2.42E-13
     3 GXTB-Simple 0.20E+00    0.0     0.00000027       -76.4374481878 -1.85E-13
     4 GXTB-FDIIS  0.10E+01    0.0     0.00000144       -76.4374481878 -4.41E-13
     5 GXTB-FDIIS  0.10E+01    0.0     0.00000006       -76.4374481878  0.00E+00
     6 GXTB-FDIIS  0.10E+01    0.0     1.0254E-09       -76.4374481878  0.00E+00
     7 GXTB-FDIIS  0.10E+01    0.0     1.5898E-13       -76.4374481878  0.00E+00

  *** SCF run converged in     7 steps ***


  Core Hamiltonian energy:                                     -6.22699960087137
  Repulsive potential energy:                                   0.31827219640510
  Electrostatic energy:                                         0.14235773861872
  Self-consistent dispersion energy:                           -0.00004481969343
  Non-self consistent dispersion energy:                        0.00000029898137
  Correction for halogen bonding:                               0.00000000000000

  Total energy:                                               -76.43744818779649


 MULLIKEN POPULATION ANALYSIS

  # Atom   Element   Kind        Atomic population                    Net charge
       1     H          1                 0.685449                      0.314551
       2     H          1                 0.685451                      0.314549
       3     O          2                 6.629100                     -0.629100
 # Total charge                           8.000000                     -0.000000


 tblite reference CLI check
 Executable: tblite
 Method:     gxtb
 Guess:      auto
 Solver:     gvd
 Spin-pol.:  F
 Grad file:  H2O_stress_L30_cli.grad
 JSON file:  H2O_stress_L30_cli.json
 Log file:   H2O_stress_L30_cli.log
 Energy CP2K/CLI/absdiff:   -7.643744818780E+01   -7.643744818794E+01    1.395505933033E-10
 Gradient diff sum/max:    1.616731130473E-07    3.683181176543E-08
 Virial diff sum/max:    3.278759396186E-02    1.603434969970E-02
 tblite reference CLI deviation exceeded ERROR_LIMIT =   1.0000E-05

 ENERGY| Total FORCE_EVAL ( QS ) energy [hartree]            -76.437448187796491

 -------------------------------------------------------------------------------
 ----                             MULTIGRID INFO                            ----
 -------------------------------------------------------------------------------
 total grid count     :           420              cutoff [a.u.]            1.00

 PW_GRID| Information for grid number                                         14
 PW_GRID| Cutoff [a.u.]                                                      1.0
 PW_GRID| spherical cutoff:                                                   NO
 PW_GRID|   Bounds   1            -12      12                Points:          25
 PW_GRID|   Bounds   2            -12      12                Points:          25
 PW_GRID|   Bounds   3            -12      12                Points:          25
 PW_GRID| Volume element (a.u.^3)   11.66         Volume (a.u.^3)    182205.0337
 PW_GRID| Grid span                                                    FULLSPACE

 POISSON| Solver                                                        PERIODIC
 POISSON| Periodicity                                                        XYZ

 RS_GRID| Information for grid number                                         14
 RS_GRID|   Bounds   1            -12      12                Points:          25
 RS_GRID|   Bounds   2            -12      12                Points:          25
 RS_GRID|   Bounds   3            -12      12                Points:          25

[...]
  Repulsive potential energy:                                   0.31827345937835
  Electrostatic energy:                                         0.14235770759255
  Self-consistent dispersion energy:                           -0.00004481955863
  Non-self consistent dispersion energy:                        0.00000029898087
  Correction for halogen bonding:                               0.00000000000000

  Total energy:                                               -76.43744821542093


 MULLIKEN POPULATION ANALYSIS

  # Atom   Element   Kind        Atomic population                    Net charge
       1     H          1                 0.685449                      0.314551
       2     H          1                 0.685451                      0.314549
       3     O          2                 6.629101                     -0.629101
 # Total charge                           8.000000                      0.000000


 tblite reference CLI check
 Executable: tblite
 Method:     gxtb
 Guess:      auto
 Solver:     gvd
 Spin-pol.:  F
 Grad file:  H2O_stress_L30_cli.grad
 JSON file:  H2O_stress_L30_cli.json
 Log file:   H2O_stress_L30_cli.log
 Energy CP2K/CLI/absdiff:   -7.643744821542E+01   -7.643744821556E+01    1.395505933033E-10
 Gradient diff sum/max:    3.282603688499E-06    1.498239004248E-06
 Virial diff sum/max:    3.278479917890E-02    1.603415375385E-02
 tblite reference CLI deviation exceeded ERROR_LIMIT =   1.0000E-05

 ENERGY| Total FORCE_EVAL ( QS ) energy [hartree]            -76.437448215420929

 -------------------------------------------------------------------------------
 ----                             MULTIGRID INFO                            ----
 -------------------------------------------------------------------------------
 total grid count     :           420              cutoff [a.u.]            1.00

 PW_GRID| Information for grid number                                         20
 PW_GRID| Cutoff [a.u.]                                                      1.0
 PW_GRID| spherical cutoff:                                                   NO
 PW_GRID|   Bounds   1            -12      12                Points:          25
 PW_GRID|   Bounds   2            -12      12                Points:          25
 PW_GRID|   Bounds   3            -12      12                Points:          25
 PW_GRID| Volume element (a.u.^3)   11.66         Volume (a.u.^3)    182205.0337
 PW_GRID| Grid span                                                    FULLSPACE

 POISSON| Solver                                                        PERIODIC
 POISSON| Periodicity                                                        XYZ

 RS_GRID| Information for grid number                                         20
 RS_GRID|   Bounds   1            -12      12                Points:          25
 RS_GRID|   Bounds   2            -12      12                Points:          25
 RS_GRID|   Bounds   3            -12      12                Points:          25

 Parameters for the always stable predictor-corrector (ASPC) method:

  ASPC order: 3

  B(1) =   3.000000
  B(2) =  -3.428571
  B(3) =   1.928571
  B(4) =  -0.571429
  B(5) =   0.071429

 Extrapolation method: ASPC

 Number of electrons:                                                          8
 Number of occupied orbitals:                                                  4
 Number of molecular orbitals:                                                 6

 Number of orbital functions:                                                  6
 Number of independent orbital functions:                                      6


 SCF WAVEFUNCTION OPTIMIZATION

  Step     Update method      Time    Convergence         Total energy    Change
  ------------------------------------------------------------------------------
     1 GXTB-Raw    0.10E+01    0.0     0.00000081       -76.4374481878 -7.64E+01
     2 GXTB-Simple 0.20E+00    0.0     0.00000012       -76.4374481878 -7.11E-14
     3 GXTB-Simple 0.20E+00    0.0     0.00000010       -76.4374481878 -1.42E-14
     4 GXTB-FDIIS  0.10E+01    0.0     0.00000047       -76.4374481878 -7.11E-14
     5 GXTB-FDIIS  0.10E+01    0.0     0.00000002       -76.4374481878 -1.42E-14
     6 GXTB-FDIIS  0.10E+01    0.0     0.00000001       -76.4374481878  0.00E+00
     7 GXTB-FDIIS  0.10E+01    0.0     3.7352E-10       -76.4374481878  0.00E+00
     8 GXTB-FDIIS  0.10E+01    0.0     5.9237E-11       -76.4374481878  0.00E+00

  *** SCF run converged in     8 steps ***


  Core Hamiltonian energy:                                     -6.22699960087243
  Repulsive potential energy:                                   0.31827219640621
  Electrostatic energy:                                         0.14235773861868
  Self-consistent dispersion energy:                           -0.00004481969343
  Non-self consistent dispersion energy:                        0.00000029898137
  Correction for halogen bonding:                               0.00000000000000

  Total energy:                                               -76.43744818779652


 MULLIKEN POPULATION ANALYSIS

  # Atom   Element   Kind        Atomic population                    Net charge
       1     H          1                 0.685449                      0.314551
       2     H          1                 0.685451                      0.314549
       3     O          2                 6.629100                     -0.629100
 # Total charge                           8.000000                      0.000000


 tblite reference CLI check
 Executable: tblite
 Method:     gxtb
 Guess:      auto
 Solver:     gvd
 Spin-pol.:  F
 Grad file:  H2O_stress_L30_cli.grad
 JSON file:  H2O_stress_L30_cli.json
 Log file:   H2O_stress_L30_cli.log
 Energy CP2K/CLI/absdiff:   -7.643744818780E+01   -7.643744818794E+01    1.395363824486E-10
 Gradient diff sum/max:    1.321193687255E-07    3.683188283012E-08
 Virial diff sum/max:    3.278753717656E-02    1.603434969952E-02
 tblite reference CLI deviation exceeded ERROR_LIMIT =   1.0000E-05

 ENERGY| Total FORCE_EVAL ( QS ) energy [hartree]            -76.437448187796520
 DEBUG| Numerical pv_virial [a.u.]
 DEBUG|                  -0.016034405610      0.000000000000      0.000440920021
 DEBUG|                   0.000000000000     -0.000209240485      0.000000002014
 DEBUG|                   0.000440920021      0.000000002014     -0.015662156218

 DEBUG| Analytical pv_virial [a.u.]
 DEBUG|                  -0.016034402784      0.000000000000      0.000440919176
 DEBUG|                   0.000000000000     -0.000209234845      0.000000000000
 DEBUG|                   0.000440919176      0.000000000000     -0.015662163144

 DEBUG| Difference pv_virial [a.u.]
 DEBUG|                  -0.000000002826     -0.000000000000      0.000000000846
 DEBUG|                  -0.000000000000     -0.000000005640      0.000000002014
 DEBUG|                   0.000000000846      0.000000002014      0.000000006926
 DEBUG| Sum of differences                                        0.000000021111

 DEBUG| Relative error pv_virial
 DEBUG| Threshold value for error check [a.u.]                    1.00000000E-05
 DEBUG|                           0.00 %                 - %              0.00 %
 DEBUG|                              - %              0.00 %                 - %
 DEBUG|                           0.00 %                 - %             -0.00 %
 DEBUG| Maximum accepted error                                            0.20 %

 -------------------------------------------------------------------------------
 -                                                                             -
 -                                DBCSR STATISTICS                             -
 -                                                                             -
 -------------------------------------------------------------------------------
 COUNTER                                    TOTAL       BLAS       SMM       ACC
 flops     1 x     6 x     1                 3168     100.0%      0.0%      0.0%     
 flops     1 x     1 x     6                 5724     100.0%      0.0%      0.0%     
 flops     4 x     6 x     1                 6336     100.0%      0.0%      0.0%     
 flops     1 x     6 x     4                 6336     100.0%      0.0%      0.0%     
 flops     4 x     1 x     6                 7632     100.0%      0.0%      0.0%     
 flops     1 x     4 x     6                 7632     100.0%      0.0%      0.0%     
 flops     4 x     6 x     4                12672     100.0%      0.0%      0.0%     
 flops     4 x     4 x     6                30528     100.0%      0.0%      0.0%     
 flops inhomo. stacks                           0       0.0%      0.0%      0.0%
 flops total                        80.028000E+03     100.0%      0.0%      0.0%
 flops max/rank                     80.028000E+03     100.0%      0.0%      0.0%
 matmuls inhomo. stacks                         0       0.0%      0.0%      0.0%
 matmuls total                               1548     100.0%      0.0%      0.0%
 number of processed stacks                   900     100.0%      0.0%      0.0%
 average stack size                                     1.7       0.0       0.0
 marketing flops                    74.304000E+03
 -------------------------------------------------------------------------------
 # multiplications                            225
 max memory usage/rank               9.878209E+09
 # max total images/rank                        1
 # max 3D layers                                1
 # MPI messages exchanged                       0
 -------------------------------------------------------------------------------
 -                                                                             -
 -                      DBCSR MESSAGE PASSING PERFORMANCE                      -
 -                                                                             -
 -------------------------------------------------------------------------------
 ROUTINE             CALLS      AVE VOLUME [Bytes]
 MP_Bcast                9                     12.
 MP_Allreduce         1028                      9.
 MP_Alltoall          5838                    293.
 MP_ISend              900                     78.
 MP_IRecv              900                     78.
 -------------------------------------------------------------------------------

 -------------------------------------------------------------------------------
 -                                                                             -
 -                          OFFLOAD MEMPOOL STATISTICS                         -
 -                                                                             -
 -------------------------------------------------------------------------------
 Memory consumption                Number of allocations  Used [MiB]  Size [MiB]
 Host                                                  1           0           0
 -------------------------------------------------------------------------------

 MEMORY| Estimated peak process memory [MiB]                                 118

 -------------------------------------------------------------------------------
 ----                             MULTIGRID INFO                            ----
 -------------------------------------------------------------------------------
 total grid count     :           420              cutoff [a.u.]            1.00

 -------------------------------------------------------------------------------
 -                                                                             -
 -                         MESSAGE PASSING PERFORMANCE                         -
 -                                                                             -
 -------------------------------------------------------------------------------

 ROUTINE             CALLS      AVE VOLUME [Bytes]
 MP_Group               20
 MP_Bcast              278                     26.
 MP_Allreduce         4556                     50.
 MP_Sync               159
 MP_comm_split         139
 -------------------------------------------------------------------------------


 -------------------------------------------------------------------------------
 -                                                                             -
 -                           R E F E R E N C E S                               -
 -                                                                             -
 -------------------------------------------------------------------------------
 
 CP2K version 2026.2 (Development Version), the CP2K developers group (2026).
 CP2K is freely available from https://www.cp2k.org/ .
 
 M. Iannuzzi, J. Wilhelm, F. Stein, A. Bussy, H. Elgabarty, D. Golze, A. Hehn, 
 M. Graml, S. Marek, B. Sertcan Gökmen, C. Schran, H. Forbert, R. Z. 
 Khaliullin, A. Kozhevnikov, M. Taillefumier, R. Meli, V. V. Rybkin, M. Brehm, 
 R. Schade, O. Schütt, J. V. Pototschnig, H. Mirhosseini, A. Knüpfer, D. Marx, 
 M. Krack, J. Hutter, T. D. Kühne.
 J. Phys. Chem. B 130, 1237-1310 (2026).
 The CP2K Program Package Made Simple.
 https://doi.org/10.1021/acs.jpcb.5c05851

 A. Katbashev, M. Stahn, T. Rose, V. Alizadeh, M. Friede, C. Plett, P. 
 Steinbach, S. Ehlert.
 J. Phys. Chem. A 129, 2667-2682 (2025).
 Overview on Building Blocks and Applications of Efficient and Robust Extended 
 Tight Binding.
 https://doi.org/10.1021/acs.jpca.4c08263

 T. D. Kühne, M. Iannuzzi, M. Del Ben, V. V. Rybkin, P. Seewald, F. Stein, T. 
 Laino, R. Z. Khaliullin, O. Schütt, F. Schiffmann, D. Golze, J. Wilhelm, S. 
 Chulkov, M. H. Bani-Hashemian, V. Weber, U. Borstnik, M. Taillefumier, A. S. 
 Jakobovits, A. Lazzaro, H. Pabst, T. Müller, R. Schade, M. Guidon, S. 
 Andermatt, N. Holmberg, G. K. Schenter, A. Hehn, A. Bussy, F. Belleflamme, G. 
 Tabacchi, A. Glöß, M. Lass, I. Bethune, C. J. Mundy, C. Plessl, M. Watkins, 
 J. VandeVondele, M. Krack, J. Hutter.
 J. Chem. Phys. 152, 194103 (2020).
 CP2K: An electronic structure and molecular dynamics software package - 
 Quickstep: Efficient and accurate electronic structure calculations.
 https://doi.org/10.1063/5.0007045

 P. Pracht, E. Caldeweyher, S. Ehlert, S. Grimme.
 ChemRxiv, (2019).
 A Robust Non-Self-Consistent Tight-Binding Quantum Chemistry Method for large 
 Molecules.
 https://doi.org/10.26434/chemrxiv.8326202.v1

 S. Grimme, C. Bannwarth, P. Shushkov.
 J. Chem. Theory Comput. 13, 1989 (2017).
 A Robust and Accurate Tight-Binding Quantum Chemical Method for Structures, 
 Vibrational Frequencies, and Noncovalent Interactions of Large Molecular 
 Systems Parametrized for All spd-Block Elements (Z = 1-86).
 https://doi.org/10.1021/acs.jctc.7b00118

 O. Schuett, P. Messmer, J. Hutter, J. VandeVondele.
 Electronic Structure Calculations on Graphics Processing Units, 173-190 (2016).
 GPU-Accelerated Sparse Matrix-Matrix Multiplication for Linear Scaling Density 
 Functional Theory.
 https://doi.org/10.1002/9781118670712.ch8

 U. Borstnik, J. VandeVondele, V. Weber, J. Hutter.
 Parallel Comput. 40, 47-58 (2014).
 Sparse matrix multiplication: The distributed block-compressed sparse row 
 library.
 https://doi.org/10.1016/j.parco.2014.03.012

 T. D. Kühne, M. Krack, F. R. Mohamed, M. Parrinello.
 Phys. Rev. Lett. 98, 066401 (2007).
 Efficient and accurate Car-Parrinello-like approach to Born-Oppenheimer 
 molecular dynamics.
 https://doi.org/10.1103/PhysRevLett.98.066401

 M. Frigo, S. G. Johnson.
 Proc. IEEE 93, 216-231 (2005).
 The design and implementation of FFTW3.
 https://doi.org/10.1109/JPROC.2004.840301

 J. Kolafa.
 J. Comput. Chem. 25, 335-342 (2004).
 Time-reversible always stable predictor-corrector method for molecular dynamics 
 of polarizable molecules.
 https://doi.org/10.1002/jcc.10385


 -------------------------------------------------------------------------------
 -                                                                             -
 -                                T I M I N G                                  -
 -                                                                             -
 -------------------------------------------------------------------------------
 SUBROUTINE                       CALLS  ASD         SELF TIME        TOTAL TIME
                                MAXIMUM       AVERAGE  MAXIMUM  AVERAGE  MAXIMUM
 CP2K                                 1  1.0    0.007    0.007    0.773    0.773
 qs_energies                         20  2.0    0.001    0.001    0.725    0.725
 tb_reference_cli_compare            20  3.0    0.351    0.351    0.351    0.351
 scf_env_do_scf                      20  3.0    0.000    0.000    0.205    0.205
 scf_env_do_scf_inner_loop          139  4.1    0.022    0.022    0.205    0.205
 qs_scf_new_mos                     139  5.1    0.003    0.003    0.145    0.145
 calculate_dm_sparse                158  6.1    0.001    0.001    0.103    0.103
 cp_dbcsr_plus_fm_fm_t              159  7.1    0.001    0.001    0.103    0.103
 dbcsr_multiply_generic             225  8.0    0.006    0.006    0.095    0.095
 build_tblite_matrices               21  4.0    0.057    0.057    0.065    0.065
 init_scf_run                        20  3.0    0.000    0.000    0.064    0.064
 qs_energies_init_hamiltonians       20  3.0    0.000    0.000    0.064    0.064
 scf_env_initial_rho_setup           20  4.0    0.000    0.000    0.059    0.059
 wfi_extrapolate                     20  5.0    0.001    0.001    0.059    0.059
 qs_env_rebuild_pw_env               22  3.1    0.000    0.000    0.056    0.056
 pw_env_rebuild                      20  4.0    0.002    0.002    0.056    0.056
 qs_forces                            1  2.0    0.000    0.000    0.051    0.051
 make_m2s                           450  9.0    0.003    0.003    0.050    0.050
 pw_grid_setup                       20  5.0    0.000    0.000    0.045    0.045
 pw_grid_setup_internal              20  6.0    0.003    0.003    0.045    0.045
 dbcsr_complete_redistribute        609  8.2    0.016    0.016    0.040    0.040
 copy_dbcsr_to_fm                   225  6.2    0.003    0.003    0.039    0.039
 cp_dbcsr_sm_fm_multiply             66  6.0    0.001    0.001    0.038    0.038
 pw_grid_sort                        20  7.0    0.024    0.024    0.034    0.034
 rebuild_ks_matrix                  159  5.8    0.000    0.000    0.033    0.033
 build_tblite_ks_matrix             159  6.8    0.027    0.027    0.033    0.033
 qs_ks_update_qs_env                158  4.8    0.000    0.000    0.030    0.030
 eigensolver                        139  6.1    0.007    0.007    0.028    0.028
 copy_fm_to_dbcsr                   384  7.9    0.001    0.001    0.028    0.028
 multiply_cannon                    225  9.0    0.015    0.015    0.024    0.024
 make_images                        450 10.0    0.006    0.006    0.023    0.023
 cp_dbcsr_sm_fm_multiply_core        66  7.0    0.000    0.000    0.019    0.019
 cp_fm_syevd                        139  7.1    0.000    0.000    0.019    0.019
 dbcsr_finalize                    3393  8.7    0.005    0.005    0.018    0.018
 dbcsr_create_new                  5090  9.4    0.013    0.013    0.017    0.017
 -------------------------------------------------------------------------------

 The number of warnings for this run is : 1
 
 -------------------------------------------------------------------------------
  **** **** ******  **  PROGRAM ENDED AT                 2026-07-21 18:00:24.921
 ***** ** ***  *** **   PROGRAM RAN ON                                     terok
 **    ****   ******    PROGRAM RAN BY                                  kuehne88
 ***** **    ** ** **   PROGRAM PROCESS ID                               1596714
  **** **  *******  **  PROGRAM STOPPED IN /home/kuehne88/work/h2o-molecular-lim
                                           it-fix-20260721/stress/raw/H2O_stress
                                           _L30
