 DBCSR| CPU Multiplication driver                                           XSMM (U)
 DBCSR| Multrec recursion limit                                              512 (U)
 DBCSR| Multiplication stack size                                           1000 (D)
 DBCSR| Maximum elements for images                                    UNLIMITED (U)
 DBCSR| Multiplicative factor virtual images                                   1 (U)
 DBCSR| Use multiplication densification                                       T (D)
 DBCSR| Multiplication size stacks                                             3 (U)
 DBCSR| Use memory pool for CPU allocation                                     F (U)
 DBCSR| Number of 3D layers                                               SINGLE (U)
 DBCSR| Use MPI memory allocation                                              F (U)
 DBCSR| Use RMA algorithm                                                      F (U)
 DBCSR| Use Communication thread                                               T (U)
 DBCSR| Communication thread load                                             87 (D)
 DBCSR| MPI: My process id                                                     0
 DBCSR| MPI: Number of processes                                               1
 DBCSR| OMP: Current number of threads                                         1
 DBCSR| OMP: Max number of threads                                             1
 DBCSR| Split modifier for TAS multiplication algorithm                  1.0E+00 (U)


  **** **** ******  **  PROGRAM STARTED AT               2026-05-23 22:21:33.951
 ***** ** ***  *** **   PROGRAM STARTED ON                            spark-c86c
 **    ****   ******    PROGRAM STARTED BY                              kuehne88
 ***** **    ** ** **   PROGRAM PROCESS ID                               2195376
  **** **  *******  **  PROGRAM STARTED IN /home/kuehne88/periodic-gfn2-benchmar
                                           ks/DMC-ICE13/runs_kpoints/k555/GFN2/X
                                           III

 CP2K| version string:                 CP2K version 2026.1 (Development Version)
 CP2K| source code revision number:                                   0622d442e4
 CP2K| cp2kflags: omp fftw3 libxc parallel scalapack mpi_f08 xsmm spglib libdftd
 CP2K|            4 dftd4_v3 mctc-lib tblite
 CP2K| is freely available from                            https://www.cp2k.org/
 CP2K| Program compiled at                                   2026-05-23 22:05:08
 CP2K| Program compiled on                                            spark-c86c
 CP2K| Program compiled for                                              aarch64
 CP2K| Data directory path    /home/kuehne88/cp2k-master-tblite-20260523/install
 CP2K| Input file name                                    ice_XIII_GFN2_k555.inp

 GLOBAL| Force Environment number                                              1
 GLOBAL| Basis set file name                                           BASIS_SET
 GLOBAL| Potential file name                                           POTENTIAL
 GLOBAL| MM Potential file name                                     MM_POTENTIAL
 GLOBAL| Coordinate file name                                      __STD_INPUT__
 GLOBAL| Method name                                                        CP2K
 GLOBAL| Project name                                         ice_XIII_GFN2_k555
 GLOBAL| Run type                                                         ENERGY
 GLOBAL| FFT library                                                       FFTW3
 GLOBAL| Diagonalization library                                       ScaLAPACK
 GLOBAL| Cholesky decomposition library                                ScaLAPACK
 GLOBAL| DGEMM library                                                      BLAS
 GLOBAL| Direct generalized diagonalization requested                          F
 GLOBAL| Orthonormality check for eigenvectors                          DISABLED
 GLOBAL| Matrix multiplication library                                 ScaLAPACK
 GLOBAL| All-to-all communication in single precision                          F
 GLOBAL| FFTs using library dependent lengths                                  F
 GLOBAL| Grid backend                                                       AUTO
 GLOBAL| Global print level                                                  LOW
 GLOBAL| MPI I/O enabled                                                       T
 GLOBAL| Total number of message passing processes                             1
 GLOBAL| Number of distributed systems (nodes)                                 1
 GLOBAL| Number of threads for this process                                    1
 GLOBAL| This output is from process                                           0
 GLOBAL| OpenMP stack size per thread (OMP_STACKSIZE)                    default
 GLOBAL| CPU model name                                                  UNKNOWN
 GLOBAL| CPUID                                                              2200
 GLOBAL| Compiled for CPUID                                                 2000

 *** HINT in environment.F:970 :: The compiler target flags (arm_arch64)   ***
 *** used to build this binary cannot exploit all extensions of this CPU   ***
 *** model (arm_sve256). Consider compiler target flags as part of FCFLAGS ***
 *** and CFLAGS (ARCH file).                                               ***


 MEMORY| system memory details [Kb]
 MEMORY|                        rank 0           min           max       average
 MEMORY| MemTotal            125508532     125508532     125508532     125508532
 MEMORY| MemFree             101176272     101176272     101176272     101176272
 MEMORY| Buffers                861304        861304        861304        861304
 MEMORY| Cached               11587920      11587920      11587920      11587920
 MEMORY| Slab                  1510312       1510312       1510312       1510312
 MEMORY| SReclaimable           832668        832668        832668        832668
 MEMORY| MemLikelyFree       114458164     114458164     114458164     114458164


 *** WARNING in cell_methods.F:457 :: Cell vectors are read but cell   ***
 *** matrix is not a lower triangle, not conforming to the program     ***
 *** convention that A lies along the X-axis and B is in the XY plane. ***


 GENERATE|  Preliminary Number of Bonds generated:                             0
 GENERATE|  Achieved consistency in connectivity generation.


                  #####   #####        #     #   #     #       #          
                 #     # #     #      #    ##### #     #   # #####  ####  
                 #     # #           #       #   ###   #       #   #    # 
                 #     #  #####     #        #   #  #  #   #   #   ###### 
                 #   # #       #   #         #   #   # #   #   #   #      
                 #    #  #     #  #          #   #  #  # # #   #    #   # 
                  #### #  #####  #           #   ###   ##  #   #     ###  

                                   GFN2-xTB  
                                 Version 0.0                       
                            Johann V. Pototschnig                  



 TOTAL NUMBERS AND MAXIMUM NUMBERS

  Total number of            - Atomic kinds:                                   2
                             - Atoms:                                         84
                             - Shell sets:                                   112
                             - Shells:                                       112
                             - Primitive Cartesian functions:                392
                             - Cartesian basis functions:                    168
                             - Spherical basis functions:                    168

  Maximum angular momentum of the orbital basis functions:                     1


 SCF PARAMETERS         Density guess:                                     MOPAC
                        --------------------------------------------------------
                        max_scf:                                             300
                        max_scf_history:                                       0
                        max_diis:                                              4
                        --------------------------------------------------------
                        eps_scf:                                        1.00E-09
                        eps_scf_history:                                0.00E+00
                        eps_diis:                                       1.00E-01
                        eps_eigval:                                     1.00E-05
                        --------------------------------------------------------
                        level_shift [a.u.]:                             0.000000
                        added MOs                                        56    0
                        --------------------------------------------------------
                        Mixing method:                           DIRECT_P_MIXING
                        --------------------------------------------------------
                        Smear method:                                FERMI_DIRAC
                        Electronic temperature [K]:                        300.0
                        Electronic temperature [a.u.]:                  9.50E-04
                        Accuracy threshold:                             1.00E-06
                        --------------------------------------------------------
                        No outer SCF

 Extrapolation method: initial_guess

 Number of electrons:                                                        224
 Number of occupied orbitals:                                                112
 Number of molecular orbitals:                                               168

 Number of orbital functions:                                                168
 Number of independent orbital functions:                                    168


 SCF WAVEFUNCTION OPTIMIZATION

  Step     Update method      Time    Convergence         Total energy    Change
  ------------------------------------------------------------------------------
     1 TBLite/Diag 0.40E+00    7.6     0.73234411      -142.1505517505 -1.42E+02
     2 TBLite/Diag 0.40E+00    5.9     0.06754197      -142.4978284423 -3.47E-01
     3 TBLite/Diag 0.40E+00    3.5     0.09757493      -142.6404147377 -1.43E-01
     4 TBLite/Diag 0.40E+00    3.5     0.05584167      -142.6115114522  2.89E-02
     5 TBLite/Diag 0.40E+00    3.4     0.03964934      -142.6467864933 -3.53E-02
     6 TBLite/Diag 0.40E+00    3.4     0.00171592      -142.6468158276 -2.93E-05
     7 TBLite/Diag 0.40E+00    3.4     0.00039322      -142.6468193458 -3.52E-06
     8 TBLite/Diag 0.40E+00    3.4     0.00012395      -142.6468192321  1.14E-07
     9 TBLite/Diag 0.40E+00    3.4     0.00008174      -142.6468194411 -2.09E-07
    10 TBLite/Diag 0.40E+00    3.4     0.00001131      -142.6468194449 -3.83E-09
    11 TBLite/Diag 0.40E+00    3.4     0.00000216      -142.6468194450 -8.52E-11
    12 TBLite/Diag 0.40E+00    3.4     0.00000016      -142.6468194450  1.14E-13
    13 TBLite/Diag 0.40E+00    3.4     0.00000014      -142.6468194450 -3.69E-13
    14 TBLite/Diag 0.40E+00    3.5     6.3329E-09      -142.6468194450 -2.84E-14
    15 TBLite/Diag 0.40E+00    3.5     9.6795E-09      -142.6468194450  2.84E-14
    16 TBLite/Diag 0.40E+00    3.5     1.2254E-09      -142.6468194450  0.00E+00
    17 TBLite/Diag 0.40E+00    3.5     2.0788E-10      -142.6468194450 -2.84E-14

  *** SCF run converged in    17 steps ***


  Core Hamiltonian energy:                                   -143.88316338091204
  Repulsive potential energy:                                   0.70828342686741
  Electrostatic energy:                                         0.62298498647453
  Self-consistent dispersion energy:                           -0.11811226630780
  Non-self consistent dispersion energy:                        0.02318778887760
  Correction for halogen bonding:                               0.00000000000000
  Electronic entropic energy:                                  -0.00000000000000
  Fermi energy:                                                -0.17337191651865

  Total energy:                                              -142.64681944500029
  Total energy (extrapolated to T->0):                       -142.64681944500029

 ENERGY| Total FORCE_EVAL ( QS ) energy [hartree]           -142.646819445000290

 -------------------------------------------------------------------------------
 -                                                                             -
 -                                DBCSR STATISTICS                             -
 -                                                                             -
 -------------------------------------------------------------------------------
 COUNTER                                    TOTAL       BLAS       SMM       ACC
 flops inhomo. stacks                           0       0.0%      0.0%      0.0%
 flops total                         0.000000E+00       0.0%      0.0%      0.0%
 flops max/rank                      0.000000E+00       0.0%      0.0%      0.0%
 matmuls inhomo. stacks                         0       0.0%      0.0%      0.0%
 matmuls total                                  0       0.0%      0.0%      0.0%
 number of processed stacks                     0       0.0%      0.0%      0.0%
 average stack size                                     0.0       0.0       0.0
 marketing flops                     0.000000E+00
 -------------------------------------------------------------------------------
 -                                                                             -
 -                      DBCSR MESSAGE PASSING PERFORMANCE                      -
 -                                                                             -
 -------------------------------------------------------------------------------
 ROUTINE             CALLS      AVE VOLUME [Bytes]
 MP_Bcast                1                     12.
 MP_Allreduce           19                     21.
 MP_Alltoall        178500                 208627.
 -------------------------------------------------------------------------------

 -------------------------------------------------------------------------------
 -                                                                             -
 -                          OFFLOAD MEMPOOL STATISTICS                         -
 -                                                                             -
 -------------------------------------------------------------------------------
 Memory consumption                Number of allocations  Used [MiB]  Size [MiB]
 Device                                                1           0           0
 Host                                                  1           0           0
 -------------------------------------------------------------------------------

 MEMORY| Estimated peak process memory [MiB]                                1090

 -------------------------------------------------------------------------------
 -                                                                             -
 -                         MESSAGE PASSING PERFORMANCE                         -
 -                                                                             -
 -------------------------------------------------------------------------------

 ROUTINE             CALLS      AVE VOLUME [Bytes]
 MP_Group                1
 MP_Bcast            78017                      7.
 MP_Allreduce        19481                    627.
 MP_Sync                 1
 MP_Wait             65000
 MP_ISend            91000                  32262.
 MP_IRecv            91000                  32262.
 -------------------------------------------------------------------------------


 -------------------------------------------------------------------------------
 -                                                                             -
 -                           R E F E R E N C E S                               -
 -                                                                             -
 -------------------------------------------------------------------------------
 
 CP2K version 2026.1 (Development Version), the CP2K developers group (2026).
 CP2K is freely available from https://www.cp2k.org/ .
 
 M. Iannuzzi, J. Wilhelm, F. Stein, A. Bussy, H. Elgabarty, D. Golze, A. Hehn, 
 M. Graml, S. Marek, B. Sertcan Gökmen, C. Schran, H. Forbert, R. Z. 
 Khaliullin, A. Kozhevnikov, M. Taillefumier, R. Meli, V. V. Rybkin, M. Brehm, 
 R. Schade, O. Schütt, J. V. Pototschnig, H. Mirhosseini, A. Knüpfer, D. Marx, 
 M. Krack, J. Hutter, T. D. Kühne.
 J. Phys. Chem. B 130, 1237-1310 (2026).
 The CP2K Program Package Made Simple.
 https://doi.org/10.1021/acs.jpcb.5c05851

 A. Katbashev, M. Stahn, T. Rose, V. Alizadeh, M. Friede, C. Plett, P. 
 Steinbach, S. Ehlert.
 J. Phys. Chem. A 129, 2667-2682 (2025).
 Overview on Building Blocks and Applications of Efficient and Robust Extended 
 Tight Binding.
 https://doi.org/10.1021/acs.jpca.4c08263

 T. D. Kühne, M. Iannuzzi, M. Del Ben, V. V. Rybkin, P. Seewald, F. Stein, T. 
 Laino, R. Z. Khaliullin, O. Schütt, F. Schiffmann, D. Golze, J. Wilhelm, S. 
 Chulkov, M. H. Bani-Hashemian, V. Weber, U. Borstnik, M. Taillefumier, A. S. 
 Jakobovits, A. Lazzaro, H. Pabst, T. Müller, R. Schade, M. Guidon, S. 
 Andermatt, N. Holmberg, G. K. Schenter, A. Hehn, A. Bussy, F. Belleflamme, G. 
 Tabacchi, A. Glöß, M. Lass, I. Bethune, C. J. Mundy, C. Plessl, M. Watkins, 
 J. VandeVondele, M. Krack, J. Hutter.
 J. Chem. Phys. 152, 194103 (2020).
 CP2K: An electronic structure and molecular dynamics software package - 
 Quickstep: Efficient and accurate electronic structure calculations.
 https://doi.org/10.1063/5.0007045

 P. Pracht, E. Caldeweyher, S. Ehlert, S. Grimme.
 ChemRxiv, (2019).
 A Robust Non-Self-Consistent Tight-Binding Quantum Chemistry Method for large 
 Molecules.
 https://doi.org/10.26434/chemrxiv.8326202.v1

 S. Grimme, C. Bannwarth, P. Shushkov.
 J. Chem. Theory Comput. 13, 1989 (2017).
 A Robust and Accurate Tight-Binding Quantum Chemical Method for Structures, 
 Vibrational Frequencies, and Noncovalent Interactions of Large Molecular 
 Systems Parametrized for All spd-Block Elements (Z = 1-86).
 https://doi.org/10.1021/acs.jctc.7b00118

 O. Schuett, P. Messmer, J. Hutter, J. VandeVondele.
 Electronic Structure Calculations on Graphics Processing Units, 173-190 (2016).
 GPU-Accelerated Sparse Matrix-Matrix Multiplication for Linear Scaling Density 
 Functional Theory.
 https://doi.org/10.1002/9781118670712.ch8

 A. Heinecke, G. Henry, M. Hutchinson, H. Pabst.
 Proceedings of Intl. Supercomputing Conference, 981-991 (2016).
 LIBXSMM: Accelerating Small Matrix Multiplications by Runtime Code Generation.
 https://doi.org/10.1109/SC.2016.83

 U. Borstnik, J. VandeVondele, V. Weber, J. Hutter.
 Parallel Comput. 40, 47-58 (2014).
 Sparse matrix multiplication: The distributed block-compressed sparse row 
 library.
 https://doi.org/10.1016/j.parco.2014.03.012

 M. Frigo, S. G. Johnson.
 Proc. IEEE 93, 216-231 (2005).
 The design and implementation of FFTW3.
 https://doi.org/10.1109/JPROC.2004.840301

 N. D. Mermin.
 Phys. Rev. 137, A1441-A1443 (1965).
 Thermal Properties of the Inhomogeneous Electron Gas.
 https://doi.org/10.1103/PhysRev.137.A1441


 -------------------------------------------------------------------------------
 -                                                                             -
 -                                T I M I N G                                  -
 -                                                                             -
 -------------------------------------------------------------------------------
 SUBROUTINE                       CALLS  ASD         SELF TIME        TOTAL TIME
                                MAXIMUM       AVERAGE  MAXIMUM  AVERAGE  MAXIMUM
 CP2K                                 1  1.0    0.056    0.056   68.019   68.019
 qs_energies                          1  2.0    0.000    0.000   67.956   67.956
 scf_env_do_scf                       1  3.0    0.000    0.000   65.083   65.083
 scf_env_do_scf_inner_loop           17  4.0    1.441    1.441   65.083   65.083
 qs_scf_new_mos_kp                   17  5.0    0.000    0.000   61.377   61.377
 do_general_diag_kp                  17  6.0    0.079    0.079   61.377   61.377
 kpoint_density_transform            17  7.0    0.007    0.007   14.079   14.079
 cp_cfm_geeig                      2125  7.0    0.008    0.008   12.820   12.820
 dbcsr_complete_redistribute      13000  8.3   11.055   11.055   12.432   12.432
 copy_dbcsr_to_fm                  8750  6.9    0.034    0.034   11.516   11.516
 rskp_transform                    4375  6.9   10.794   10.794   10.794   10.794
 copy_fm_to_dbcsr                  4250  8.0    0.010    0.010    8.747    8.747
 cp_cfm_heevd                      2125  8.0    0.001    0.001    8.464    8.464
 cp_cfm_heevd_base                 2125  9.0    8.463    8.463    8.463    8.463
 dbcsr_desymmetrize_deep          17500  7.4    5.667    5.667    7.034    7.034
 qs_diis_b_calc_err_kp             2000  7.0    0.131    0.131    4.671    4.671
 parallel_gemm_cfm                 8000  8.0    0.003    0.003    4.501    4.501
 parallel_gemm_cfm_gemm            8000  9.0    0.003    0.003    4.498    4.498
 cp_cfm_gemm                       8000 10.0    4.495    4.495    4.495    4.495
 transform_dmat                    2125  8.0    4.465    4.465    4.465    4.465
 dbcsr_copy                        5304  8.5    0.015    0.015    3.567    3.567
 dbcsr_copy_into_existing          4250 10.0    3.541    3.541    3.551    3.551
 cp_cfm_triangular_multiply        6375  8.0    3.316    3.316    3.316    3.316
 qs_energies_init_hamiltonians        1  3.0    0.000    0.000    2.143    2.143
 build_tblite_matrices                1  4.0    1.814    1.814    2.121    2.121
 dbcsr_finalize                   32686  8.6    0.035    0.035    2.060    2.060
 qs_ks_update_qs_env                 17  5.0    0.000    0.000    2.054    2.054
 rebuild_ks_matrix                   17  6.0    0.000    0.000    1.950    1.950
 build_tblite_ks_matrix              17  7.0    1.936    1.936    1.950    1.950
 kpoint_density_matrices             17  7.0    0.028    0.028    1.891    1.891
 parallel_gemm_fm_gemm             8500  8.0    0.003    0.003    1.840    1.840
 cp_fm_gemm                        8500  9.0    1.837    1.837    1.837    1.837
 cp_fm_start_copy_general         13000  7.3    1.413    1.413    1.548    1.548
 -------------------------------------------------------------------------------

 The number of warnings for this run is : 1
 
 -------------------------------------------------------------------------------
  **** **** ******  **  PROGRAM ENDED AT                 2026-05-23 22:22:42.309
 ***** ** ***  *** **   PROGRAM RAN ON                                spark-c86c
 **    ****   ******    PROGRAM RAN BY                                  kuehne88
 ***** **    ** ** **   PROGRAM PROCESS ID                               2195376
  **** **  *******  **  PROGRAM STOPPED IN /home/kuehne88/periodic-gfn2-benchmar
                                           ks/DMC-ICE13/runs_kpoints/k555/GFN2/X
                                           III
