 DBCSR| CPU Multiplication driver                                           XSMM (U)
 DBCSR| Multrec recursion limit                                              512 (U)
 DBCSR| Multiplication stack size                                           1000 (D)
 DBCSR| Maximum elements for images                                    UNLIMITED (U)
 DBCSR| Multiplicative factor virtual images                                   1 (U)
 DBCSR| Use multiplication densification                                       T (D)
 DBCSR| Multiplication size stacks                                             3 (U)
 DBCSR| Use memory pool for CPU allocation                                     F (U)
 DBCSR| Number of 3D layers                                               SINGLE (U)
 DBCSR| Use MPI memory allocation                                              F (U)
 DBCSR| Use RMA algorithm                                                      F (U)
 DBCSR| Use Communication thread                                               T (U)
 DBCSR| Communication thread load                                             87 (D)
 DBCSR| MPI: My process id                                                     0
 DBCSR| MPI: Number of processes                                               1
 DBCSR| OMP: Current number of threads                                         1
 DBCSR| OMP: Max number of threads                                             1
 DBCSR| Split modifier for TAS multiplication algorithm                  1.0E+00 (U)


  **** **** ******  **  PROGRAM STARTED AT               2026-05-23 22:47:39.878
 ***** ** ***  *** **   PROGRAM STARTED ON                            spark-c86c
 **    ****   ******    PROGRAM STARTED BY                              kuehne88
 ***** **    ** ** **   PROGRAM PROCESS ID                               2269902
  **** **  *******  **  PROGRAM STARTED IN /home/kuehne88/periodic-gfn2-benchmar
                                           ks/X23b/runs/cellopt_gamma/GFN2/napht
                                           halene_GFN2_gamma_cellopt

 CP2K| version string:                 CP2K version 2026.1 (Development Version)
 CP2K| source code revision number:                                   0622d442e4
 CP2K| cp2kflags: omp fftw3 libxc parallel scalapack mpi_f08 xsmm spglib libdftd
 CP2K|            4 dftd4_v3 mctc-lib tblite
 CP2K| is freely available from                            https://www.cp2k.org/
 CP2K| Program compiled at                                   2026-05-23 22:05:08
 CP2K| Program compiled on                                            spark-c86c
 CP2K| Program compiled for                                              aarch64
 CP2K| Data directory path    /home/kuehne88/cp2k-master-tblite-20260523/install
 CP2K| Input file name                        naphthalene_GFN2_gamma_cellopt.inp

 GLOBAL| Force Environment number                                              1
 GLOBAL| Basis set file name                                           BASIS_SET
 GLOBAL| Potential file name                                           POTENTIAL
 GLOBAL| MM Potential file name                                     MM_POTENTIAL
 GLOBAL| Coordinate file name                                      __STD_INPUT__
 GLOBAL| Method name                                                        CP2K
 GLOBAL| Project name                            naphthalene_GFN2_gamma_cell_opt
 GLOBAL| Run type                                                       CELL_OPT
 GLOBAL| FFT library                                                       FFTW3
 GLOBAL| Diagonalization library                                       ScaLAPACK
 GLOBAL| Cholesky decomposition library                                ScaLAPACK
 GLOBAL| DGEMM library                                                      BLAS
 GLOBAL| Direct generalized diagonalization requested                          F
 GLOBAL| Orthonormality check for eigenvectors                          DISABLED
 GLOBAL| Matrix multiplication library                                 ScaLAPACK
 GLOBAL| All-to-all communication in single precision                          F
 GLOBAL| FFTs using library dependent lengths                                  F
 GLOBAL| Grid backend                                                       AUTO
 GLOBAL| Global print level                                                  LOW
 GLOBAL| MPI I/O enabled                                                       T
 GLOBAL| Total number of message passing processes                             1
 GLOBAL| Number of distributed systems (nodes)                                 1
 GLOBAL| Number of threads for this process                                    1
 GLOBAL| This output is from process                                           0
 GLOBAL| OpenMP stack size per thread (OMP_STACKSIZE)                    default
 GLOBAL| CPU model name                                                  UNKNOWN
 GLOBAL| CPUID                                                              2200
 GLOBAL| Compiled for CPUID                                                 2000

 *** HINT in environment.F:970 :: The compiler target flags (arm_arch64)   ***
 *** used to build this binary cannot exploit all extensions of this CPU   ***
 *** model (arm_sve256). Consider compiler target flags as part of FCFLAGS ***
 *** and CFLAGS (ARCH file).                                               ***


 MEMORY| system memory details [Kb]
 MEMORY|                        rank 0           min           max       average
 MEMORY| MemTotal            125508532     125508532     125508532     125508532
 MEMORY| MemFree             104357276     104357276     104357276     104357276
 MEMORY| Buffers                868216        868216        868216        868216
 MEMORY| Cached               14085828      14085828      14085828      14085828
 MEMORY| Slab                  1597516       1597516       1597516       1597516
 MEMORY| SReclaimable           919468        919468        919468        919468
 MEMORY| MemLikelyFree       120230788     120230788     120230788     120230788


 GENERATE|  Preliminary Number of Bonds generated:                             0
 GENERATE|  Achieved consistency in connectivity generation.


                  #####   #####        #     #   #     #       #          
                 #     # #     #      #    ##### #     #   # #####  ####  
                 #     # #           #       #   ###   #       #   #    # 
                 #     #  #####     #        #   #  #  #   #   #   ###### 
                 #   # #       #   #         #   #   # #   #   #   #      
                 #    #  #     #  #          #   #  #  # # #   #    #   # 
                  #### #  #####  #           #   ###   ##  #   #     ###  

                                   GFN2-xTB  
                                 Version 0.0                       
                            Johann V. Pototschnig                  



 TOTAL NUMBERS AND MAXIMUM NUMBERS

  Total number of            - Atomic kinds:                                   2
                             - Atoms:                                         36
                             - Shell sets:                                    56
                             - Shells:                                        56
                             - Primitive Cartesian functions:                208
                             - Cartesian basis functions:                     96
                             - Spherical basis functions:                     96

  Maximum angular momentum of the orbital basis functions:                     1


 SCF PARAMETERS         Density guess:                                     MOPAC
                        --------------------------------------------------------
                        max_scf:                                             300
                        max_scf_history:                                       0
                        max_diis:                                              4
                        --------------------------------------------------------
                        eps_scf:                                        1.00E-09
                        eps_scf_history:                                0.00E+00
                        eps_diis:                                       1.00E-01
                        eps_eigval:                                     1.00E-05
                        --------------------------------------------------------
                        level_shift [a.u.]:                             0.000000
                        added MOs                                        48    0
                        --------------------------------------------------------
                        Mixing method:                           DIRECT_P_MIXING
                        --------------------------------------------------------
                        Smear method:                                FERMI_DIRAC
                        Electronic temperature [K]:                        300.0
                        Electronic temperature [a.u.]:                  9.50E-04
                        Accuracy threshold:                             1.00E-06
                        --------------------------------------------------------
                        No outer SCF

 CELL_OPT| Pressure tolerance [bar]:                                       100.0
 CELL_OPT| Keep volume of cell:                                               NO
 CELL_OPT| Keep angles between the cell vectors:                              NO
 CELL_OPT| Keep cell symmetry:                                                NO
 CELL_OPT| Constraint:                                                      NONE

 BFGS| Use rational function optimization for step estimation:                NO
 BFGS| Use model Hessian for initial guess:                                   NO
 BFGS| Restart Hessian:                                                       NO
 BFGS| Trust radius:                                                       0.472

 *******************************************************************************
 ***                     STARTING   CELL   OPTIMIZATION                      ***
 ***                                   BFGS                                  ***
 *******************************************************************************

 CELL| Volume [angstrom^3]:                                           340.830621
 CELL| Vector a [angstrom]:       8.085     0.000     0.000   |a| =     8.084600
 CELL| Vector b [angstrom]:       0.000     5.938     0.000   |b| =     5.937500
 CELL| Vector c [angstrom]:      -4.912     0.000     7.100   |c| =     8.633500
 CELL| Angle (b,c), alpha [degree]:                                    90.000000
 CELL| Angle (a,c), beta  [degree]:                                   124.673000
 CELL| Angle (a,b), gamma [degree]:                                    90.000000
 CELL| Numerically orthorhombic:                                              NO
 CELL| Periodicity                                                           XYZ

 Extrapolation method: initial_guess

 Number of electrons:                                                         96
 Number of occupied orbitals:                                                 48
 Number of molecular orbitals:                                                96

 Number of orbital functions:                                                 96
 Number of independent orbital functions:                                     96


 SCF WAVEFUNCTION OPTIMIZATION

  Step     Update method      Time    Convergence         Total energy    Change
  ------------------------------------------------------------------------------
     1 TBLite/Diag 0.40E+00    0.0     0.50314479       -50.8504324273 -5.09E+01
     2 TBLite/Diag 0.40E+00    0.0     0.02330429       -50.8564651035 -6.03E-03
     3 TBLite/Diag 0.40E+00    0.0     0.02867092       -50.8568645043 -3.99E-04
     4 TBLite/Diag 0.40E+00    0.0     0.01847531       -50.8576328472 -7.68E-04
     5 TBLite/Diag 0.40E+00    0.0     0.00721877       -50.8579176624 -2.85E-04
     6 TBLite/Diag 0.40E+00    0.0     0.00152312       -50.8579361722 -1.85E-05
     7 TBLite/Diag 0.40E+00    0.0     0.00047310       -50.8579372003 -1.03E-06
     8 TBLite/Diag 0.40E+00    0.0     0.00017262       -50.8579373597 -1.59E-07
     9 TBLite/Diag 0.40E+00    0.0     0.00006862       -50.8579373811 -2.15E-08
    10 TBLite/Diag 0.40E+00    0.0     0.00002498       -50.8579373856 -4.45E-09
    11 TBLite/Diag 0.40E+00    0.0     0.00001059       -50.8579373860 -4.64E-10
    12 TBLite/Diag 0.40E+00    0.0     0.00000082       -50.8579373861 -3.40E-12
    13 TBLite/Diag 0.40E+00    0.0     0.00000045       -50.8579373861 -1.49E-13
    14 TBLite/Diag 0.40E+00    0.0     0.00000023       -50.8579373861 -1.78E-13
    15 TBLite/Diag 0.40E+00    0.0     0.00000008       -50.8579373861 -2.84E-14
    16 TBLite/Diag 0.40E+00    0.0     0.00000001       -50.8579373861  7.82E-14
    17 TBLite/Diag 0.40E+00    0.0     0.00000001       -50.8579373861 -7.11E-15
    18 TBLite/Diag 0.40E+00    0.0     5.7914E-10       -50.8579373861 -5.68E-14

  *** SCF run converged in    18 steps ***


  Core Hamiltonian energy:                                    -52.10594961716880
  Repulsive potential energy:                                   1.30072103532945
  Electrostatic energy:                                         0.03306182790868
  Self-consistent dispersion energy:                           -0.10661715921981
  Non-self consistent dispersion energy:                        0.02084652709798
  Correction for halogen bonding:                               0.00000000000000
  Electronic entropic energy:                                  -0.00000000000000
  Fermi energy:                                                -0.31428190802069

  Total energy:                                               -50.85793738605250
  Total energy (extrapolated to T->0):                        -50.85793738605250

 ENERGY| Total FORCE_EVAL ( QS ) energy [hartree]            -50.857937386052498

 OPT| **************************************************************************
 OPT| Step number                                                              0
 OPT| Optimization method                                                   BFGS
 OPT| Total energy [hartree]                                      -50.8579373861
 OPT| Internal pressure [bar]                                   96350.0115945968
 OPT| Used time [s]                                                        1.904
 OPT| **************************************************************************
 OPT| Estimated peak process memory [MiB]                                    165

 --------------------------
 OPTIMIZATION STEP:      1
 --------------------------

 CELL| Volume [angstrom^3]:                                           346.181641
 CELL| Vector a [angstrom]:       8.095     0.000     0.000   |a| =     8.094506
 CELL| Vector b [angstrom]:       0.000     6.005     0.000   |b| =     6.004679
 CELL| Vector c [angstrom]:      -4.911    -0.000     7.122   |c| =     8.651326
 CELL| Angle (b,c), alpha [degree]:                                    90.000000
 CELL| Angle (a,c), beta  [degree]:                                   124.586723
 CELL| Angle (a,b), gamma [degree]:                                    90.000000
 CELL| Numerically orthorhombic:                                              NO
 CELL| Periodicity                                                           XYZ

 Extrapolation method: ASPC

 Number of electrons:                                                         96
 Number of occupied orbitals:                                                 48
 Number of molecular orbitals:                                                96

 Number of orbital functions:                                                 96
 Number of independent orbital functions:                                     96


 SCF WAVEFUNCTION OPTIMIZATION

  Step     Update method      Time    Convergence         Total energy    Change
  ------------------------------------------------------------------------------
     1 TBLite/Diag 0.40E+00    0.0     0.12494567       -50.9751054774 -5.10E+01
     2 TBLite/Diag 0.40E+00    0.0     0.00891220       -50.9758748594 -7.69E-04
     3 TBLite/Diag 0.40E+00    0.0     0.00709463       -50.9759149538 -4.01E-05
     4 TBLite/Diag 0.40E+00    0.0     0.00401019       -50.9759719652 -5.70E-05
     5 TBLite/Diag 0.40E+00    0.0     0.00155390       -50.9759986673 -2.67E-05
     6 TBLite/Diag 0.40E+00    0.0     0.00056863       -50.9760004161 -1.75E-06
     7 TBLite/Diag 0.40E+00    0.0     0.00011346       -50.9760004572 -4.10E-08
     8 TBLite/Diag 0.40E+00    0.0     0.00004473       -50.9760004668 -9.65E-09
     9 TBLite/Diag 0.40E+00    0.0     0.00000713       -50.9760004675 -6.47E-10
    10 TBLite/Diag 0.40E+00    0.0     0.00000552       -50.9760004676 -1.61E-10
    11 TBLite/Diag 0.40E+00    0.0     0.00000182       -50.9760004677 -2.63E-11
    12 TBLite/Diag 0.40E+00    0.0     0.00000129       -50.9760004677 -6.08E-12
    13 TBLite/Diag 0.40E+00    0.0     0.00000021       -50.9760004677  7.11E-15
    14 TBLite/Diag 0.40E+00    0.0     0.00000013       -50.9760004677 -4.26E-14
    15 TBLite/Diag 0.40E+00    0.0     4.6277E-09       -50.9760004677 -3.55E-14
    16 TBLite/Diag 0.40E+00    0.0     4.6201E-09       -50.9760004677  4.97E-14
    17 TBLite/Diag 0.40E+00    0.0     2.4774E-09       -50.9760004677  4.97E-14
    18 TBLite/Diag 0.40E+00    0.0     2.0495E-10       -50.9760004677 -1.14E-13

  *** SCF run converged in    18 steps ***


  Core Hamiltonian energy:                                    -52.02795253776177
  Repulsive potential energy:                                   1.10015530544241
  Electrostatic energy:                                         0.03736535067958
  Self-consistent dispersion energy:                           -0.10579535781099
  Non-self consistent dispersion energy:                        0.02022677177946
  Correction for halogen bonding:                               0.00000000000000
  Electronic entropic energy:                                  -0.00000000000000
  Fermi energy:                                                -0.31028150151029

  Total energy:                                               -50.97600046767131
  Total energy (extrapolated to T->0):                        -50.97600046767131

 ENERGY| Total FORCE_EVAL ( QS ) energy [hartree]            -50.976000467671312

 OPT| **************************************************************************
 OPT| Step number                                                              1
 OPT| Optimization method                                                   BFGS
 OPT| Total energy [hartree]                                      -50.9760004677
 OPT| Internal pressure [bar]                                   43957.2130601248
 OPT| Effective energy change [hartree]                            -0.1180630816
 OPT| Predicted energy change [hartree]                            -0.1688257222
 OPT| Scaling factor                                                0.0000000000
 OPT| Step size                                                     0.1270142210
 OPT| Trust radius                                                  0.4724315332
 OPT| Decrease in energy                                                     YES
 OPT| Used time [s]                                                        1.027
 OPT|
 OPT| Maximum step size                                             0.1270142210
 OPT| Convergence limit for maximum step size                       0.0030000000
 OPT| Maximum step size is converged                                          NO
 OPT|
 OPT| RMS step size                                                 0.0544229251
 OPT| Convergence limit for RMS step size                           0.0015000000
 OPT| RMS step size is converged                                              NO
 OPT|
 OPT| Maximum gradient                                              0.0450608148
 OPT| Convergence limit for maximum gradient                        0.0004500000
 OPT| Maximum gradient is converged                                           NO
 OPT|
 OPT| RMS gradient                                                  0.0171264358
 OPT| Convergence limit for RMS gradient                            0.0003000000
 OPT| RMS gradient is converged                                               NO
 OPT|
 OPT| Pressure deviation [bar]                                  43957.2130601248
 OPT| Pressure tolerance [bar]                                    100.0000000000
 OPT| Pressure is converged                                                   NO
 OPT| **************************************************************************
 OPT| Estimated peak process memory after this step [MiB]                    166

 --------------------------
 OPTIMIZATION STEP:      2
 --------------------------

 CELL| Volume [angstrom^3]:                                           348.204627
 CELL| Vector a [angstrom]:       8.095     0.000     0.000   |a| =     8.095105
 CELL| Vector b [angstrom]:       0.000     6.022     0.000   |b| =     6.021814
 CELL| Vector c [angstrom]:      -4.917    -0.000     7.143   |c| =     8.672003
 CELL| Angle (b,c), alpha [degree]:                                    90.000000
 CELL| Angle (a,c), beta  [degree]:                                   124.543808
 CELL| Angle (a,b), gamma [degree]:                                    90.000000
 CELL| Numerically orthorhombic:                                              NO
 CELL| Periodicity                                                           XYZ

 Extrapolation method: ASPC

 Number of electrons:                                                         96
 Number of occupied orbitals:                                                 48
 Number of molecular orbitals:                                                96

 Number of orbital functions:                                                 96
 Number of independent orbital functions:                                     96


 SCF WAVEFUNCTION OPTIMIZATION

  Step     Update method      Time    Convergence         Total energy    Change
  ------------------------------------------------------------------------------
     1 TBLite/Diag 0.40E+00    0.0     0.03475445       -50.9903288710 -5.10E+01
     2 TBLite/Diag 0.40E+00    0.0     0.00507456       -50.9904330237 -1.04E-04
     3 TBLite/Diag 0.40E+00    0.0     0.00414434       -50.9904072414  2.58E-05
     4 TBLite/Diag 0.40E+00    0.0     0.00256243       -50.9904579735 -5.07E-05
     5 TBLite/Diag 0.40E+00    0.0     0.00063404       -50.9904593970 -1.42E-06
     6 TBLite/Diag 0.40E+00    0.0     0.00019240       -50.9904597756 -3.79E-07
     7 TBLite/Diag 0.40E+00    0.0     0.00003155       -50.9904597767 -1.07E-09
     8 TBLite/Diag 0.40E+00    0.0     0.00001630       -50.9904597782 -1.54E-09
     9 TBLite/Diag 0.40E+00    0.0     0.00000367       -50.9904597783 -5.53E-11
    10 TBLite/Diag 0.40E+00    0.0     0.00000139       -50.9904597783 -1.66E-11
    11 TBLite/Diag 0.40E+00    0.0     0.00000023       -50.9904597783 -5.83E-13
    12 TBLite/Diag 0.40E+00    0.0     0.00000024       -50.9904597783 -1.56E-13
    13 TBLite/Diag 0.40E+00    0.0     0.00000015       -50.9904597783 -3.55E-14
    14 TBLite/Diag 0.40E+00    0.0     8.1101E-09       -50.9904597783 -2.13E-14
    15 TBLite/Diag 0.40E+00    0.0     5.8674E-09       -50.9904597783 -2.13E-14
    16 TBLite/Diag 0.40E+00    0.0     1.4651E-09       -50.9904597783  5.68E-14
    17 TBLite/Diag 0.40E+00    0.0     3.2497E-10       -50.9904597783  0.00E+00

  *** SCF run converged in    17 steps ***


  Core Hamiltonian energy:                                    -51.98689619063975
  Repulsive potential energy:                                   1.04292030411460
  Electrostatic energy:                                         0.03855396589486
  Self-consistent dispersion energy:                           -0.10502252167415
  Non-self consistent dispersion energy:                        0.01998466403601
  Correction for halogen bonding:                               0.00000000000000
  Electronic entropic energy:                                  -0.00000000000000
  Fermi energy:                                                -0.31704964965638

  Total energy:                                               -50.99045977826842
  Total energy (extrapolated to T->0):                        -50.99045977826842

 ENERGY| Total FORCE_EVAL ( QS ) energy [hartree]            -50.990459778268423

 OPT| **************************************************************************
 OPT| Step number                                                              2
 OPT| Optimization method                                                   BFGS
 OPT| Total energy [hartree]                                      -50.9904597783
 OPT| Internal pressure [bar]                                   15922.9323203312
 OPT| Effective energy change [hartree]                            -0.0144593106
 OPT| Predicted energy change [hartree]                            -0.0129099538
 OPT| Scaling factor                                                0.0000000000
 OPT| Step size                                                     0.0391313303
 OPT| Trust radius                                                  0.4724315332
 OPT| Decrease in energy                                                     YES
 OPT| Used time [s]                                                        1.025
 OPT|
 OPT| Maximum step size                                             0.0391313303
 OPT| Convergence limit for maximum step size                       0.0030000000
 OPT| Maximum step size is converged                                          NO
 OPT|
 OPT| RMS step size                                                 0.0134604485
 OPT| Convergence limit for RMS step size                           0.0015000000
 OPT| RMS step size is converged                                              NO
 OPT|
 OPT| Maximum gradient                                              0.0211865755
 OPT| Convergence limit for maximum gradient                        0.0004500000
 OPT| Maximum gradient is converged                                           NO
 OPT|
 OPT| RMS gradient                                                  0.0046681622
 OPT| Convergence limit for RMS gradient                            0.0003000000
 OPT| RMS gradient is converged                                               NO
 OPT|
 OPT| Pressure deviation [bar]                                  15922.9323203312
 OPT| Pressure tolerance [bar]                                    100.0000000000
 OPT| Pressure is converged                                                   NO
 OPT| **************************************************************************
 OPT| Estimated peak process memory after this step [MiB]                    167

 --------------------------
 OPTIMIZATION STEP:      3
 --------------------------

 CELL| Volume [angstrom^3]:                                           349.411486
 CELL| Vector a [angstrom]:       8.096     0.000     0.000   |a| =     8.096431
 CELL| Vector b [angstrom]:       0.000     6.036     0.000   |b| =     6.036153
 CELL| Vector c [angstrom]:      -4.917    -0.000     7.150   |c| =     8.677401
 CELL| Angle (b,c), alpha [degree]:                                    90.000000
 CELL| Angle (a,c), beta  [degree]:                                   124.519196
 CELL| Angle (a,b), gamma [degree]:                                    90.000000
 CELL| Numerically orthorhombic:                                              NO
 CELL| Periodicity                                                           XYZ

 Extrapolation method: ASPC

 Number of electrons:                                                         96
 Number of occupied orbitals:                                                 48
 Number of molecular orbitals:                                                96

 Number of orbital functions:                                                 96
 Number of independent orbital functions:                                     96


 SCF WAVEFUNCTION OPTIMIZATION

  Step     Update method      Time    Convergence         Total energy    Change
  ------------------------------------------------------------------------------
     1 TBLite/Diag 0.40E+00    0.0     0.01061241       -50.9923025804 -5.10E+01
     2 TBLite/Diag 0.40E+00    0.0     0.00163710       -50.9923105632 -7.98E-06
     3 TBLite/Diag 0.40E+00    0.0     0.00200279       -50.9922980714  1.25E-05
     4 TBLite/Diag 0.40E+00    0.0     0.00146664       -50.9923145416 -1.65E-05
     5 TBLite/Diag 0.40E+00    0.0     0.00015286       -50.9923146296 -8.80E-08
     6 TBLite/Diag 0.40E+00    0.0     0.00006373       -50.9923146810 -5.13E-08
     7 TBLite/Diag 0.40E+00    0.0     0.00002339       -50.9923146812 -2.31E-10
     8 TBLite/Diag 0.40E+00    0.0     0.00001056       -50.9923146819 -6.80E-10
     9 TBLite/Diag 0.40E+00    0.0     0.00000066       -50.9923146819 -1.93E-12
    10 TBLite/Diag 0.40E+00    0.0     0.00000038       -50.9923146819 -3.77E-13
    11 TBLite/Diag 0.40E+00    0.0     0.00000020       -50.9923146819 -5.68E-14
    12 TBLite/Diag 0.40E+00    0.0     0.00000012       -50.9923146819 -8.53E-14
    13 TBLite/Diag 0.40E+00    0.0     0.00000007       -50.9923146819  3.55E-14
    14 TBLite/Diag 0.40E+00    0.0     9.6392E-09       -50.9923146819 -9.24E-14
    15 TBLite/Diag 0.40E+00    0.0     3.8697E-09       -50.9923146819 -1.42E-14
    16 TBLite/Diag 0.40E+00    0.0     1.9663E-09       -50.9923146819  7.11E-14
    17 TBLite/Diag 0.40E+00    0.0     5.2396E-10       -50.9923146819 -2.13E-14

  *** SCF run converged in    17 steps ***


  Core Hamiltonian energy:                                    -51.96987759149162
  Repulsive potential energy:                                   1.02334717563002
  Electrostatic energy:                                         0.03900178569878
  Self-consistent dispersion energy:                           -0.10462032935754
  Non-self consistent dispersion energy:                        0.01983427762763
  Correction for halogen bonding:                               0.00000000000000
  Electronic entropic energy:                                  -0.00000000000000
  Fermi energy:                                                -0.31694048357476

  Total energy:                                               -50.99231468189273
  Total energy (extrapolated to T->0):                        -50.99231468189273

 ENERGY| Total FORCE_EVAL ( QS ) energy [hartree]            -50.992314681892729

 OPT| **************************************************************************
 OPT| Step number                                                              3
 OPT| Optimization method                                                   BFGS
 OPT| Total energy [hartree]                                      -50.9923146819
 OPT| Internal pressure [bar]                                    4419.7655739055
 OPT| Effective energy change [hartree]                            -0.0018549036
 OPT| Predicted energy change [hartree]                            -0.0014717735
 OPT| Scaling factor                                                0.0000000000
 OPT| Step size                                                     0.0270964061
 OPT| Trust radius                                                  0.4724315332
 OPT| Decrease in energy                                                     YES
 OPT| Used time [s]                                                        1.005
 OPT|
 OPT| Maximum step size                                             0.0270964061
 OPT| Convergence limit for maximum step size                       0.0030000000
 OPT| Maximum step size is converged                                          NO
 OPT|
 OPT| RMS step size                                                 0.0055787814
 OPT| Convergence limit for RMS step size                           0.0015000000
 OPT| RMS step size is converged                                              NO
 OPT|
 OPT| Maximum gradient                                              0.0086813373
 OPT| Convergence limit for maximum gradient                        0.0004500000
 OPT| Maximum gradient is converged                                           NO
 OPT|
 OPT| RMS gradient                                                  0.0018943926
 OPT| Convergence limit for RMS gradient                            0.0003000000
 OPT| RMS gradient is converged                                               NO
 OPT|
 OPT| Pressure deviation [bar]                                   4419.7655739055
 OPT| Pressure tolerance [bar]                                    100.0000000000
 OPT| Pressure is converged                                                   NO
 OPT| **************************************************************************
 OPT| Estimated peak process memory after this step [MiB]                    167

 --------------------------
 OPTIMIZATION STEP:      4
 --------------------------

 CELL| Volume [angstrom^3]:                                           350.116207
 CELL| Vector a [angstrom]:       8.097     0.000     0.000   |a| =     8.096930
 CELL| Vector b [angstrom]:       0.000     6.045     0.000   |b| =     6.045150
 CELL| Vector c [angstrom]:      -4.916     0.000     7.153   |c| =     8.679223
 CELL| Angle (b,c), alpha [degree]:                                    90.000000
 CELL| Angle (a,c), beta  [degree]:                                   124.498049
 CELL| Angle (a,b), gamma [degree]:                                    90.000000
 CELL| Numerically orthorhombic:                                              NO
 CELL| Periodicity                                                           XYZ

 Extrapolation method: ASPC

 Number of electrons:                                                         96
 Number of occupied orbitals:                                                 48
 Number of molecular orbitals:                                                96

 Number of orbital functions:                                                 96
 Number of independent orbital functions:                                     96


 SCF WAVEFUNCTION OPTIMIZATION

  Step     Update method      Time    Convergence         Total energy    Change
  ------------------------------------------------------------------------------
     1 TBLite/Diag 0.40E+00    0.0     0.00395992       -50.9927442043 -5.10E+01
     2 TBLite/Diag 0.40E+00    0.0     0.00060763       -50.9927454050 -1.20E-06
     3 TBLite/Diag 0.40E+00    0.0     0.00071029       -50.9927438781  1.53E-06
     4 TBLite/Diag 0.40E+00    0.0     0.00057152       -50.9927458133 -1.94E-06
     5 TBLite/Diag 0.40E+00    0.0     0.00007288       -50.9927458304 -1.71E-08
     6 TBLite/Diag 0.40E+00    0.0     0.00002612       -50.9927458396 -9.18E-09
     7 TBLite/Diag 0.40E+00    0.0     0.00000433       -50.9927458397 -4.33E-11
     8 TBLite/Diag 0.40E+00    0.0     0.00000214       -50.9927458397 -1.66E-11
     9 TBLite/Diag 0.40E+00    0.0     0.00000128       -50.9927458397 -4.24E-12
    10 TBLite/Diag 0.40E+00    0.0     0.00000065       -50.9927458397 -6.61E-13
    11 TBLite/Diag 0.40E+00    0.0     0.00000032       -50.9927458397 -1.78E-13
    12 TBLite/Diag 0.40E+00    0.0     0.00000014       -50.9927458397 -9.24E-14
    13 TBLite/Diag 0.40E+00    0.0     0.00000007       -50.9927458397 -2.13E-14
    14 TBLite/Diag 0.40E+00    0.0     3.9381E-09       -50.9927458397 -9.24E-14
    15 TBLite/Diag 0.40E+00    0.0     2.3151E-09       -50.9927458397  1.42E-13
    16 TBLite/Diag 0.40E+00    0.0     1.0381E-09       -50.9927458397 -7.11E-15
    17 TBLite/Diag 0.40E+00    0.0     2.1886E-10       -50.9927458397 -1.42E-14

  *** SCF run converged in    17 steps ***


  Core Hamiltonian energy:                                    -51.95992987273632
  Repulsive potential energy:                                   1.01257594296458
  Electrostatic energy:                                         0.03927032982673
  Self-consistent dispersion energy:                           -0.10441437439551
  Non-self consistent dispersion energy:                        0.01975213464671
  Correction for halogen bonding:                               0.00000000000000
  Electronic entropic energy:                                  -0.00000000000000
  Fermi energy:                                                -0.31677525171002

  Total energy:                                               -50.99274583969379
  Total energy (extrapolated to T->0):                        -50.99274583969379

 ENERGY| Total FORCE_EVAL ( QS ) energy [hartree]            -50.992745839693789

 OPT| **************************************************************************
 OPT| Step number                                                              4
 OPT| Optimization method                                                   BFGS
 OPT| Total energy [hartree]                                      -50.9927458397
 OPT| Internal pressure [bar]                                   -1427.9871309085
 OPT| Effective energy change [hartree]                            -0.0004311578
 OPT| Predicted energy change [hartree]                            -0.0003237015
 OPT| Scaling factor                                                0.0000000000
 OPT| Step size                                                     0.0170034919
 OPT| Trust radius                                                  0.4724315332
 OPT| Decrease in energy                                                     YES
 OPT| Used time [s]                                                        1.000
 OPT|
 OPT| Maximum step size                                             0.0170034919
 OPT| Convergence limit for maximum step size                       0.0030000000
 OPT| Maximum step size is converged                                          NO
 OPT|
 OPT| RMS step size                                                 0.0032068124
 OPT| Convergence limit for RMS step size                           0.0015000000
 OPT| RMS step size is converged                                              NO
 OPT|
 OPT| Maximum gradient                                              0.0031418301
 OPT| Convergence limit for maximum gradient                        0.0004500000
 OPT| Maximum gradient is converged                                           NO
 OPT|
 OPT| RMS gradient                                                  0.0011614409
 OPT| Convergence limit for RMS gradient                            0.0003000000
 OPT| RMS gradient is converged                                               NO
 OPT|
 OPT| Pressure deviation [bar]                                  -1427.9871309085
 OPT| Pressure tolerance [bar]                                    100.0000000000
 OPT| Pressure is converged                                                   NO
 OPT| **************************************************************************
 OPT| Estimated peak process memory after this step [MiB]                    167

 --------------------------
 OPTIMIZATION STEP:      5
 --------------------------

 CELL| Volume [angstrom^3]:                                           350.452919
 CELL| Vector a [angstrom]:       8.097     0.000     0.000   |a| =     8.096856
 CELL| Vector b [angstrom]:      -0.000     6.051     0.000   |b| =     6.050513
 CELL| Vector c [angstrom]:      -4.913     0.000     7.154   |c| =     8.678169
 CELL| Angle (b,c), alpha [degree]:                                    90.000000
 CELL| Angle (a,c), beta  [degree]:                                   124.480943
 CELL| Angle (a,b), gamma [degree]:                                    90.000000
 CELL| Numerically orthorhombic:                                              NO
 CELL| Periodicity                                                           XYZ

 Extrapolation method: ASPC

 Number of electrons:                                                         96
 Number of occupied orbitals:                                                 48
 Number of molecular orbitals:                                                96

 Number of orbital functions:                                                 96
 Number of independent orbital functions:                                     96


 SCF WAVEFUNCTION OPTIMIZATION

  Step     Update method      Time    Convergence         Total energy    Change
  ------------------------------------------------------------------------------
     1 TBLite/Diag 0.40E+00    0.0     0.00298646       -50.9929445742 -5.10E+01
     2 TBLite/Diag 0.40E+00    0.0     0.00045863       -50.9929450766 -5.02E-07
     3 TBLite/Diag 0.40E+00    0.0     0.00055632       -50.9929443081  7.68E-07
     4 TBLite/Diag 0.40E+00    0.0     0.00042788       -50.9929452633 -9.55E-07
     5 TBLite/Diag 0.40E+00    0.0     0.00004753       -50.9929452740 -1.07E-08
     6 TBLite/Diag 0.40E+00    0.0     0.00001103       -50.9929452756 -1.63E-09
     7 TBLite/Diag 0.40E+00    0.0     0.00000448       -50.9929452756 -4.22E-11
     8 TBLite/Diag 0.40E+00    0.0     0.00000213       -50.9929452757 -2.49E-11
     9 TBLite/Diag 0.40E+00    0.0     0.00000074       -50.9929452757 -1.80E-12
    10 TBLite/Diag 0.40E+00    0.0     0.00000059       -50.9929452757 -3.27E-13
    11 TBLite/Diag 0.40E+00    0.0     0.00000028       -50.9929452757 -1.35E-13
    12 TBLite/Diag 0.40E+00    0.0     0.00000008       -50.9929452757 -3.55E-14
    13 TBLite/Diag 0.40E+00    0.0     0.00000005       -50.9929452757  2.84E-14
    14 TBLite/Diag 0.40E+00    0.0     2.5295E-09       -50.9929452757 -7.11E-15
    15 TBLite/Diag 0.40E+00    0.0     1.1995E-09       -50.9929452757 -2.13E-14
    16 TBLite/Diag 0.40E+00    0.0     6.0513E-10       -50.9929452757  4.26E-14

  *** SCF run converged in    16 steps ***


  Core Hamiltonian energy:                                    -51.95508434093913
  Repulsive potential energy:                                   1.00732860269370
  Electrostatic energy:                                         0.03942236286387
  Self-consistent dispersion energy:                           -0.10432466722428
  Non-self consistent dispersion energy:                        0.01971276694102
  Correction for halogen bonding:                               0.00000000000000
  Electronic entropic energy:                                  -0.00000000000000
  Fermi energy:                                                -0.31666116004316

  Total energy:                                               -50.99294527566482
  Total energy (extrapolated to T->0):                        -50.99294527566482

 ENERGY| Total FORCE_EVAL ( QS ) energy [hartree]            -50.992945275664816

 OPT| **************************************************************************
 OPT| Step number                                                              5
 OPT| Optimization method                                                   BFGS
 OPT| Total energy [hartree]                                      -50.9929452757
 OPT| Internal pressure [bar]                                   -4052.0403429421
 OPT| Effective energy change [hartree]                            -0.0001994360
 OPT| Predicted energy change [hartree]                            -0.0001345091
 OPT| Scaling factor                                                0.0000000000
 OPT| Step size                                                     0.0101343901
 OPT| Trust radius                                                  0.4724315332
 OPT| Decrease in energy                                                     YES
 OPT| Used time [s]                                                        0.997
 OPT|
 OPT| Maximum step size                                             0.0101343901
 OPT| Convergence limit for maximum step size                       0.0030000000
 OPT| Maximum step size is converged                                          NO
 OPT|
 OPT| RMS step size                                                 0.0024410944
 OPT| Convergence limit for RMS step size                           0.0015000000
 OPT| RMS step size is converged                                              NO
 OPT|
 OPT| Maximum gradient                                              0.0026526368
 OPT| Convergence limit for maximum gradient                        0.0004500000
 OPT| Maximum gradient is converged                                           NO
 OPT|
 OPT| RMS gradient                                                  0.0009611681
 OPT| Convergence limit for RMS gradient                            0.0003000000
 OPT| RMS gradient is converged                                               NO
 OPT|
 OPT| Pressure deviation [bar]                                  -4052.0403429421
 OPT| Pressure tolerance [bar]                                    100.0000000000
 OPT| Pressure is converged                                                   NO
 OPT| **************************************************************************
 OPT| Estimated peak process memory after this step [MiB]                    168

 --------------------------
 OPTIMIZATION STEP:      6
 --------------------------

 CELL| Volume [angstrom^3]:                                           350.564177
 CELL| Vector a [angstrom]:       8.096     0.000     0.000   |a| =     8.095931
 CELL| Vector b [angstrom]:      -0.000     6.054     0.000   |b| =     6.053891
 CELL| Vector c [angstrom]:      -4.908     0.000     7.153   |c| =     8.674832
 CELL| Angle (b,c), alpha [degree]:                                    90.000000
 CELL| Angle (a,c), beta  [degree]:                                   124.459400
 CELL| Angle (a,b), gamma [degree]:                                    90.000000
 CELL| Numerically orthorhombic:                                              NO
 CELL| Periodicity                                                           XYZ

 Extrapolation method: ASPC

 Number of electrons:                                                         96
 Number of occupied orbitals:                                                 48
 Number of molecular orbitals:                                                96

 Number of orbital functions:                                                 96
 Number of independent orbital functions:                                     96


 SCF WAVEFUNCTION OPTIMIZATION

  Step     Update method      Time    Convergence         Total energy    Change
  ------------------------------------------------------------------------------
     1 TBLite/Diag 0.40E+00    0.0     0.00331388       -50.9931378339 -5.10E+01
     2 TBLite/Diag 0.40E+00    0.0     0.00044256       -50.9931382192 -3.85E-07
     3 TBLite/Diag 0.40E+00    0.0     0.00060259       -50.9931371397  1.08E-06
     4 TBLite/Diag 0.40E+00    0.0     0.00044790       -50.9931384402 -1.30E-06
     5 TBLite/Diag 0.40E+00    0.0     0.00003621       -50.9931384443 -4.13E-09
     6 TBLite/Diag 0.40E+00    0.0     0.00001548       -50.9931384471 -2.81E-09
     7 TBLite/Diag 0.40E+00    0.0     0.00000661       -50.9931384472 -1.32E-10
     8 TBLite/Diag 0.40E+00    0.0     0.00000115       -50.9931384473 -1.10E-11
     9 TBLite/Diag 0.40E+00    0.0     0.00000077       -50.9931384473 -2.59E-12
    10 TBLite/Diag 0.40E+00    0.0     0.00000047       -50.9931384473 -3.27E-13
    11 TBLite/Diag 0.40E+00    0.0     0.00000023       -50.9931384473 -6.39E-14
    12 TBLite/Diag 0.40E+00    0.0     0.00000007       -50.9931384473 -2.84E-14
    13 TBLite/Diag 0.40E+00    0.0     0.00000002       -50.9931384473 -4.26E-14
    14 TBLite/Diag 0.40E+00    0.0     3.7015E-09       -50.9931384473 -7.82E-14
    15 TBLite/Diag 0.40E+00    0.0     1.0987E-09       -50.9931384473  8.53E-14
    16 TBLite/Diag 0.40E+00    0.0     4.3705E-10       -50.9931384473 -1.42E-14

  *** SCF run converged in    16 steps ***


  Core Hamiltonian energy:                                    -51.95317286976314
  Repulsive potential energy:                                   1.00513762855425
  Electrostatic energy:                                         0.03950338979119
  Self-consistent dispersion energy:                           -0.10430384657377
  Non-self consistent dispersion energy:                        0.01969725072951
  Correction for halogen bonding:                               0.00000000000000
  Electronic entropic energy:                                  -0.00000000000000
  Fermi energy:                                                -0.31652730808157

  Total energy:                                               -50.99313844726197
  Total energy (extrapolated to T->0):                        -50.99313844726197

 ENERGY| Total FORCE_EVAL ( QS ) energy [hartree]            -50.993138447261970

 OPT| **************************************************************************
 OPT| Step number                                                              6
 OPT| Optimization method                                                   BFGS
 OPT| Total energy [hartree]                                      -50.9931384473
 OPT| Internal pressure [bar]                                   -4985.6044399202
 OPT| Effective energy change [hartree]                            -0.0001931716
 OPT| Predicted energy change [hartree]                            -0.0001302946
 OPT| Scaling factor                                                0.0000000000
 OPT| Step size                                                     0.0086514649
 OPT| Trust radius                                                  0.4724315332
 OPT| Decrease in energy                                                     YES
 OPT| Used time [s]                                                        0.996
 OPT|
 OPT| Maximum step size                                             0.0086514649
 OPT| Convergence limit for maximum step size                       0.0030000000
 OPT| Maximum step size is converged                                          NO
 OPT|
 OPT| RMS step size                                                 0.0032065237
 OPT| Convergence limit for RMS step size                           0.0015000000
 OPT| RMS step size is converged                                              NO
 OPT|
 OPT| Maximum gradient                                              0.0053319855
 OPT| Convergence limit for maximum gradient                        0.0004500000
 OPT| Maximum gradient is converged                                           NO
 OPT|
 OPT| RMS gradient                                                  0.0009431619
 OPT| Convergence limit for RMS gradient                            0.0003000000
 OPT| RMS gradient is converged                                               NO
 OPT|
 OPT| Pressure deviation [bar]                                  -4985.6044399202
 OPT| Pressure tolerance [bar]                                    100.0000000000
 OPT| Pressure is converged                                                   NO
 OPT| **************************************************************************
 OPT| Estimated peak process memory after this step [MiB]                    168

 --------------------------
 OPTIMIZATION STEP:      7
 --------------------------

 CELL| Volume [angstrom^3]:                                           350.359436
 CELL| Vector a [angstrom]:       8.094     0.000     0.000   |a| =     8.093921
 CELL| Vector b [angstrom]:      -0.000     6.053     0.000   |b| =     6.053493
 CELL| Vector c [angstrom]:      -4.903     0.000     7.151   |c| =     8.670162
 CELL| Angle (b,c), alpha [degree]:                                    90.000000
 CELL| Angle (a,c), beta  [degree]:                                   124.436984
 CELL| Angle (a,b), gamma [degree]:                                    90.000000
 CELL| Numerically orthorhombic:                                              NO
 CELL| Periodicity                                                           XYZ

 Extrapolation method: ASPC

 Number of electrons:                                                         96
 Number of occupied orbitals:                                                 48
 Number of molecular orbitals:                                                96

 Number of orbital functions:                                                 96
 Number of independent orbital functions:                                     96


 SCF WAVEFUNCTION OPTIMIZATION

  Step     Update method      Time    Convergence         Total energy    Change
  ------------------------------------------------------------------------------
     1 TBLite/Diag 0.40E+00    0.0     0.00327705       -50.9933058523 -5.10E+01
     2 TBLite/Diag 0.40E+00    0.0     0.00032205       -50.9933061399 -2.88E-07
     3 TBLite/Diag 0.40E+00    0.0     0.00050341       -50.9933048089  1.33E-06
     4 TBLite/Diag 0.40E+00    0.0     0.00037187       -50.9933063802 -1.57E-06
     5 TBLite/Diag 0.40E+00    0.0     0.00001999       -50.9933063816 -1.39E-09
     6 TBLite/Diag 0.40E+00    0.0     0.00001226       -50.9933063826 -1.01E-09
     7 TBLite/Diag 0.40E+00    0.0     0.00000483       -50.9933063827 -1.00E-10
     8 TBLite/Diag 0.40E+00    0.0     0.00000271       -50.9933063828 -3.17E-11
     9 TBLite/Diag 0.40E+00    0.0     0.00000062       -50.9933063828 -2.91E-12
    10 TBLite/Diag 0.40E+00    0.0     0.00000027       -50.9933063828 -2.63E-13
    11 TBLite/Diag 0.40E+00    0.0     0.00000010       -50.9933063828  7.11E-14
    12 TBLite/Diag 0.40E+00    0.0     0.00000004       -50.9933063828 -1.92E-13
    13 TBLite/Diag 0.40E+00    0.0     0.00000001       -50.9933063828  2.84E-14
    14 TBLite/Diag 0.40E+00    0.0     2.8008E-09       -50.9933063828  3.55E-14
    15 TBLite/Diag 0.40E+00    0.0     1.0583E-09       -50.9933063828 -4.97E-14
    16 TBLite/Diag 0.40E+00    0.0     4.3474E-10       -50.9933063828  3.55E-14

  *** SCF run converged in    16 steps ***


  Core Hamiltonian energy:                                    -51.95526990820863
  Repulsive potential energy:                                   1.00715320998645
  Electrostatic energy:                                         0.03946791221763
  Self-consistent dispersion energy:                           -0.10437542004207
  Non-self consistent dispersion energy:                        0.01971782329132
  Correction for halogen bonding:                               0.00000000000000
  Electronic entropic energy:                                  -0.00000000000000
  Fermi energy:                                                -0.31640011674349

  Total energy:                                               -50.99330638275531
  Total energy (extrapolated to T->0):                        -50.99330638275531

 ENERGY| Total FORCE_EVAL ( QS ) energy [hartree]            -50.993306382755307

 OPT| **************************************************************************
 OPT| Step number                                                              7
 OPT| Optimization method                                                   BFGS
 OPT| Total energy [hartree]                                      -50.9933063828
 OPT| Internal pressure [bar]                                   -3759.0685923721
 OPT| Effective energy change [hartree]                            -0.0001679355
 OPT| Predicted energy change [hartree]                            -0.0001176312
 OPT| Scaling factor                                                0.0000000000
 OPT| Step size                                                     0.0102798221
 OPT| Trust radius                                                  0.4724315332
 OPT| Decrease in energy                                                     YES
 OPT| Used time [s]                                                        0.996
 OPT|
 OPT| Maximum step size                                             0.0102798221
 OPT| Convergence limit for maximum step size                       0.0030000000
 OPT| Maximum step size is converged                                          NO
 OPT|
 OPT| RMS step size                                                 0.0037036695
 OPT| Convergence limit for RMS step size                           0.0015000000
 OPT| RMS step size is converged                                              NO
 OPT|
 OPT| Maximum gradient                                              0.0059868534
 OPT| Convergence limit for maximum gradient                        0.0004500000
 OPT| Maximum gradient is converged                                           NO
 OPT|
 OPT| RMS gradient                                                  0.0008584546
 OPT| Convergence limit for RMS gradient                            0.0003000000
 OPT| RMS gradient is converged                                               NO
 OPT|
 OPT| Pressure deviation [bar]                                  -3759.0685923721
 OPT| Pressure tolerance [bar]                                    100.0000000000
 OPT| Pressure is converged                                                   NO
 OPT| **************************************************************************
 OPT| Estimated peak process memory after this step [MiB]                    168

 --------------------------
 OPTIMIZATION STEP:      8
 --------------------------

 CELL| Volume [angstrom^3]:                                           349.941467
 CELL| Vector a [angstrom]:       8.091     0.000     0.000   |a| =     8.091309
 CELL| Vector b [angstrom]:      -0.000     6.049     0.000   |b| =     6.049272
 CELL| Vector c [angstrom]:      -4.899     0.000     7.149   |c| =     8.666964
 CELL| Angle (b,c), alpha [degree]:                                    90.000000
 CELL| Angle (a,c), beta  [degree]:                                   124.420651
 CELL| Angle (a,b), gamma [degree]:                                    90.000000
 CELL| Numerically orthorhombic:                                              NO
 CELL| Periodicity                                                           XYZ

 Extrapolation method: ASPC

 Number of electrons:                                                         96
 Number of occupied orbitals:                                                 48
 Number of molecular orbitals:                                                96

 Number of orbital functions:                                                 96
 Number of independent orbital functions:                                     96


 SCF WAVEFUNCTION OPTIMIZATION

  Step     Update method      Time    Convergence         Total energy    Change
  ------------------------------------------------------------------------------
     1 TBLite/Diag 0.40E+00    0.0     0.00230274       -50.9934133621 -5.10E+01
     2 TBLite/Diag 0.40E+00    0.0     0.00023984       -50.9934135890 -2.27E-07
     3 TBLite/Diag 0.40E+00    0.0     0.00039879       -50.9934127165  8.72E-07
     4 TBLite/Diag 0.40E+00    0.0     0.00027523       -50.9934137472 -1.03E-06
     5 TBLite/Diag 0.40E+00    0.0     0.00002614       -50.9934137492 -2.02E-09
     6 TBLite/Diag 0.40E+00    0.0     0.00001133       -50.9934137498 -5.36E-10
     7 TBLite/Diag 0.40E+00    0.0     0.00000308       -50.9934137498 -3.33E-11
     8 TBLite/Diag 0.40E+00    0.0     0.00000092       -50.9934137498 -5.72E-12
     9 TBLite/Diag 0.40E+00    0.0     0.00000030       -50.9934137498 -5.54E-13
    10 TBLite/Diag 0.40E+00    0.0     0.00000013       -50.9934137498 -9.24E-14
    11 TBLite/Diag 0.40E+00    0.0     0.00000007       -50.9934137498 -1.21E-13
    12 TBLite/Diag 0.40E+00    0.0     0.00000002       -50.9934137498  7.82E-14
    13 TBLite/Diag 0.40E+00    0.0     0.00000001       -50.9934137498  4.97E-14
    14 TBLite/Diag 0.40E+00    0.0     2.4200E-09       -50.9934137498 -7.11E-15
    15 TBLite/Diag 0.40E+00    0.0     7.2808E-10       -50.9934137498  3.55E-14

  *** SCF run converged in    15 steps ***


  Core Hamiltonian energy:                                    -51.95995409418563
  Repulsive potential energy:                                   1.01194097075116
  Electrostatic energy:                                         0.03934242547496
  Self-consistent dispersion energy:                           -0.10450817365682
  Non-self consistent dispersion energy:                        0.01976512180582
  Correction for halogen bonding:                               0.00000000000000
  Electronic entropic energy:                                  -0.00000000000000
  Fermi energy:                                                -0.31630324935364

  Total energy:                                               -50.99341374981050
  Total energy (extrapolated to T->0):                        -50.99341374981050

 ENERGY| Total FORCE_EVAL ( QS ) energy [hartree]            -50.993413749810500

 OPT| **************************************************************************
 OPT| Step number                                                              8
 OPT| Optimization method                                                   BFGS
 OPT| Total energy [hartree]                                      -50.9934137498
 OPT| Internal pressure [bar]                                   -1216.5620513338
 OPT| Effective energy change [hartree]                            -0.0001073671
 OPT| Predicted energy change [hartree]                            -0.0000797659
 OPT| Scaling factor                                                0.0000000000
 OPT| Step size                                                     0.0079770133
 OPT| Trust radius                                                  0.4724315332
 OPT| Decrease in energy                                                     YES
 OPT| Used time [s]                                                        0.994
 OPT|
 OPT| Maximum step size                                             0.0079770133
 OPT| Convergence limit for maximum step size                       0.0030000000
 OPT| Maximum step size is converged                                          NO
 OPT|
 OPT| RMS step size                                                 0.0030829120
 OPT| Convergence limit for RMS step size                           0.0015000000
 OPT| RMS step size is converged                                              NO
 OPT|
 OPT| Maximum gradient                                              0.0042121683
 OPT| Convergence limit for maximum gradient                        0.0004500000
 OPT| Maximum gradient is converged                                           NO
 OPT|
 OPT| RMS gradient                                                  0.0006331129
 OPT| Convergence limit for RMS gradient                            0.0003000000
 OPT| RMS gradient is converged                                               NO
 OPT|
 OPT| Pressure deviation [bar]                                  -1216.5620513338
 OPT| Pressure tolerance [bar]                                    100.0000000000
 OPT| Pressure is converged                                                   NO
 OPT| **************************************************************************
 OPT| Estimated peak process memory after this step [MiB]                    168

 --------------------------
 OPTIMIZATION STEP:      9
 --------------------------

 CELL| Volume [angstrom^3]:                                           349.573699
 CELL| Vector a [angstrom]:       8.089     0.000     0.000   |a| =     8.088927
 CELL| Vector b [angstrom]:      -0.000     6.044     0.000   |b| =     6.044071
 CELL| Vector c [angstrom]:      -4.898     0.000     7.150   |c| =     8.666976
 CELL| Angle (b,c), alpha [degree]:                                    90.000000
 CELL| Angle (a,c), beta  [degree]:                                   124.412133
 CELL| Angle (a,b), gamma [degree]:                                    90.000000
 CELL| Numerically orthorhombic:                                              NO
 CELL| Periodicity                                                           XYZ

 Extrapolation method: ASPC

 Number of electrons:                                                         96
 Number of occupied orbitals:                                                 48
 Number of molecular orbitals:                                                96

 Number of orbital functions:                                                 96
 Number of independent orbital functions:                                     96


 SCF WAVEFUNCTION OPTIMIZATION

  Step     Update method      Time    Convergence         Total energy    Change
  ------------------------------------------------------------------------------
     1 TBLite/Diag 0.40E+00    0.0     0.00153605       -50.9934707990 -5.10E+01
     2 TBLite/Diag 0.40E+00    0.0     0.00019363       -50.9934709368 -1.38E-07
     3 TBLite/Diag 0.40E+00    0.0     0.00023213       -50.9934706590  2.78E-07
     4 TBLite/Diag 0.40E+00    0.0     0.00015827       -50.9934709967 -3.38E-07
     5 TBLite/Diag 0.40E+00    0.0     0.00002230       -50.9934709994 -2.77E-09
     6 TBLite/Diag 0.40E+00    0.0     0.00000806       -50.9934709997 -2.77E-10
     7 TBLite/Diag 0.40E+00    0.0     0.00000276       -50.9934709997 -1.64E-11
     8 TBLite/Diag 0.40E+00    0.0     0.00000138       -50.9934709998 -1.56E-11
     9 TBLite/Diag 0.40E+00    0.0     0.00000035       -50.9934709998 -4.62E-13
    10 TBLite/Diag 0.40E+00    0.0     0.00000020       -50.9934709998 -2.20E-13
    11 TBLite/Diag 0.40E+00    0.0     0.00000005       -50.9934709998 -8.53E-14
    12 TBLite/Diag 0.40E+00    0.0     0.00000003       -50.9934709998  7.11E-14
    13 TBLite/Diag 0.40E+00    0.0     0.00000002       -50.9934709998 -7.11E-14
    14 TBLite/Diag 0.40E+00    0.0     1.3204E-09       -50.9934709998 -7.11E-15
    15 TBLite/Diag 0.40E+00    0.0     2.1448E-10       -50.9934709998  7.82E-14

  *** SCF run converged in    15 steps ***


  Core Hamiltonian energy:                                    -51.96369976517848
  Repulsive potential energy:                                   1.01581898198611
  Electrostatic energy:                                         0.03922894339989
  Self-consistent dispersion energy:                           -0.10462634268004
  Non-self consistent dispersion energy:                        0.01980718271578
  Correction for halogen bonding:                               0.00000000000000
  Electronic entropic energy:                                  -0.00000000000000
  Fermi energy:                                                -0.31625954212810

  Total energy:                                               -50.99347099975673
  Total energy (extrapolated to T->0):                        -50.99347099975673

 ENERGY| Total FORCE_EVAL ( QS ) energy [hartree]            -50.993470999756731

 OPT| **************************************************************************
 OPT| Step number                                                              9
 OPT| Optimization method                                                   BFGS
 OPT| Total energy [hartree]                                      -50.9934709998
 OPT| Internal pressure [bar]                                     754.7197921336
 OPT| Effective energy change [hartree]                            -0.0000572499
 OPT| Predicted energy change [hartree]                            -0.0000420152
 OPT| Scaling factor                                                0.0000000000
 OPT| Step size                                                     0.0098286306
 OPT| Trust radius                                                  0.4724315332
 OPT| Decrease in energy                                                     YES
 OPT| Used time [s]                                                        0.994
 OPT|
 OPT| Maximum step size                                             0.0098286306
 OPT| Convergence limit for maximum step size                       0.0030000000
 OPT| Maximum step size is converged                                          NO
 OPT|
 OPT| RMS step size                                                 0.0019213518
 OPT| Convergence limit for RMS step size                           0.0015000000
 OPT| RMS step size is converged                                              NO
 OPT|
 OPT| Maximum gradient                                              0.0030092981
 OPT| Convergence limit for maximum gradient                        0.0004500000
 OPT| Maximum gradient is converged                                           NO
 OPT|
 OPT| RMS gradient                                                  0.0004823672
 OPT| Convergence limit for RMS gradient                            0.0003000000
 OPT| RMS gradient is converged                                               NO
 OPT|
 OPT| Pressure deviation [bar]                                    754.7197921336
 OPT| Pressure tolerance [bar]                                    100.0000000000
 OPT| Pressure is converged                                                   NO
 OPT| **************************************************************************
 OPT| Estimated peak process memory after this step [MiB]                    168

 --------------------------
 OPTIMIZATION STEP:     10
 --------------------------

 CELL| Volume [angstrom^3]:                                           349.308761
 CELL| Vector a [angstrom]:       8.087     0.000     0.000   |a| =     8.086527
 CELL| Vector b [angstrom]:      -0.000     6.039     0.000   |b| =     6.039042
 CELL| Vector c [angstrom]:      -4.899     0.000     7.153   |c| =     8.669540
 CELL| Angle (b,c), alpha [degree]:                                    90.000000
 CELL| Angle (a,c), beta  [degree]:                                   124.405857
 CELL| Angle (a,b), gamma [degree]:                                    90.000000
 CELL| Numerically orthorhombic:                                              NO
 CELL| Periodicity                                                           XYZ

 Extrapolation method: ASPC

 Number of electrons:                                                         96
 Number of occupied orbitals:                                                 48
 Number of molecular orbitals:                                                96

 Number of orbital functions:                                                 96
 Number of independent orbital functions:                                     96


 SCF WAVEFUNCTION OPTIMIZATION

  Step     Update method      Time    Convergence         Total energy    Change
  ------------------------------------------------------------------------------
     1 TBLite/Diag 0.40E+00    0.0     0.00096789       -50.9935124625 -5.10E+01
     2 TBLite/Diag 0.40E+00    0.0     0.00011036       -50.9935125492 -8.67E-08
     3 TBLite/Diag 0.40E+00    0.0     0.00013719       -50.9935124735  7.57E-08
     4 TBLite/Diag 0.40E+00    0.0     0.00009875       -50.9935125864 -1.13E-07
     5 TBLite/Diag 0.40E+00    0.0     0.00002184       -50.9935125875 -1.05E-09
     6 TBLite/Diag 0.40E+00    0.0     0.00001090       -50.9935125884 -9.06E-10
     7 TBLite/Diag 0.40E+00    0.0     0.00000409       -50.9935125884 -3.71E-11
     8 TBLite/Diag 0.40E+00    0.0     0.00000224       -50.9935125885 -2.75E-11
     9 TBLite/Diag 0.40E+00    0.0     0.00000050       -50.9935125885 -7.25E-13
    10 TBLite/Diag 0.40E+00    0.0     0.00000021       -50.9935125885 -2.91E-13
    11 TBLite/Diag 0.40E+00    0.0     0.00000008       -50.9935125885  2.84E-14
    12 TBLite/Diag 0.40E+00    0.0     0.00000005       -50.9935125885  4.97E-14
    13 TBLite/Diag 0.40E+00    0.0     0.00000002       -50.9935125885 -2.84E-14
    14 TBLite/Diag 0.40E+00    0.0     1.2716E-09       -50.9935125885 -7.11E-15
    15 TBLite/Diag 0.40E+00    0.0     5.3774E-10       -50.9935125885 -4.26E-14

  *** SCF run converged in    15 steps ***


  Core Hamiltonian energy:                                    -51.96552912633720
  Repulsive potential energy:                                   1.01773395262195
  Electrostatic energy:                                         0.03916448293599
  Self-consistent dispersion energy:                           -0.10471851387605
  Non-self consistent dispersion energy:                        0.01983661619487
  Correction for halogen bonding:                               0.00000000000000
  Electronic entropic energy:                                  -0.00000000000000
  Fermi energy:                                                -0.31625102953183

  Total energy:                                               -50.99351258846044
  Total energy (extrapolated to T->0):                        -50.99351258846044

 ENERGY| Total FORCE_EVAL ( QS ) energy [hartree]            -50.993512588460440

 OPT| **************************************************************************
 OPT| Step number                                                             10
 OPT| Optimization method                                                   BFGS
 OPT| Total energy [hartree]                                      -50.9935125885
 OPT| Internal pressure [bar]                                    1698.0527664060
 OPT| Effective energy change [hartree]                            -0.0000415887
 OPT| Predicted energy change [hartree]                            -0.0000294675
 OPT| Scaling factor                                                0.0000000000
 OPT| Step size                                                     0.0095030756
 OPT| Trust radius                                                  0.4724315332
 OPT| Decrease in energy                                                     YES
 OPT| Used time [s]                                                        0.996
 OPT|
 OPT| Maximum step size                                             0.0095030756
 OPT| Convergence limit for maximum step size                       0.0030000000
 OPT| Maximum step size is converged                                          NO
 OPT|
 OPT| RMS step size                                                 0.0015917625
 OPT| Convergence limit for RMS step size                           0.0015000000
 OPT| RMS step size is converged                                              NO
 OPT|
 OPT| Maximum gradient                                              0.0027694366
 OPT| Convergence limit for maximum gradient                        0.0004500000
 OPT| Maximum gradient is converged                                           NO
 OPT|
 OPT| RMS gradient                                                  0.0004451664
 OPT| Convergence limit for RMS gradient                            0.0003000000
 OPT| RMS gradient is converged                                               NO
 OPT|
 OPT| Pressure deviation [bar]                                   1698.0527664060
 OPT| Pressure tolerance [bar]                                    100.0000000000
 OPT| Pressure is converged                                                   NO
 OPT| **************************************************************************
 OPT| Estimated peak process memory after this step [MiB]                    168

 --------------------------
 OPTIMIZATION STEP:     11
 --------------------------

 CELL| Volume [angstrom^3]:                                           349.142710
 CELL| Vector a [angstrom]:       8.084     0.000     0.000   |a| =     8.083844
 CELL| Vector b [angstrom]:      -0.000     6.034     0.000   |b| =     6.034471
 CELL| Vector c [angstrom]:      -4.901     0.000     7.157   |c| =     8.674168
 CELL| Angle (b,c), alpha [degree]:                                    90.000000
 CELL| Angle (a,c), beta  [degree]:                                   124.399176
 CELL| Angle (a,b), gamma [degree]:                                    90.000000
 CELL| Numerically orthorhombic:                                              NO
 CELL| Periodicity                                                           XYZ

 Extrapolation method: ASPC

 Number of electrons:                                                         96
 Number of occupied orbitals:                                                 48
 Number of molecular orbitals:                                                96

 Number of orbital functions:                                                 96
 Number of independent orbital functions:                                     96


 SCF WAVEFUNCTION OPTIMIZATION

  Step     Update method      Time    Convergence         Total energy    Change
  ------------------------------------------------------------------------------
     1 TBLite/Diag 0.40E+00    0.0     0.00096870       -50.9935469789 -5.10E+01
     2 TBLite/Diag 0.40E+00    0.0     0.00008451       -50.9935470457 -6.68E-08
     3 TBLite/Diag 0.40E+00    0.0     0.00011630       -50.9935470574 -1.18E-08
     4 TBLite/Diag 0.40E+00    0.0     0.00007402       -50.9935470837 -2.62E-08
     5 TBLite/Diag 0.40E+00    0.0     0.00001518       -50.9935470853 -1.64E-09
     6 TBLite/Diag 0.40E+00    0.0     0.00001000       -50.9935470858 -5.31E-10
     7 TBLite/Diag 0.40E+00    0.0     0.00000449       -50.9935470859 -7.42E-11
     8 TBLite/Diag 0.40E+00    0.0     0.00000183       -50.9935470859 -9.58E-12
     9 TBLite/Diag 0.40E+00    0.0     0.00000064       -50.9935470859 -3.80E-12
    10 TBLite/Diag 0.40E+00    0.0     0.00000014       -50.9935470859 -6.39E-14
    11 TBLite/Diag 0.40E+00    0.0     0.00000010       -50.9935470859  7.11E-15
    12 TBLite/Diag 0.40E+00    0.0     0.00000006       -50.9935470859 -4.97E-14
    13 TBLite/Diag 0.40E+00    0.0     0.00000001       -50.9935470859  9.95E-14
    14 TBLite/Diag 0.40E+00    0.0     1.5798E-09       -50.9935470859 -1.42E-14
    15 TBLite/Diag 0.40E+00    0.0     6.7249E-10       -50.9935470859  2.13E-14

  *** SCF run converged in    15 steps ***


  Core Hamiltonian energy:                                    -51.96527575881915
  Repulsive potential energy:                                   1.01750254211579
  Electrostatic energy:                                         0.03915819749988
  Self-consistent dispersion energy:                           -0.10478788083901
  Non-self consistent dispersion energy:                        0.01985581412618
  Correction for halogen bonding:                               0.00000000000000
  Electronic entropic energy:                                  -0.00000000000000
  Fermi energy:                                                -0.31627372615910

  Total energy:                                               -50.99354708591630
  Total energy (extrapolated to T->0):                        -50.99354708591630

 ENERGY| Total FORCE_EVAL ( QS ) energy [hartree]            -50.993547085916305

 OPT| **************************************************************************
 OPT| Step number                                                             11
 OPT| Optimization method                                                   BFGS
 OPT| Total energy [hartree]                                      -50.9935470859
 OPT| Internal pressure [bar]                                    1549.7631985706
 OPT| Effective energy change [hartree]                            -0.0000344975
 OPT| Predicted energy change [hartree]                            -0.0000259811
 OPT| Scaling factor                                                0.0000000000
 OPT| Step size                                                     0.0086376947
[...]
 OPT| Estimated peak process memory after this step [MiB]                    169

 --------------------------
 OPTIMIZATION STEP:    175
 --------------------------

 CELL| Volume [angstrom^3]:                                           301.595435
 CELL| Vector a [angstrom]:       9.138     0.000     0.000   |a| =     9.137599
 CELL| Vector b [angstrom]:      -0.000     4.026     0.000   |b| =     4.026419
 CELL| Vector c [angstrom]:      -4.378     0.000     8.197   |c| =     9.293173
 CELL| Angle (b,c), alpha [degree]:                                    89.999983
 CELL| Angle (a,c), beta  [degree]:                                   118.105281
 CELL| Angle (a,b), gamma [degree]:                                    90.000028
 CELL| Numerically orthorhombic:                                              NO
 CELL| Periodicity                                                           XYZ

 Extrapolation method: ASPC

 Number of electrons:                                                         96
 Number of occupied orbitals:                                                 48
 Number of molecular orbitals:                                                96

 Number of orbital functions:                                                 96
 Number of independent orbital functions:                                     96


 SCF WAVEFUNCTION OPTIMIZATION

  Step     Update method      Time    Convergence         Total energy    Change
  ------------------------------------------------------------------------------
     1 TBLite/Diag 0.40E+00    0.0     0.00032805       -51.0951343798 -5.11E+01
     2 TBLite/Diag 0.40E+00    0.0     0.00001337       -51.0951343811 -1.24E-09
     3 TBLite/Diag 0.40E+00    0.0     0.00001378       -51.0951343806  4.52E-10
     4 TBLite/Diag 0.40E+00    0.0     0.00001166       -51.0951343812 -6.45E-10
     5 TBLite/Diag 0.40E+00    0.0     0.00000308       -51.0951343813 -2.83E-11
     6 TBLite/Diag 0.40E+00    0.0     0.00000060       -51.0951343813 -3.77E-12
     7 TBLite/Diag 0.40E+00    0.0     0.00000029       -51.0951343813 -5.33E-13
     8 TBLite/Diag 0.40E+00    0.0     0.00000018       -51.0951343813 -2.06E-13
     9 TBLite/Diag 0.40E+00    0.0     0.00000013       -51.0951343813 -6.39E-14
    10 TBLite/Diag 0.40E+00    0.0     0.00000007       -51.0951343813  5.68E-14
    11 TBLite/Diag 0.40E+00    0.0     0.00000002       -51.0951343813 -6.39E-14
    12 TBLite/Diag 0.40E+00    0.0     4.5408E-09       -51.0951343813  5.68E-14
    13 TBLite/Diag 0.40E+00    0.0     1.7489E-09       -51.0951343813 -7.11E-15
    14 TBLite/Diag 0.40E+00    0.0     1.4948E-09       -51.0951343813 -7.11E-14
    15 TBLite/Diag 0.40E+00    0.0     9.1456E-10       -51.0951343813  3.55E-14

  *** SCF run converged in    15 steps ***


  Core Hamiltonian energy:                                    -51.96059148064897
  Repulsive potential energy:                                   0.92176183067221
  Electrostatic energy:                                         0.03188523991158
  Self-consistent dispersion energy:                           -0.11160578800958
  Non-self consistent dispersion energy:                        0.02341581679304
  Correction for halogen bonding:                               0.00000000000000
  Electronic entropic energy:                                  -0.00000000000000
  Fermi energy:                                                -0.27361919897511

  Total energy:                                               -51.09513438128172
  Total energy (extrapolated to T->0):                        -51.09513438128172

 ENERGY| Total FORCE_EVAL ( QS ) energy [hartree]            -51.095134381281724

 OPT| **************************************************************************
 OPT| Step number                                                            175
 OPT| Optimization method                                                   BFGS
 OPT| Total energy [hartree]                                      -51.0951343813
 OPT| Internal pressure [bar]                                     -79.3834097113
 OPT| Effective energy change [hartree]                             0.0000008518
 OPT| Predicted energy change [hartree]                            -0.0000001242
 OPT| Scaling factor                                                0.3624890952
 OPT| Step size                                                     0.0022900740
 OPT| Trust radius                                                  0.4724315332
 OPT| Decrease in energy                                                      NO
 OPT| Used time [s]                                                        1.260
 OPT|
 OPT| Maximum step size                                             0.0022900740
 OPT| Convergence limit for maximum step size                       0.0030000000
 OPT| Maximum step size is converged                                         YES
 OPT|
 OPT| RMS step size                                                 0.0003696973
 OPT| Convergence limit for RMS step size                           0.0015000000
 OPT| RMS step size is converged                                             YES
 OPT|
 OPT| Maximum gradient                                              0.0001166114
 OPT| Convergence limit for maximum gradient                        0.0004500000
 OPT| Maximum gradient is converged                                          YES
 OPT|
 OPT| RMS gradient                                                  0.0000266980
 OPT| Convergence limit for RMS gradient                            0.0003000000
 OPT| RMS gradient is converged                                              YES
 OPT|
 OPT| Pressure deviation [bar]                                    -79.3834097113
 OPT| Pressure tolerance [bar]                                    100.0000000000
 OPT| Pressure is converged                                                  YES
 OPT| **************************************************************************
 OPT| Estimated peak process memory after this step [MiB]                    169

 *******************************************************************************
 ***                    GEOMETRY OPTIMIZATION COMPLETED                      ***
 *******************************************************************************

 write_final_structure: Optimization converged, writing XYZ file gladly:
  naphthalene_GFN2_gamma_cell_opt-FINAL-1_175.xyz

 write_final_structure: Optimization converged, writing CIF file gladly:
  naphthalene_GFN2_gamma_cell_opt-FINAL-1_175.cif

 write_final_structure: Done!

                    Reevaluating energy at the minimum

 CELL| Volume [angstrom^3]:                                           301.595435
 CELL| Vector a [angstrom]:       9.138     0.000     0.000   |a| =     9.137599
 CELL| Vector b [angstrom]:      -0.000     4.026     0.000   |b| =     4.026419
 CELL| Vector c [angstrom]:      -4.378     0.000     8.197   |c| =     9.293173
 CELL| Angle (b,c), alpha [degree]:                                    89.999983
 CELL| Angle (a,c), beta  [degree]:                                   118.105281
 CELL| Angle (a,b), gamma [degree]:                                    90.000028
 CELL| Numerically orthorhombic:                                              NO
 CELL| Periodicity                                                           XYZ

 Extrapolation method: ASPC

 Number of electrons:                                                         96
 Number of occupied orbitals:                                                 48
 Number of molecular orbitals:                                                96

 Number of orbital functions:                                                 96
 Number of independent orbital functions:                                     96


 SCF WAVEFUNCTION OPTIMIZATION

  Step     Update method      Time    Convergence         Total energy    Change
  ------------------------------------------------------------------------------
     1 TBLite/Diag 0.40E+00    0.0     4.5448E-10       -51.0951343813 -5.11E+01

  *** SCF run converged in     1 steps ***


  Core Hamiltonian energy:                                    -51.96059148065032
  Repulsive potential energy:                                   0.92176183067221
  Electrostatic energy:                                         0.03188523991187
  Self-consistent dispersion energy:                           -0.11160578800852
  Non-self consistent dispersion energy:                        0.02341581679304
  Correction for halogen bonding:                               0.00000000000000
  Electronic entropic energy:                                  -0.00000000000000
  Fermi energy:                                                -0.27361919898358

  Total energy:                                               -51.09513438128172
  Total energy (extrapolated to T->0):                        -51.09513438128172

 ENERGY| Total FORCE_EVAL ( QS ) energy [hartree]            -51.095134381281717

 -------------------------------------------------------------------------------
 -                                                                             -
 -                                DBCSR STATISTICS                             -
 -                                                                             -
 -------------------------------------------------------------------------------
 COUNTER                                    TOTAL       BLAS       SMM       ACC
 flops     1 x    32 x     1             42762240       0.0%    100.0%      0.0%     
 flops     1 x     1 x    96             84263424       0.0%    100.0%      0.0%     
 flops     1 x    32 x     4            213811200       0.0%    100.0%      0.0%     
 flops     4 x    32 x     1            213811200       0.0%    100.0%      0.0%     
 flops     1 x     4 x    96            396533760       0.0%    100.0%      0.0%     
 flops     4 x     1 x    96            396533760       0.0%    100.0%      0.0%     
 flops     4 x    32 x     4           1069056000       0.0%    100.0%      0.0%     
 flops     4 x     4 x    96           2081802240       0.0%    100.0%      0.0%     
 flops inhomo. stacks                           0       0.0%      0.0%      0.0%
 flops total                         4.498574E+09       0.0%    100.0%      0.0%
 flops max/rank                      4.498574E+09       0.0%    100.0%      0.0%
 matmuls inhomo. stacks                         0       0.0%      0.0%      0.0%
 matmuls total                            5531742       0.0%    100.0%      0.0%
 number of processed stacks                 17258       0.0%    100.0%      0.0%
 average stack size                                     0.0     320.5       0.0
 marketing flops                     4.394484E+09
 -------------------------------------------------------------------------------
 # multiplications                           4097
 max memory usage/rank              13.674865E+09
 # max total images/rank                        1
 # max 3D layers                                1
 # MPI messages exchanged                       0
 -------------------------------------------------------------------------------
 -                                                                             -
 -                      DBCSR MESSAGE PASSING PERFORMANCE                      -
 -                                                                             -
 -------------------------------------------------------------------------------
 ROUTINE             CALLS      AVE VOLUME [Bytes]
 MP_Bcast                9                     12.
 MP_Allreduce        18780                      8.
 MP_Alltoall        138902                  51690.
 MP_ISend            16388                   4683.
 MP_IRecv            16388                   4683.
 -------------------------------------------------------------------------------

 -------------------------------------------------------------------------------
 -                                                                             -
 -                          OFFLOAD MEMPOOL STATISTICS                         -
 -                                                                             -
 -------------------------------------------------------------------------------
 Memory consumption                Number of allocations  Used [MiB]  Size [MiB]
 Device                                                2           0           0
 Host                                                  2           0           0
 -------------------------------------------------------------------------------

 MEMORY| Estimated peak process memory [MiB]                                 169

 -------------------------------------------------------------------------------
 -                                                                             -
 -                         MESSAGE PASSING PERFORMANCE                         -
 -                                                                             -
 -------------------------------------------------------------------------------

 ROUTINE             CALLS      AVE VOLUME [Bytes]
 MP_Group              176
 MP_Bcast             6452                    390.
 MP_Allreduce        94200                    282.
 MP_Sync              3402
 MP_comm_split        3226
 -------------------------------------------------------------------------------


 -------------------------------------------------------------------------------
 -                                                                             -
 -                           R E F E R E N C E S                               -
 -                                                                             -
 -------------------------------------------------------------------------------
 
 CP2K version 2026.1 (Development Version), the CP2K developers group (2026).
 CP2K is freely available from https://www.cp2k.org/ .
 
 M. Iannuzzi, J. Wilhelm, F. Stein, A. Bussy, H. Elgabarty, D. Golze, A. Hehn, 
 M. Graml, S. Marek, B. Sertcan Gökmen, C. Schran, H. Forbert, R. Z. 
 Khaliullin, A. Kozhevnikov, M. Taillefumier, R. Meli, V. V. Rybkin, M. Brehm, 
 R. Schade, O. Schütt, J. V. Pototschnig, H. Mirhosseini, A. Knüpfer, D. Marx, 
 M. Krack, J. Hutter, T. D. Kühne.
 J. Phys. Chem. B 130, 1237-1310 (2026).
 The CP2K Program Package Made Simple.
 https://doi.org/10.1021/acs.jpcb.5c05851

 A. Katbashev, M. Stahn, T. Rose, V. Alizadeh, M. Friede, C. Plett, P. 
 Steinbach, S. Ehlert.
 J. Phys. Chem. A 129, 2667-2682 (2025).
 Overview on Building Blocks and Applications of Efficient and Robust Extended 
 Tight Binding.
 https://doi.org/10.1021/acs.jpca.4c08263

 T. D. Kühne, M. Iannuzzi, M. Del Ben, V. V. Rybkin, P. Seewald, F. Stein, T. 
 Laino, R. Z. Khaliullin, O. Schütt, F. Schiffmann, D. Golze, J. Wilhelm, S. 
 Chulkov, M. H. Bani-Hashemian, V. Weber, U. Borstnik, M. Taillefumier, A. S. 
 Jakobovits, A. Lazzaro, H. Pabst, T. Müller, R. Schade, M. Guidon, S. 
 Andermatt, N. Holmberg, G. K. Schenter, A. Hehn, A. Bussy, F. Belleflamme, G. 
 Tabacchi, A. Glöß, M. Lass, I. Bethune, C. J. Mundy, C. Plessl, M. Watkins, 
 J. VandeVondele, M. Krack, J. Hutter.
 J. Chem. Phys. 152, 194103 (2020).
 CP2K: An electronic structure and molecular dynamics software package - 
 Quickstep: Efficient and accurate electronic structure calculations.
 https://doi.org/10.1063/5.0007045

 P. Pracht, E. Caldeweyher, S. Ehlert, S. Grimme.
 ChemRxiv, (2019).
 A Robust Non-Self-Consistent Tight-Binding Quantum Chemistry Method for large 
 Molecules.
 https://doi.org/10.26434/chemrxiv.8326202.v1

 S. Grimme, C. Bannwarth, P. Shushkov.
 J. Chem. Theory Comput. 13, 1989 (2017).
 A Robust and Accurate Tight-Binding Quantum Chemical Method for Structures, 
 Vibrational Frequencies, and Noncovalent Interactions of Large Molecular 
 Systems Parametrized for All spd-Block Elements (Z = 1-86).
 https://doi.org/10.1021/acs.jctc.7b00118

 O. Schuett, P. Messmer, J. Hutter, J. VandeVondele.
 Electronic Structure Calculations on Graphics Processing Units, 173-190 (2016).
 GPU-Accelerated Sparse Matrix-Matrix Multiplication for Linear Scaling Density 
 Functional Theory.
 https://doi.org/10.1002/9781118670712.ch8

 A. Heinecke, G. Henry, M. Hutchinson, H. Pabst.
 Proceedings of Intl. Supercomputing Conference, 981-991 (2016).
 LIBXSMM: Accelerating Small Matrix Multiplications by Runtime Code Generation.
 https://doi.org/10.1109/SC.2016.83

 U. Borstnik, J. VandeVondele, V. Weber, J. Hutter.
 Parallel Comput. 40, 47-58 (2014).
 Sparse matrix multiplication: The distributed block-compressed sparse row 
 library.
 https://doi.org/10.1016/j.parco.2014.03.012

 T. D. Kühne, M. Krack, F. R. Mohamed, M. Parrinello.
 Phys. Rev. Lett. 98, 066401 (2007).
 Efficient and accurate Car-Parrinello-like approach to Born-Oppenheimer 
 molecular dynamics.
 https://doi.org/10.1103/PhysRevLett.98.066401

 M. Frigo, S. G. Johnson.
 Proc. IEEE 93, 216-231 (2005).
 The design and implementation of FFTW3.
 https://doi.org/10.1109/JPROC.2004.840301

 J. Kolafa.
 J. Comput. Chem. 25, 335-342 (2004).
 Time-reversible always stable predictor-corrector method for molecular dynamics 
 of polarizable molecules.
 https://doi.org/10.1002/jcc.10385

 N. D. Mermin.
 Phys. Rev. 137, A1441-A1443 (1965).
 Thermal Properties of the Inhomogeneous Electron Gas.
 https://doi.org/10.1103/PhysRev.137.A1441


 -------------------------------------------------------------------------------
 -                                                                             -
 -                                T I M I N G                                  -
 -                                                                             -
 -------------------------------------------------------------------------------
 SUBROUTINE                       CALLS  ASD         SELF TIME        TOTAL TIME
                                MAXIMUM       AVERAGE  MAXIMUM  AVERAGE  MAXIMUM
 CP2K                                 1  1.0    0.002    0.002  200.599  200.599
 cp_cell_opt                          1  2.0    0.000    0.000  200.593  200.593
 geoopt_bfgs                          1  3.0    0.014    0.014  200.593  200.593
 cp_eval_at                         177  4.0    0.014    0.014  200.321  200.321
 qs_forces                          176  5.0    0.007    0.007  199.998  199.998
 build_tblite_matrices              353  7.0  164.913  164.913  169.048  169.048
 qs_energies                        177  6.0    0.004    0.004   59.885   59.885
 qs_energies_init_hamiltonians      177  7.0    0.001    0.001   47.572   47.572
 rebuild_ks_matrix                 3051  9.8    0.002    0.002   22.053   22.053
 build_tblite_ks_matrix            3051 10.8   22.005   22.005   22.051   22.051
 qs_ks_update_qs_env_forces         176  6.0    0.000    0.000   18.732   18.732
 scf_env_do_scf                     177  7.0    0.002    0.002   11.219   11.219
 scf_env_do_scf_inner_loop         2875  8.0    1.684    1.684   11.208   11.208
 qs_scf_new_mos                    2875  9.0    0.009    0.009    5.778    5.778
 -------------------------------------------------------------------------------

 The number of warnings for this run is : 0
 
 -------------------------------------------------------------------------------
  **** **** ******  **  PROGRAM ENDED AT                 2026-05-23 22:51:00.824
 ***** ** ***  *** **   PROGRAM RAN ON                                spark-c86c
 **    ****   ******    PROGRAM RAN BY                                  kuehne88
 ***** **    ** ** **   PROGRAM PROCESS ID                               2269902
  **** **  *******  **  PROGRAM STOPPED IN /home/kuehne88/periodic-gfn2-benchmar
                                           ks/X23b/runs/cellopt_gamma/GFN2/napht
                                           halene_GFN2_gamma_cellopt
