 DBCSR| CPU Multiplication driver                                           XSMM (U)
 DBCSR| Multrec recursion limit                                              512 (U)
 DBCSR| Multiplication stack size                                           1000 (D)
 DBCSR| Maximum elements for images                                    UNLIMITED (U)
 DBCSR| Multiplicative factor virtual images                                   1 (U)
 DBCSR| Use multiplication densification                                       T (D)
 DBCSR| Multiplication size stacks                                             3 (U)
 DBCSR| Use memory pool for CPU allocation                                     F (U)
 DBCSR| Number of 3D layers                                               SINGLE (U)
 DBCSR| Use MPI memory allocation                                              F (U)
 DBCSR| Use RMA algorithm                                                      F (U)
 DBCSR| Use Communication thread                                               T (U)
 DBCSR| Communication thread load                                             87 (D)
 DBCSR| MPI: My process id                                                     0
 DBCSR| MPI: Number of processes                                               1
 DBCSR| OMP: Current number of threads                                         1
 DBCSR| OMP: Max number of threads                                             1
 DBCSR| Split modifier for TAS multiplication algorithm                  1.0E+00 (U)


  **** **** ******  **  PROGRAM STARTED AT               2026-05-23 22:47:25.701
 ***** ** ***  *** **   PROGRAM STARTED ON                            spark-c86c
 **    ****   ******    PROGRAM STARTED BY                              kuehne88
 ***** **    ** ** **   PROGRAM PROCESS ID                               2269003
  **** **  *******  **  PROGRAM STARTED IN /home/kuehne88/periodic-gfn2-benchmar
                                           ks/X23b/runs/cellopt_gamma/GFN2/cytos
                                           ine_GFN2_gamma_cellopt

 CP2K| version string:                 CP2K version 2026.1 (Development Version)
 CP2K| source code revision number:                                   0622d442e4
 CP2K| cp2kflags: omp fftw3 libxc parallel scalapack mpi_f08 xsmm spglib libdftd
 CP2K|            4 dftd4_v3 mctc-lib tblite
 CP2K| is freely available from                            https://www.cp2k.org/
 CP2K| Program compiled at                                   2026-05-23 22:05:08
 CP2K| Program compiled on                                            spark-c86c
 CP2K| Program compiled for                                              aarch64
 CP2K| Data directory path    /home/kuehne88/cp2k-master-tblite-20260523/install
 CP2K| Input file name                           cytosine_GFN2_gamma_cellopt.inp

 GLOBAL| Force Environment number                                              1
 GLOBAL| Basis set file name                                           BASIS_SET
 GLOBAL| Potential file name                                           POTENTIAL
 GLOBAL| MM Potential file name                                     MM_POTENTIAL
 GLOBAL| Coordinate file name                                      __STD_INPUT__
 GLOBAL| Method name                                                        CP2K
 GLOBAL| Project name                               cytosine_GFN2_gamma_cell_opt
 GLOBAL| Run type                                                       CELL_OPT
 GLOBAL| FFT library                                                       FFTW3
 GLOBAL| Diagonalization library                                       ScaLAPACK
 GLOBAL| Cholesky decomposition library                                ScaLAPACK
 GLOBAL| DGEMM library                                                      BLAS
 GLOBAL| Direct generalized diagonalization requested                          F
 GLOBAL| Orthonormality check for eigenvectors                          DISABLED
 GLOBAL| Matrix multiplication library                                 ScaLAPACK
 GLOBAL| All-to-all communication in single precision                          F
 GLOBAL| FFTs using library dependent lengths                                  F
 GLOBAL| Grid backend                                                       AUTO
 GLOBAL| Global print level                                                  LOW
 GLOBAL| MPI I/O enabled                                                       T
 GLOBAL| Total number of message passing processes                             1
 GLOBAL| Number of distributed systems (nodes)                                 1
 GLOBAL| Number of threads for this process                                    1
 GLOBAL| This output is from process                                           0
 GLOBAL| OpenMP stack size per thread (OMP_STACKSIZE)                    default
 GLOBAL| CPU model name                                                  UNKNOWN
 GLOBAL| CPUID                                                              2200
 GLOBAL| Compiled for CPUID                                                 2000

 *** HINT in environment.F:970 :: The compiler target flags (arm_arch64)   ***
 *** used to build this binary cannot exploit all extensions of this CPU   ***
 *** model (arm_sve256). Consider compiler target flags as part of FCFLAGS ***
 *** and CFLAGS (ARCH file).                                               ***


 MEMORY| system memory details [Kb]
 MEMORY|                        rank 0           min           max       average
 MEMORY| MemTotal            125508532     125508532     125508532     125508532
 MEMORY| MemFree             104408956     104408956     104408956     104408956
 MEMORY| Buffers                868020        868020        868020        868020
 MEMORY| Cached               14077984      14077984      14077984      14077984
 MEMORY| Slab                  1596628       1596628       1596628       1596628
 MEMORY| SReclaimable           918488        918488        918488        918488
 MEMORY| MemLikelyFree       120273448     120273448     120273448     120273448


 GENERATE|  Preliminary Number of Bonds generated:                             0
 GENERATE|  Achieved consistency in connectivity generation.


                  #####   #####        #     #   #     #       #          
                 #     # #     #      #    ##### #     #   # #####  ####  
                 #     # #           #       #   ###   #       #   #    # 
                 #     #  #####     #        #   #  #  #   #   #   ###### 
                 #   # #       #   #         #   #   # #   #   #   #      
                 #    #  #     #  #          #   #  #  # # #   #    #   # 
                  #### #  #####  #           #   ###   ##  #   #     ###  

                                   GFN2-xTB  
                                 Version 0.0                       
                            Johann V. Pototschnig                  



 TOTAL NUMBERS AND MAXIMUM NUMBERS

  Total number of            - Atomic kinds:                                   4
                             - Atoms:                                         52
                             - Shell sets:                                    84
                             - Shells:                                        84
                             - Primitive Cartesian functions:                316
                             - Cartesian basis functions:                    148
                             - Spherical basis functions:                    148

  Maximum angular momentum of the orbital basis functions:                     1


 SCF PARAMETERS         Density guess:                                     MOPAC
                        --------------------------------------------------------
                        max_scf:                                             300
                        max_scf_history:                                       0
                        max_diis:                                              4
                        --------------------------------------------------------
                        eps_scf:                                        1.00E-09
                        eps_scf_history:                                0.00E+00
                        eps_diis:                                       1.00E-01
                        eps_eigval:                                     1.00E-05
                        --------------------------------------------------------
                        level_shift [a.u.]:                             0.000000
                        added MOs                                        64    0
                        --------------------------------------------------------
                        Mixing method:                           DIRECT_P_MIXING
                        --------------------------------------------------------
                        Smear method:                                FERMI_DIRAC
                        Electronic temperature [K]:                        300.0
                        Electronic temperature [a.u.]:                  9.50E-04
                        Accuracy threshold:                             1.00E-06
                        --------------------------------------------------------
                        No outer SCF

 CELL_OPT| Pressure tolerance [bar]:                                       100.0
 CELL_OPT| Keep volume of cell:                                               NO
 CELL_OPT| Keep angles between the cell vectors:                              NO
 CELL_OPT| Keep cell symmetry:                                                NO
 CELL_OPT| Constraint:                                                      NONE

 BFGS| Use rational function optimization for step estimation:                NO
 BFGS| Use model Hessian for initial guess:                                   NO
 BFGS| Restart Hessian:                                                       NO
 BFGS| Trust radius:                                                       0.472

 *******************************************************************************
 ***                     STARTING   CELL   OPTIMIZATION                      ***
 ***                                   BFGS                                  ***
 *******************************************************************************

 CELL| Volume [angstrom^3]:                                           472.424253
 CELL| Vector a [angstrom]:      13.044     0.000     0.000   |a| =    13.044000
 CELL| Vector b [angstrom]:       0.000     9.496     0.000   |b| =     9.496000
 CELL| Vector c [angstrom]:       0.000     0.000     3.814   |c| =     3.814000
 CELL| Angle (b,c), alpha [degree]:                                    90.000000
 CELL| Angle (a,c), beta  [degree]:                                    90.000000
 CELL| Angle (a,b), gamma [degree]:                                    90.000000
 CELL| Numerically orthorhombic:                                             YES
 CELL| Periodicity                                                           XYZ

 Extrapolation method: initial_guess

 Number of electrons:                                                        168
 Number of occupied orbitals:                                                 84
 Number of molecular orbitals:                                               148

 Number of orbital functions:                                                148
 Number of independent orbital functions:                                    148


 SCF WAVEFUNCTION OPTIMIZATION

  Step     Update method      Time    Convergence         Total energy    Change
  ------------------------------------------------------------------------------
     1 TBLite/Diag 0.40E+00    0.0     1.16389101       -94.8991149203 -9.49E+01
     2 TBLite/Diag 0.40E+00    0.0     0.28485805       -95.7267218417 -8.28E-01
     3 TBLite/Diag 0.40E+00    0.0     0.10515664       -95.7466927557 -2.00E-02
     4 TBLite/Diag 0.40E+00    0.0     0.08234588       -95.7651769589 -1.85E-02
     5 TBLite/Diag 0.40E+00    0.0     0.03847986       -95.7719582576 -6.78E-03
     6 TBLite/Diag 0.40E+00    0.0     0.01170194       -95.7724409158 -4.83E-04
     7 TBLite/Diag 0.40E+00    0.0     0.00491237       -95.7726081060 -1.67E-04
     8 TBLite/Diag 0.40E+00    0.0     0.00208196       -95.7726298637 -2.18E-05
     9 TBLite/Diag 0.40E+00    0.0     0.00060652       -95.7726331268 -3.26E-06
    10 TBLite/Diag 0.40E+00    0.0     0.00017982       -95.7726334649 -3.38E-07
    11 TBLite/Diag 0.40E+00    0.0     0.00008493       -95.7726334806 -1.57E-08
    12 TBLite/Diag 0.40E+00    0.0     0.00004280       -95.7726334917 -1.11E-08
    13 TBLite/Diag 0.40E+00    0.0     0.00001347       -95.7726334928 -1.08E-09
    14 TBLite/Diag 0.40E+00    0.0     0.00000868       -95.7726334927  7.70E-11
    15 TBLite/Diag 0.40E+00    0.0     0.00000556       -95.7726334930 -2.31E-10
    16 TBLite/Diag 0.40E+00    0.0     0.00000119       -95.7726334930 -1.85E-13
    17 TBLite/Diag 0.40E+00    0.0     0.00000081       -95.7726334930 -2.42E-12
    18 TBLite/Diag 0.40E+00    0.0     0.00000015       -95.7726334930  2.84E-14
    19 TBLite/Diag 0.40E+00    0.0     0.00000008       -95.7726334930 -3.84E-13
    20 TBLite/Diag 0.40E+00    0.0     0.00000005       -95.7726334930  1.85E-13
    21 TBLite/Diag 0.40E+00    0.0     0.00000005       -95.7726334930 -1.42E-14
    22 TBLite/Diag 0.40E+00    0.0     0.00000003       -95.7726334930  5.68E-14
    23 TBLite/Diag 0.40E+00    0.0     5.4188E-09       -95.7726334930  1.42E-14
    24 TBLite/Diag 0.40E+00    0.0     8.9557E-10       -95.7726334930 -8.53E-14

  *** SCF run converged in    24 steps ***


  Core Hamiltonian energy:                                    -97.62109537220618
  Repulsive potential energy:                                   1.71753603643171
  Electrostatic energy:                                         0.25388725124291
  Self-consistent dispersion energy:                           -0.15528298302145
  Non-self consistent dispersion energy:                        0.03232157458149
  Correction for halogen bonding:                               0.00000000000000
  Electronic entropic energy:                                  -0.00000000000000
  Fermi energy:                                                -0.30563270780851

  Total energy:                                               -95.77263349297154
  Total energy (extrapolated to T->0):                        -95.77263349297154

 ENERGY| Total FORCE_EVAL ( QS ) energy [hartree]            -95.772633492971536

 OPT| **************************************************************************
 OPT| Step number                                                              0
 OPT| Optimization method                                                   BFGS
 OPT| Total energy [hartree]                                      -95.7726334930
 OPT| Internal pressure [bar]                                  130600.2616933171
 OPT| Used time [s]                                                        3.813
 OPT| **************************************************************************
 OPT| Estimated peak process memory [MiB]                                    171

 --------------------------
 OPTIMIZATION STEP:      1
 --------------------------

 CELL| Volume [angstrom^3]:                                           485.281674
 CELL| Vector a [angstrom]:      13.080     0.000     0.000   |a| =    13.079710
 CELL| Vector b [angstrom]:      -0.000     9.542     0.000   |b| =     9.542377
 CELL| Vector c [angstrom]:       0.000     0.000     3.888   |c| =     3.888116
 CELL| Angle (b,c), alpha [degree]:                                    90.000000
 CELL| Angle (a,c), beta  [degree]:                                    90.000000
 CELL| Angle (a,b), gamma [degree]:                                    90.000001
 CELL| Numerically orthorhombic:                                              NO
 CELL| Periodicity                                                           XYZ

 Extrapolation method: ASPC

 Number of electrons:                                                        168
 Number of occupied orbitals:                                                 84
 Number of molecular orbitals:                                               148

 Number of orbital functions:                                                148
 Number of independent orbital functions:                                    148


 SCF WAVEFUNCTION OPTIMIZATION

  Step     Update method      Time    Convergence         Total energy    Change
  ------------------------------------------------------------------------------
     1 TBLite/Diag 0.40E+00    0.0     0.12336024       -95.9618997982 -9.60E+01
     2 TBLite/Diag 0.40E+00    0.0     0.04790074       -95.9685819268 -6.68E-03
     3 TBLite/Diag 0.40E+00    0.0     0.01361926       -95.9690532048 -4.71E-04
     4 TBLite/Diag 0.40E+00    0.0     0.00740686       -95.9693356369 -2.82E-04
     5 TBLite/Diag 0.40E+00    0.0     0.00416264       -95.9694271369 -9.15E-05
     6 TBLite/Diag 0.40E+00    0.0     0.00075430       -95.9694290545 -1.92E-06
     7 TBLite/Diag 0.40E+00    0.0     0.00016757       -95.9694292513 -1.97E-07
     8 TBLite/Diag 0.40E+00    0.0     0.00008243       -95.9694293060 -5.47E-08
     9 TBLite/Diag 0.40E+00    0.0     0.00001818       -95.9694293084 -2.36E-09
    10 TBLite/Diag 0.40E+00    0.0     0.00000905       -95.9694293090 -5.81E-10
    11 TBLite/Diag 0.40E+00    0.0     0.00000318       -95.9694293090 -6.86E-11
    12 TBLite/Diag 0.40E+00    0.0     0.00000083       -95.9694293090 -9.95E-13
    13 TBLite/Diag 0.40E+00    0.0     0.00000087       -95.9694293090  8.53E-14
    14 TBLite/Diag 0.40E+00    0.0     0.00000051       -95.9694293090 -1.83E-12
    15 TBLite/Diag 0.40E+00    0.0     0.00000005       -95.9694293090 -9.95E-14
    16 TBLite/Diag 0.40E+00    0.0     0.00000002       -95.9694293090 -8.53E-14
    17 TBLite/Diag 0.40E+00    0.0     9.5151E-09       -95.9694293090  9.95E-14
    18 TBLite/Diag 0.40E+00    0.0     6.6077E-09       -95.9694293090  9.95E-14
    19 TBLite/Diag 0.40E+00    0.0     0.00000001       -95.9694293090  5.68E-14
    20 TBLite/Diag 0.40E+00    0.0     3.3710E-09       -95.9694293090 -1.14E-13
    21 TBLite/Diag 0.40E+00    0.0     1.6477E-09       -95.9694293090  7.11E-14
    22 TBLite/Diag 0.40E+00    0.0     2.1735E-10       -95.9694293090 -1.28E-13

  *** SCF run converged in    22 steps ***


  Core Hamiltonian energy:                                    -97.46833671178643
  Repulsive potential energy:                                   1.35707761849153
  Electrostatic energy:                                         0.26227626381157
  Self-consistent dispersion energy:                           -0.15112457713398
  Non-self consistent dispersion energy:                        0.03067809756850
  Correction for halogen bonding:                               0.00000000000000
  Electronic entropic energy:                                  -0.00000000000000
  Fermi energy:                                                -0.28730244794780

  Total energy:                                               -95.96942930904882
  Total energy (extrapolated to T->0):                        -95.96942930904882

 ENERGY| Total FORCE_EVAL ( QS ) energy [hartree]            -95.969429309048820

 OPT| **************************************************************************
 OPT| Step number                                                              1
 OPT| Optimization method                                                   BFGS
 OPT| Total energy [hartree]                                      -95.9694293090
 OPT| Internal pressure [bar]                                   48892.3199115871
 OPT| Effective energy change [hartree]                            -0.1967958161
 OPT| Predicted energy change [hartree]                            -0.2892217082
 OPT| Scaling factor                                                0.0000000000
 OPT| Step size                                                     0.2145040255
 OPT| Trust radius                                                  0.4724315332
 OPT| Decrease in energy                                                     YES
 OPT| Used time [s]                                                        3.684
 OPT|
 OPT| Maximum step size                                             0.2145040255
 OPT| Convergence limit for maximum step size                       0.0030000000
 OPT| Maximum step size is converged                                          NO
 OPT|
 OPT| RMS step size                                                 0.0597548188
 OPT| Convergence limit for RMS step size                           0.0015000000
 OPT| RMS step size is converged                                              NO
 OPT|
 OPT| Maximum gradient                                              0.0877145702
 OPT| Convergence limit for maximum gradient                        0.0004500000
 OPT| Maximum gradient is converged                                           NO
 OPT|
 OPT| RMS gradient                                                  0.0260741700
 OPT| Convergence limit for RMS gradient                            0.0003000000
 OPT| RMS gradient is converged                                               NO
 OPT|
 OPT| Pressure deviation [bar]                                  48892.3199115871
 OPT| Pressure tolerance [bar]                                    100.0000000000
 OPT| Pressure is converged                                                   NO
 OPT| **************************************************************************
 OPT| Estimated peak process memory after this step [MiB]                    172

 --------------------------
 OPTIMIZATION STEP:      2
 --------------------------

 CELL| Volume [angstrom^3]:                                           492.960543
 CELL| Vector a [angstrom]:      13.087     0.000     0.000   |a| =    13.086977
 CELL| Vector b [angstrom]:      -0.000     9.570     0.000   |b| =     9.570058
 CELL| Vector c [angstrom]:       0.000     0.000     3.936   |c| =     3.936028
 CELL| Angle (b,c), alpha [degree]:                                    90.000000
 CELL| Angle (a,c), beta  [degree]:                                    90.000000
 CELL| Angle (a,b), gamma [degree]:                                    90.000002
 CELL| Numerically orthorhombic:                                              NO
 CELL| Periodicity                                                           XYZ

 Extrapolation method: ASPC

 Number of electrons:                                                        168
 Number of occupied orbitals:                                                 84
 Number of molecular orbitals:                                               148

 Number of orbital functions:                                                148
 Number of independent orbital functions:                                    148


 SCF WAVEFUNCTION OPTIMIZATION

  Step     Update method      Time    Convergence         Total energy    Change
  ------------------------------------------------------------------------------
     1 TBLite/Diag 0.40E+00    0.0     0.10123549       -96.0019605058 -9.60E+01
     2 TBLite/Diag 0.40E+00    0.0     0.06232888       -96.0111313927 -9.17E-03
     3 TBLite/Diag 0.40E+00    0.0     0.01226650       -96.0122692656 -1.14E-03
     4 TBLite/Diag 0.40E+00    0.0     0.00507545       -96.0122046100  6.47E-05
     5 TBLite/Diag 0.40E+00    0.0     0.00386336       -96.0122987119 -9.41E-05
     6 TBLite/Diag 0.40E+00    0.0     0.00061695       -96.0123003011 -1.59E-06
     7 TBLite/Diag 0.40E+00    0.0     0.00016040       -96.0123004633 -1.62E-07
     8 TBLite/Diag 0.40E+00    0.0     0.00008342       -96.0123005123 -4.89E-08
     9 TBLite/Diag 0.40E+00    0.0     0.00001720       -96.0123005145 -2.23E-09
    10 TBLite/Diag 0.40E+00    0.0     0.00001074       -96.0123005154 -9.29E-10
    11 TBLite/Diag 0.40E+00    0.0     0.00000276       -96.0123005155 -4.48E-11
    12 TBLite/Diag 0.40E+00    0.0     0.00000078       -96.0123005155 -6.38E-12
    13 TBLite/Diag 0.40E+00    0.0     0.00000062       -96.0123005155 -6.39E-13
    14 TBLite/Diag 0.40E+00    0.0     0.00000038       -96.0123005155 -4.12E-13
    15 TBLite/Diag 0.40E+00    0.0     0.00000014       -96.0123005155 -2.84E-13
    16 TBLite/Diag 0.40E+00    0.0     0.00000007       -96.0123005155 -1.42E-14
    17 TBLite/Diag 0.40E+00    0.0     0.00000002       -96.0123005155  1.42E-13
    18 TBLite/Diag 0.40E+00    0.0     3.8423E-09       -96.0123005155  4.26E-14
    19 TBLite/Diag 0.40E+00    0.0     2.1291E-09       -96.0123005155 -4.26E-14
    20 TBLite/Diag 0.40E+00    0.0     2.5668E-09       -96.0123005155  1.42E-14
    21 TBLite/Diag 0.40E+00    0.0     6.1076E-10       -96.0123005155 -7.11E-14

  *** SCF run converged in    21 steps ***


  Core Hamiltonian energy:                                    -97.41045464779363
  Repulsive potential energy:                                   1.25964519526667
  Electrostatic energy:                                         0.25703359819093
  Self-consistent dispersion energy:                           -0.14830203501436
  Non-self consistent dispersion energy:                        0.02977737388809
  Correction for halogen bonding:                               0.00000000000000
  Electronic entropic energy:                                  -0.00000000000000
  Fermi energy:                                                -0.29987868959348

  Total energy:                                               -96.01230051546230
  Total energy (extrapolated to T->0):                        -96.01230051546230

 ENERGY| Total FORCE_EVAL ( QS ) energy [hartree]            -96.012300515462300

 OPT| **************************************************************************
 OPT| Step number                                                              2
 OPT| Optimization method                                                   BFGS
 OPT| Total energy [hartree]                                      -96.0123005155
 OPT| Internal pressure [bar]                                   11236.0779887340
 OPT| Effective energy change [hartree]                            -0.0428712064
 OPT| Predicted energy change [hartree]                            -0.0421041271
 OPT| Scaling factor                                                0.0000000000
 OPT| Step size                                                     0.0905419773
 OPT| Trust radius                                                  0.4724315332
 OPT| Decrease in energy                                                     YES
 OPT| Used time [s]                                                        3.614
 OPT|
 OPT| Maximum step size                                             0.0905419773
 OPT| Convergence limit for maximum step size                       0.0030000000
 OPT| Maximum step size is converged                                          NO
 OPT|
 OPT| RMS step size                                                 0.0211207869
 OPT| Convergence limit for RMS step size                           0.0015000000
 OPT| RMS step size is converged                                              NO
 OPT|
 OPT| Maximum gradient                                              0.0624422973
 OPT| Convergence limit for maximum gradient                        0.0004500000
 OPT| Maximum gradient is converged                                           NO
 OPT|
 OPT| RMS gradient                                                  0.0083767493
 OPT| Convergence limit for RMS gradient                            0.0003000000
 OPT| RMS gradient is converged                                               NO
 OPT|
 OPT| Pressure deviation [bar]                                  11236.0779887340
 OPT| Pressure tolerance [bar]                                    100.0000000000
 OPT| Pressure is converged                                                   NO
 OPT| **************************************************************************
 OPT| Estimated peak process memory after this step [MiB]                    173

 --------------------------
 OPTIMIZATION STEP:      3
 --------------------------

 CELL| Volume [angstrom^3]:                                           498.578813
 CELL| Vector a [angstrom]:      13.083     0.000     0.000   |a| =    13.083176
 CELL| Vector b [angstrom]:      -0.000     9.578     0.000   |b| =     9.578447
 CELL| Vector c [angstrom]:       0.000     0.000     3.979   |c| =     3.978556
 CELL| Angle (b,c), alpha [degree]:                                    90.000000
 CELL| Angle (a,c), beta  [degree]:                                    90.000000
 CELL| Angle (a,b), gamma [degree]:                                    90.000002
 CELL| Numerically orthorhombic:                                              NO
 CELL| Periodicity                                                           XYZ

 Extrapolation method: ASPC

 Number of electrons:                                                        168
 Number of occupied orbitals:                                                 84
 Number of molecular orbitals:                                               148

 Number of orbital functions:                                                148
 Number of independent orbital functions:                                    148


 SCF WAVEFUNCTION OPTIMIZATION

  Step     Update method      Time    Convergence         Total energy    Change
  ------------------------------------------------------------------------------
     1 TBLite/Diag 0.40E+00    0.0     0.01530684       -96.0209201505 -9.60E+01
     2 TBLite/Diag 0.40E+00    0.0     0.00878008       -96.0212629997 -3.43E-04
     3 TBLite/Diag 0.40E+00    0.0     0.00283884       -96.0213015419 -3.85E-05
     4 TBLite/Diag 0.40E+00    0.0     0.00102260       -96.0213013800  1.62E-07
     5 TBLite/Diag 0.40E+00    0.0     0.00084030       -96.0213033454 -1.97E-06
     6 TBLite/Diag 0.40E+00    0.0     0.00025065       -96.0213035978 -2.52E-07
     7 TBLite/Diag 0.40E+00    0.0     0.00006146       -96.0213036098 -1.20E-08
     8 TBLite/Diag 0.40E+00    0.0     0.00003451       -96.0213036177 -7.93E-09
     9 TBLite/Diag 0.40E+00    0.0     0.00000328       -96.0213036179 -2.01E-10
    10 TBLite/Diag 0.40E+00    0.0     0.00000209       -96.0213036180 -2.89E-11
    11 TBLite/Diag 0.40E+00    0.0     0.00000055       -96.0213036180 -1.80E-12
    12 TBLite/Diag 0.40E+00    0.0     0.00000029       -96.0213036180 -3.41E-13
    13 TBLite/Diag 0.40E+00    0.0     0.00000019       -96.0213036180 -7.11E-14
    14 TBLite/Diag 0.40E+00    0.0     0.00000010       -96.0213036180 -1.14E-13
    15 TBLite/Diag 0.40E+00    0.0     0.00000001       -96.0213036180  2.13E-13
    16 TBLite/Diag 0.40E+00    0.0     4.3897E-09       -96.0213036180 -2.84E-14
    17 TBLite/Diag 0.40E+00    0.0     3.1093E-09       -96.0213036180 -1.42E-13
    18 TBLite/Diag 0.40E+00    0.0     2.8660E-09       -96.0213036180  4.26E-14
    19 TBLite/Diag 0.40E+00    0.0     4.3176E-09       -96.0213036180  1.14E-13
    20 TBLite/Diag 0.40E+00    0.0     4.0751E-10       -96.0213036180 -3.84E-13

  *** SCF run converged in    20 steps ***


  Core Hamiltonian energy:                                    -97.39792717333718
  Repulsive potential energy:                                   1.23945234842632
  Electrostatic energy:                                         0.25441010627791
  Self-consistent dispersion energy:                           -0.14638815629190
  Non-self consistent dispersion energy:                        0.02914925695972
  Correction for halogen bonding:                               0.00000000000000
  Electronic entropic energy:                                  -0.00000000000000
  Fermi energy:                                                -0.30153262925886

  Total energy:                                               -96.02130361796515
  Total energy (extrapolated to T->0):                        -96.02130361796515

 ENERGY| Total FORCE_EVAL ( QS ) energy [hartree]            -96.021303617965145

 OPT| **************************************************************************
 OPT| Step number                                                              3
 OPT| Optimization method                                                   BFGS
 OPT| Total energy [hartree]                                      -96.0213036180
 OPT| Internal pressure [bar]                                    -433.8628259666
 OPT| Effective energy change [hartree]                            -0.0090031025
 OPT| Predicted energy change [hartree]                            -0.0064549076
 OPT| Scaling factor                                                0.0000000000
 OPT| Step size                                                     0.0803660988
 OPT| Trust radius                                                  0.4724315332
 OPT| Decrease in energy                                                     YES
 OPT| Used time [s]                                                        3.568
 OPT|
 OPT| Maximum step size                                             0.0803660988
 OPT| Convergence limit for maximum step size                       0.0030000000
 OPT| Maximum step size is converged                                          NO
 OPT|
 OPT| RMS step size                                                 0.0098863966
 OPT| Convergence limit for RMS step size                           0.0015000000
 OPT| RMS step size is converged                                              NO
 OPT|
 OPT| Maximum gradient                                              0.0470918419
 OPT| Convergence limit for maximum gradient                        0.0004500000
 OPT| Maximum gradient is converged                                           NO
 OPT|
 OPT| RMS gradient                                                  0.0049670890
 OPT| Convergence limit for RMS gradient                            0.0003000000
 OPT| RMS gradient is converged                                               NO
 OPT|
 OPT| Pressure deviation [bar]                                   -433.8628259666
 OPT| Pressure tolerance [bar]                                    100.0000000000
 OPT| Pressure is converged                                                   NO
 OPT| **************************************************************************
 OPT| Estimated peak process memory after this step [MiB]                    174

 --------------------------
 OPTIMIZATION STEP:      4
 --------------------------

 CELL| Volume [angstrom^3]:                                           506.576326
 CELL| Vector a [angstrom]:      13.071     0.000     0.000   |a| =    13.070865
 CELL| Vector b [angstrom]:      -0.000     9.583     0.000   |b| =     9.583135
 CELL| Vector c [angstrom]:       0.000    -0.000     4.044   |c| =     4.044203
 CELL| Angle (b,c), alpha [degree]:                                    90.000000
 CELL| Angle (a,c), beta  [degree]:                                    90.000000
 CELL| Angle (a,b), gamma [degree]:                                    90.000003
 CELL| Numerically orthorhombic:                                              NO
 CELL| Periodicity                                                           XYZ

 Extrapolation method: ASPC

 Number of electrons:                                                        168
 Number of occupied orbitals:                                                 84
 Number of molecular orbitals:                                               148

 Number of orbital functions:                                                148
 Number of independent orbital functions:                                    148


 SCF WAVEFUNCTION OPTIMIZATION

  Step     Update method      Time    Convergence         Total energy    Change
  ------------------------------------------------------------------------------
     1 TBLite/Diag 0.40E+00    0.0     0.01755353       -96.0273310228 -9.60E+01
     2 TBLite/Diag 0.40E+00    0.0     0.00658476       -96.0274377889 -1.07E-04
     3 TBLite/Diag 0.40E+00    0.0     0.00290245       -96.0274438306 -6.04E-06
     4 TBLite/Diag 0.40E+00    0.0     0.00129756       -96.0274549350 -1.11E-05
     5 TBLite/Diag 0.40E+00    0.0     0.00023069       -96.0274551770 -2.42E-07
     6 TBLite/Diag 0.40E+00    0.0     0.00011706       -96.0274552189 -4.19E-08
     7 TBLite/Diag 0.40E+00    0.0     0.00006368       -96.0274552361 -1.72E-08
     8 TBLite/Diag 0.40E+00    0.0     0.00000775       -96.0274552365 -3.25E-10
     9 TBLite/Diag 0.40E+00    0.0     0.00000257       -96.0274552365 -5.95E-11
    10 TBLite/Diag 0.40E+00    0.0     0.00000085       -96.0274552365 -2.12E-12
    11 TBLite/Diag 0.40E+00    0.0     0.00000042       -96.0274552365 -1.56E-12
    12 TBLite/Diag 0.40E+00    0.0     0.00000007       -96.0274552365 -4.26E-14
    13 TBLite/Diag 0.40E+00    0.0     0.00000004       -96.0274552365  9.95E-14
    14 TBLite/Diag 0.40E+00    0.0     0.00000005       -96.0274552365 -8.53E-14
    15 TBLite/Diag 0.40E+00    0.0     0.00000002       -96.0274552365 -1.42E-14
    16 TBLite/Diag 0.40E+00    0.0     7.1207E-09       -96.0274552365  0.00E+00
    17 TBLite/Diag 0.40E+00    0.0     4.3494E-09       -96.0274552365  1.42E-14
    18 TBLite/Diag 0.40E+00    0.0     5.6520E-09       -96.0274552365 -1.14E-13
    19 TBLite/Diag 0.40E+00    0.0     9.2083E-10       -96.0274552365  1.85E-13

  *** SCF run converged in    19 steps ***


  Core Hamiltonian energy:                                    -97.38229944985115
  Repulsive potential energy:                                   1.21588818140167
  Electrostatic energy:                                         0.25435365513960
  Self-consistent dispersion energy:                           -0.14368472807084
  Non-self consistent dispersion energy:                        0.02828710485144
  Correction for halogen bonding:                               0.00000000000000
  Electronic entropic energy:                                  -0.00000000000000
  Fermi energy:                                                -0.30213746597471

  Total energy:                                               -96.02745523652928
  Total energy (extrapolated to T->0):                        -96.02745523652928

 ENERGY| Total FORCE_EVAL ( QS ) energy [hartree]            -96.027455236529278

 OPT| **************************************************************************
 OPT| Step number                                                              4
 OPT| Optimization method                                                   BFGS
 OPT| Total energy [hartree]                                      -96.0274552365
 OPT| Internal pressure [bar]                                  -14176.9652944797
 OPT| Effective energy change [hartree]                            -0.0061516186
 OPT| Predicted energy change [hartree]                            -0.0044781341
 OPT| Scaling factor                                                0.0000000000
 OPT| Step size                                                     0.1240544345
 OPT| Trust radius                                                  0.4724315332
 OPT| Decrease in energy                                                     YES
 OPT| Used time [s]                                                        3.406
 OPT|
 OPT| Maximum step size                                             0.1240544345
 OPT| Convergence limit for maximum step size                       0.0030000000
 OPT| Maximum step size is converged                                          NO
 OPT|
 OPT| RMS step size                                                 0.0122415525
 OPT| Convergence limit for RMS step size                           0.0015000000
 OPT| RMS step size is converged                                              NO
 OPT|
 OPT| Maximum gradient                                              0.0254140308
 OPT| Convergence limit for maximum gradient                        0.0004500000
 OPT| Maximum gradient is converged                                           NO
 OPT|
 OPT| RMS gradient                                                  0.0041974021
 OPT| Convergence limit for RMS gradient                            0.0003000000
 OPT| RMS gradient is converged                                               NO
 OPT|
 OPT| Pressure deviation [bar]                                 -14176.9652944797
 OPT| Pressure tolerance [bar]                                    100.0000000000
 OPT| Pressure is converged                                                   NO
 OPT| **************************************************************************
 OPT| Estimated peak process memory after this step [MiB]                    174

 --------------------------
 OPTIMIZATION STEP:      5
 --------------------------

 CELL| Volume [angstrom^3]:                                           514.242353
 CELL| Vector a [angstrom]:      13.047     0.000     0.000   |a| =    13.046824
 CELL| Vector b [angstrom]:      -0.000     9.579     0.000   |b| =     9.579013
 CELL| Vector c [angstrom]:       0.000     0.000     4.115   |c| =     4.114739
 CELL| Angle (b,c), alpha [degree]:                                    90.000000
 CELL| Angle (a,c), beta  [degree]:                                    90.000000
 CELL| Angle (a,b), gamma [degree]:                                    90.000004
 CELL| Numerically orthorhombic:                                              NO
 CELL| Periodicity                                                           XYZ

 Extrapolation method: ASPC

 Number of electrons:                                                        168
 Number of occupied orbitals:                                                 84
 Number of molecular orbitals:                                               148

 Number of orbital functions:                                                148
 Number of independent orbital functions:                                    148


 SCF WAVEFUNCTION OPTIMIZATION

  Step     Update method      Time    Convergence         Total energy    Change
  ------------------------------------------------------------------------------
     1 TBLite/Diag 0.40E+00    0.0     0.01800254       -96.0320446174 -9.60E+01
     2 TBLite/Diag 0.40E+00    0.0     0.00350805       -96.0320984548 -5.38E-05
     3 TBLite/Diag 0.40E+00    0.0     0.00219334       -96.0320895197  8.94E-06
     4 TBLite/Diag 0.40E+00    0.0     0.00185598       -96.0321061175 -1.66E-05
     5 TBLite/Diag 0.40E+00    0.0     0.00057733       -96.0321077902 -1.67E-06
     6 TBLite/Diag 0.40E+00    0.0     0.00008019       -96.0321078204 -3.01E-08
     7 TBLite/Diag 0.40E+00    0.0     0.00002628       -96.0321078247 -4.36E-09
     8 TBLite/Diag 0.40E+00    0.0     0.00000832       -96.0321078251 -4.32E-10
     9 TBLite/Diag 0.40E+00    0.0     0.00000351       -96.0321078252 -9.52E-11
    10 TBLite/Diag 0.40E+00    0.0     0.00000113       -96.0321078252 -1.08E-11
    11 TBLite/Diag 0.40E+00    0.0     0.00000051       -96.0321078253 -2.42E-12
    12 TBLite/Diag 0.40E+00    0.0     0.00000042       -96.0321078253 -1.53E-12
    13 TBLite/Diag 0.40E+00    0.0     0.00000024       -96.0321078253 -6.11E-13
    14 TBLite/Diag 0.40E+00    0.0     0.00000028       -96.0321078253 -6.54E-13
    15 TBLite/Diag 0.40E+00    0.0     0.00000012       -96.0321078253  1.14E-13
    16 TBLite/Diag 0.40E+00    0.0     0.00000011       -96.0321078253 -2.27E-13
    17 TBLite/Diag 0.40E+00    0.0     0.00000001       -96.0321078253  1.42E-13
    18 TBLite/Diag 0.40E+00    0.0     7.9711E-09       -96.0321078253 -1.71E-13
    19 TBLite/Diag 0.40E+00    0.0     4.3747E-10       -96.0321078253 -5.68E-14

  *** SCF run converged in    19 steps ***


  Core Hamiltonian energy:                                    -97.37601839655595
  Repulsive potential energy:                                   1.20339204979136
  Electrostatic energy:                                         0.25414169254248
  Self-consistent dispersion energy:                           -0.14112329590459
  Non-self consistent dispersion energy:                        0.02750012487130
  Correction for halogen bonding:                               0.00000000000000
  Electronic entropic energy:                                  -0.00000000000000
  Fermi energy:                                                -0.30164583623173

  Total energy:                                               -96.03210782525538
  Total energy (extrapolated to T->0):                        -96.03210782525538

 ENERGY| Total FORCE_EVAL ( QS ) energy [hartree]            -96.032107825255380

 OPT| **************************************************************************
 OPT| Step number                                                              5
 OPT| Optimization method                                                   BFGS
 OPT| Total energy [hartree]                                      -96.0321078253
 OPT| Internal pressure [bar]                                  -21641.7705639242
 OPT| Effective energy change [hartree]                            -0.0046525887
 OPT| Predicted energy change [hartree]                            -0.0031392881
 OPT| Scaling factor                                                0.0000000000
 OPT| Step size                                                     0.1332935375
 OPT| Trust radius                                                  0.4724315332
 OPT| Decrease in energy                                                     YES
 OPT| Used time [s]                                                        3.338
 OPT|
 OPT| Maximum step size                                             0.1332935375
 OPT| Convergence limit for maximum step size                       0.0030000000
 OPT| Maximum step size is converged                                          NO
 OPT|
 OPT| RMS step size                                                 0.0131430236
 OPT| Convergence limit for RMS step size                           0.0015000000
 OPT| RMS step size is converged                                              NO
 OPT|
 OPT| Maximum gradient                                              0.0219279646
 OPT| Convergence limit for maximum gradient                        0.0004500000
 OPT| Maximum gradient is converged                                           NO
 OPT|
 OPT| RMS gradient                                                  0.0040948018
 OPT| Convergence limit for RMS gradient                            0.0003000000
 OPT| RMS gradient is converged                                               NO
 OPT|
 OPT| Pressure deviation [bar]                                 -21641.7705639242
 OPT| Pressure tolerance [bar]                                    100.0000000000
 OPT| Pressure is converged                                                   NO
 OPT| **************************************************************************
 OPT| Estimated peak process memory after this step [MiB]                    175

 --------------------------
 OPTIMIZATION STEP:      6
 --------------------------

 CELL| Volume [angstrom^3]:                                           524.221331
 CELL| Vector a [angstrom]:      12.998     0.000     0.000   |a| =    12.997845
 CELL| Vector b [angstrom]:      -0.000     9.561     0.000   |b| =     9.560865
 CELL| Vector c [angstrom]:       0.000    -0.000     4.218   |c| =     4.218385
 CELL| Angle (b,c), alpha [degree]:                                    90.000000
 CELL| Angle (a,c), beta  [degree]:                                    90.000000
 CELL| Angle (a,b), gamma [degree]:                                    90.000009
 CELL| Numerically orthorhombic:                                              NO
 CELL| Periodicity                                                           XYZ

 Extrapolation method: ASPC

 Number of electrons:                                                        168
 Number of occupied orbitals:                                                 84
 Number of molecular orbitals:                                               148

 Number of orbital functions:                                                148
 Number of independent orbital functions:                                    148


 SCF WAVEFUNCTION OPTIMIZATION

  Step     Update method      Time    Convergence         Total energy    Change
  ------------------------------------------------------------------------------
     1 TBLite/Diag 0.40E+00    0.0     0.02792004       -96.0378553311 -9.60E+01
     2 TBLite/Diag 0.40E+00    0.0     0.00369628       -96.0379050757 -4.97E-05
     3 TBLite/Diag 0.40E+00    0.0     0.00461633       -96.0378632369  4.18E-05
     4 TBLite/Diag 0.40E+00    0.0     0.00367052       -96.0379164482 -5.32E-05
     5 TBLite/Diag 0.40E+00    0.0     0.00064946       -96.0379183956 -1.95E-06
     6 TBLite/Diag 0.40E+00    0.0     0.00008374       -96.0379184368 -4.12E-08
     7 TBLite/Diag 0.40E+00    0.0     0.00003754       -96.0379184465 -9.73E-09
     8 TBLite/Diag 0.40E+00    0.0     0.00001378       -96.0379184478 -1.24E-09
     9 TBLite/Diag 0.40E+00    0.0     0.00000281       -96.0379184478 -3.89E-11
    10 TBLite/Diag 0.40E+00    0.0     0.00000316       -96.0379184478 -1.24E-11
    11 TBLite/Diag 0.40E+00    0.0     0.00000193       -96.0379184479 -1.93E-11
    12 TBLite/Diag 0.40E+00    0.0     0.00000042       -96.0379184479 -2.59E-12
    13 TBLite/Diag 0.40E+00    0.0     0.00000014       -96.0379184479 -4.41E-13
    14 TBLite/Diag 0.40E+00    0.0     0.00000038       -96.0379184479 -8.38E-13
    15 TBLite/Diag 0.40E+00    0.0     0.00000007       -96.0379184479 -1.99E-13
    16 TBLite/Diag 0.40E+00    0.0     0.00000005       -96.0379184479  5.68E-14
    17 TBLite/Diag 0.40E+00    0.0     6.2391E-09       -96.0379184479  2.84E-14
    18 TBLite/Diag 0.40E+00    0.0     2.4568E-09       -96.0379184479  1.56E-13
    19 TBLite/Diag 0.40E+00    0.0     5.5904E-10       -96.0379184479 -7.11E-14

  *** SCF run converged in    19 steps ***


  Core Hamiltonian energy:                                    -97.38110400547048
  Repulsive potential energy:                                   1.19957162265183
  Electrostatic energy:                                         0.25487435023196
  Self-consistent dispersion energy:                           -0.13781727000806
  Non-self consistent dispersion energy:                        0.02655685473836
  Correction for halogen bonding:                               0.00000000000000
  Electronic entropic energy:                                  -0.00000000000000
  Fermi energy:                                                -0.30072253861641

  Total energy:                                               -96.03791844785640
  Total energy (extrapolated to T->0):                        -96.03791844785640

 ENERGY| Total FORCE_EVAL ( QS ) energy [hartree]            -96.037918447856399

 OPT| **************************************************************************
 OPT| Step number                                                              6
 OPT| Optimization method                                                   BFGS
 OPT| Total energy [hartree]                                      -96.0379184479
 OPT| Internal pressure [bar]                                  -24668.4327199086
 OPT| Effective energy change [hartree]                            -0.0058106226
 OPT| Predicted energy change [hartree]                            -0.0038814391
 OPT| Scaling factor                                                0.0000000000
 OPT| Step size                                                     0.1958615448
 OPT| Trust radius                                                  0.4724315332
 OPT| Decrease in energy                                                     YES
 OPT| Used time [s]                                                        3.313
 OPT|
 OPT| Maximum step size                                             0.1958615448
 OPT| Convergence limit for maximum step size                       0.0030000000
 OPT| Maximum step size is converged                                          NO
 OPT|
 OPT| RMS step size                                                 0.0204253846
 OPT| Convergence limit for RMS step size                           0.0015000000
 OPT| RMS step size is converged                                              NO
 OPT|
 OPT| Maximum gradient                                              0.0222975076
 OPT| Convergence limit for maximum gradient                        0.0004500000
 OPT| Maximum gradient is converged                                           NO
 OPT|
 OPT| RMS gradient                                                  0.0039594585
 OPT| Convergence limit for RMS gradient                            0.0003000000
 OPT| RMS gradient is converged                                               NO
 OPT|
 OPT| Pressure deviation [bar]                                 -24668.4327199086
 OPT| Pressure tolerance [bar]                                    100.0000000000
 OPT| Pressure is converged                                                   NO
 OPT| **************************************************************************
 OPT| Estimated peak process memory after this step [MiB]                    175

 --------------------------
 OPTIMIZATION STEP:      7
 --------------------------

 CELL| Volume [angstrom^3]:                                           535.693761
 CELL| Vector a [angstrom]:      12.918     0.000     0.000   |a| =    12.918290
 CELL| Vector b [angstrom]:      -0.000     9.525     0.000   |b| =     9.524582
 CELL| Vector c [angstrom]:       0.000    -0.000     4.354   |c| =     4.353772
 CELL| Angle (b,c), alpha [degree]:                                    90.000000
 CELL| Angle (a,c), beta  [degree]:                                    90.000000
 CELL| Angle (a,b), gamma [degree]:                                    90.000016
 CELL| Numerically orthorhombic:                                              NO
 CELL| Periodicity                                                           XYZ

 Extrapolation method: ASPC

 Number of electrons:                                                        168
 Number of occupied orbitals:                                                 84
 Number of molecular orbitals:                                               148

 Number of orbital functions:                                                148
 Number of independent orbital functions:                                    148


 SCF WAVEFUNCTION OPTIMIZATION

  Step     Update method      Time    Convergence         Total energy    Change
  ------------------------------------------------------------------------------
     1 TBLite/Diag 0.40E+00    0.0     0.03904529       -96.0437942424 -9.60E+01
     2 TBLite/Diag 0.40E+00    0.0     0.00739500       -96.0438788637 -8.46E-05
     3 TBLite/Diag 0.40E+00    0.0     0.00817276       -96.0437769427  1.02E-04
     4 TBLite/Diag 0.40E+00    0.0     0.00537928       -96.0439299073 -1.53E-04
     5 TBLite/Diag 0.40E+00    0.0     0.00052580       -96.0439316298 -1.72E-06
     6 TBLite/Diag 0.40E+00    0.0     0.00011227       -96.0439316949 -6.51E-08
     7 TBLite/Diag 0.40E+00    0.0     0.00004491       -96.0439317060 -1.12E-08
     8 TBLite/Diag 0.40E+00    0.0     0.00000862       -96.0439317065 -4.38E-10
     9 TBLite/Diag 0.40E+00    0.0     0.00000609       -96.0439317065  6.84E-12
    10 TBLite/Diag 0.40E+00    0.0     0.00000499       -96.0439317066 -9.43E-11
    11 TBLite/Diag 0.40E+00    0.0     0.00000153       -96.0439317066 -1.62E-11
    12 TBLite/Diag 0.40E+00    0.0     0.00000022       -96.0439317066 -4.83E-13
    13 TBLite/Diag 0.40E+00    0.0     0.00000011       -96.0439317066 -2.84E-14
    14 TBLite/Diag 0.40E+00    0.0     0.00000003       -96.0439317066 -1.42E-14
    15 TBLite/Diag 0.40E+00    0.0     0.00000001       -96.0439317066  2.84E-14
    16 TBLite/Diag 0.40E+00    0.0     0.00000002       -96.0439317066 -2.27E-13
    17 TBLite/Diag 0.40E+00    0.0     7.6138E-09       -96.0439317066  9.95E-14
    18 TBLite/Diag 0.40E+00    0.0     4.1278E-09       -96.0439317066 -4.26E-14
    19 TBLite/Diag 0.40E+00    0.0     7.0763E-10       -96.0439317066 -7.11E-14

  *** SCF run converged in    19 steps ***


  Core Hamiltonian energy:                                    -97.40077015000895
  Repulsive potential energy:                                   1.21059898380057
  Electrostatic energy:                                         0.25479809361422
  Self-consistent dispersion energy:                           -0.13408599006608
  Non-self consistent dispersion energy:                        0.02552735607623
  Correction for halogen bonding:                               0.00000000000000
  Electronic entropic energy:                                  -0.00000000000000
  Fermi energy:                                                -0.29957287064669

  Total energy:                                               -96.04393170658403
  Total energy (extrapolated to T->0):                        -96.04393170658403

 ENERGY| Total FORCE_EVAL ( QS ) energy [hartree]            -96.043931706584033

 OPT| **************************************************************************
 OPT| Step number                                                              7
 OPT| Optimization method                                                   BFGS
 OPT| Total energy [hartree]                                      -96.0439317066
 OPT| Internal pressure [bar]                                  -21242.4054398769
 OPT| Effective energy change [hartree]                            -0.0060132587
 OPT| Predicted energy change [hartree]                            -0.0042071145
 OPT| Scaling factor                                                0.0000000000
 OPT| Step size                                                     0.2558444366
 OPT| Trust radius                                                  0.4724315332
 OPT| Decrease in energy                                                     YES
 OPT| Used time [s]                                                        3.346
 OPT|
 OPT| Maximum step size                                             0.2558444366
 OPT| Convergence limit for maximum step size                       0.0030000000
 OPT| Maximum step size is converged                                          NO
 OPT|
 OPT| RMS step size                                                 0.0286127707
 OPT| Convergence limit for RMS step size                           0.0015000000
 OPT| RMS step size is converged                                              NO
 OPT|
 OPT| Maximum gradient                                              0.0181020577
 OPT| Convergence limit for maximum gradient                        0.0004500000
 OPT| Maximum gradient is converged                                           NO
 OPT|
 OPT| RMS gradient                                                  0.0034232203
 OPT| Convergence limit for RMS gradient                            0.0003000000
 OPT| RMS gradient is converged                                               NO
 OPT|
 OPT| Pressure deviation [bar]                                 -21242.4054398769
 OPT| Pressure tolerance [bar]                                    100.0000000000
 OPT| Pressure is converged                                                   NO
 OPT| **************************************************************************
 OPT| Estimated peak process memory after this step [MiB]                    175

 --------------------------
 OPTIMIZATION STEP:      8
 --------------------------

 CELL| Volume [angstrom^3]:                                           543.072112
 CELL| Vector a [angstrom]:      12.844     0.000     0.000   |a| =    12.844235
 CELL| Vector b [angstrom]:      -0.000     9.486     0.000   |b| =     9.486007
 CELL| Vector c [angstrom]:      -0.000    -0.000     4.457   |c| =     4.457238
 CELL| Angle (b,c), alpha [degree]:                                    90.000000
 CELL| Angle (a,c), beta  [degree]:                                    90.000000
 CELL| Angle (a,b), gamma [degree]:                                    90.000015
 CELL| Numerically orthorhombic:                                              NO
 CELL| Periodicity                                                           XYZ

 Extrapolation method: ASPC

 Number of electrons:                                                        168
 Number of occupied orbitals:                                                 84
 Number of molecular orbitals:                                               148

 Number of orbital functions:                                                148
 Number of independent orbital functions:                                    148


 SCF WAVEFUNCTION OPTIMIZATION

  Step     Update method      Time    Convergence         Total energy    Change
  ------------------------------------------------------------------------------
     1 TBLite/Diag 0.40E+00    0.0     0.03088128       -96.0471035000 -9.60E+01
     2 TBLite/Diag 0.40E+00    0.0     0.00595336       -96.0471888755 -8.54E-05
     3 TBLite/Diag 0.40E+00    0.0     0.00595632       -96.0471551278  3.37E-05
     4 TBLite/Diag 0.40E+00    0.0     0.00378107       -96.0472326796 -7.76E-05
     5 TBLite/Diag 0.40E+00    0.0     0.00050872       -96.0472348470 -2.17E-06
     6 TBLite/Diag 0.40E+00    0.0     0.00006923       -96.0472348758 -2.88E-08
     7 TBLite/Diag 0.40E+00    0.0     0.00003301       -96.0472348845 -8.71E-09
     8 TBLite/Diag 0.40E+00    0.0     0.00000629       -96.0472348846 -1.34E-10
     9 TBLite/Diag 0.40E+00    0.0     0.00000874       -96.0472348847 -4.57E-11
    10 TBLite/Diag 0.40E+00    0.0     0.00000466       -96.0472348848 -1.31E-10
    11 TBLite/Diag 0.40E+00    0.0     0.00000101       -96.0472348848 -4.42E-12
    12 TBLite/Diag 0.40E+00    0.0     0.00000031       -96.0472348848 -7.67E-13
    13 TBLite/Diag 0.40E+00    0.0     0.00000006       -96.0472348848  1.42E-14
    14 TBLite/Diag 0.40E+00    0.0     0.00000005       -96.0472348848 -2.84E-14
    15 TBLite/Diag 0.40E+00    0.0     0.00000002       -96.0472348848 -1.14E-13
    16 TBLite/Diag 0.40E+00    0.0     0.00000003       -96.0472348848 -1.56E-13
    17 TBLite/Diag 0.40E+00    0.0     8.0146E-09       -96.0472348848  2.13E-13
    18 TBLite/Diag 0.40E+00    0.0     2.0580E-09       -96.0472348848 -5.68E-14
    19 TBLite/Diag 0.40E+00    0.0     5.7986E-10       -96.0472348848  4.26E-14

  *** SCF run converged in    19 steps ***


  Core Hamiltonian energy:                                    -97.42537458464494
  Repulsive potential energy:                                   1.23082709642170
  Electrostatic energy:                                         0.25408967328859
  Self-consistent dispersion energy:                           -0.13169847655326
  Non-self consistent dispersion energy:                        0.02492140669933
  Correction for halogen bonding:                               0.00000000000000
  Electronic entropic energy:                                  -0.00000000000000
  Fermi energy:                                                -0.29887482544499

  Total energy:                                               -96.04723488478857
  Total energy (extrapolated to T->0):                        -96.04723488478857

 ENERGY| Total FORCE_EVAL ( QS ) energy [hartree]            -96.047234884788566

 OPT| **************************************************************************
 OPT| Step number                                                              8
 OPT| Optimization method                                                   BFGS
 OPT| Total energy [hartree]                                      -96.0472348848
 OPT| Internal pressure [bar]                                  -14074.3307589188
 OPT| Effective energy change [hartree]                            -0.0033031782
 OPT| Predicted energy change [hartree]                            -0.0024376418
 OPT| Scaling factor                                                0.0000000000
 OPT| Step size                                                     0.1955230299
 OPT| Trust radius                                                  0.4724315332
 OPT| Decrease in energy                                                     YES
 OPT| Used time [s]                                                        3.077
 OPT|
 OPT| Maximum step size                                             0.1955230299
 OPT| Convergence limit for maximum step size                       0.0030000000
 OPT| Maximum step size is converged                                          NO
 OPT|
 OPT| RMS step size                                                 0.0237939031
 OPT| Convergence limit for RMS step size                           0.0015000000
 OPT| RMS step size is converged                                              NO
 OPT|
 OPT| Maximum gradient                                              0.0120862356
 OPT| Convergence limit for maximum gradient                        0.0004500000
 OPT| Maximum gradient is converged                                           NO
 OPT|
 OPT| RMS gradient                                                  0.0025254796
 OPT| Convergence limit for RMS gradient                            0.0003000000
 OPT| RMS gradient is converged                                               NO
 OPT|
 OPT| Pressure deviation [bar]                                 -14074.3307589188
 OPT| Pressure tolerance [bar]                                    100.0000000000
 OPT| Pressure is converged                                                   NO
 OPT| **************************************************************************
 OPT| Estimated peak process memory after this step [MiB]                    175

 --------------------------
 OPTIMIZATION STEP:      9
 --------------------------

 CELL| Volume [angstrom^3]:                                           545.985581
 CELL| Vector a [angstrom]:      12.794     0.000     0.000   |a| =    12.793672
 CELL| Vector b [angstrom]:      -0.000     9.457     0.000   |b| =     9.457259
 CELL| Vector c [angstrom]:      -0.000    -0.000     4.513   |c| =     4.512536
 CELL| Angle (b,c), alpha [degree]:                                    90.000000
 CELL| Angle (a,c), beta  [degree]:                                    90.000000
 CELL| Angle (a,b), gamma [degree]:                                    90.000028
 CELL| Numerically orthorhombic:                                              NO
 CELL| Periodicity                                                           XYZ

 Extrapolation method: ASPC

 Number of electrons:                                                        168
 Number of occupied orbitals:                                                 84
 Number of molecular orbitals:                                               148

 Number of orbital functions:                                                148
 Number of independent orbital functions:                                    148


 SCF WAVEFUNCTION OPTIMIZATION

  Step     Update method      Time    Convergence         Total energy    Change
  ------------------------------------------------------------------------------
     1 TBLite/Diag 0.40E+00    0.0     0.01910254       -96.0487638581 -9.60E+01
     2 TBLite/Diag 0.40E+00    0.0     0.00403437       -96.0488119770 -4.81E-05
     3 TBLite/Diag 0.40E+00    0.0     0.00326560       -96.0488097317  2.25E-06
     4 TBLite/Diag 0.40E+00    0.0     0.00208170       -96.0488304969 -2.08E-05
     5 TBLite/Diag 0.40E+00    0.0     0.00040969       -96.0488318713 -1.37E-06
     6 TBLite/Diag 0.40E+00    0.0     0.00003355       -96.0488318839 -1.26E-08
     7 TBLite/Diag 0.40E+00    0.0     0.00001751       -96.0488318867 -2.74E-09
     8 TBLite/Diag 0.40E+00    0.0     0.00000592       -96.0488318870 -3.50E-10
     9 TBLite/Diag 0.40E+00    0.0     0.00000454       -96.0488318870 -4.49E-12
    10 TBLite/Diag 0.40E+00    0.0     0.00000307       -96.0488318871 -5.70E-11
    11 TBLite/Diag 0.40E+00    0.0     0.00000062       -96.0488318871 -1.63E-12
    12 TBLite/Diag 0.40E+00    0.0     0.00000022       -96.0488318871 -3.84E-13
    13 TBLite/Diag 0.40E+00    0.0     0.00000005       -96.0488318871  1.71E-13
    14 TBLite/Diag 0.40E+00    0.0     0.00000002       -96.0488318871 -1.56E-13
    15 TBLite/Diag 0.40E+00    0.0     6.3727E-09       -96.0488318871  5.68E-14
    16 TBLite/Diag 0.40E+00    0.0     8.0291E-09       -96.0488318871 -2.27E-13
    17 TBLite/Diag 0.40E+00    0.0     3.7068E-09       -96.0488318871  1.85E-13
    18 TBLite/Diag 0.40E+00    0.0     1.7951E-09       -96.0488318871  7.11E-14
    19 TBLite/Diag 0.40E+00    0.0     3.2175E-10       -96.0488318871  4.26E-14

  *** SCF run converged in    19 steps ***


  Core Hamiltonian energy:                                    -97.44466457558029
  Repulsive potential energy:                                   1.24917975891638
  Electrostatic energy:                                         0.25268189881194
  Self-consistent dispersion energy:                           -0.13072249368347
  Non-self consistent dispersion energy:                        0.02469352445333
  Correction for halogen bonding:                               0.00000000000000
  Electronic entropic energy:                                  -0.00000000000000
  Fermi energy:                                                -0.29836222490513

  Total energy:                                               -96.04883188708212
  Total energy (extrapolated to T->0):                        -96.04883188708212

 ENERGY| Total FORCE_EVAL ( QS ) energy [hartree]            -96.048831887082116

 OPT| **************************************************************************
 OPT| Step number                                                              9
 OPT| Optimization method                                                   BFGS
 OPT| Total energy [hartree]                                      -96.0488318871
 OPT| Internal pressure [bar]                                   -7372.8922244340
 OPT| Effective energy change [hartree]                            -0.0015970023
 OPT| Predicted energy change [hartree]                            -0.0011001822
 OPT| Scaling factor                                                0.0000000000
 OPT| Step size                                                     0.1044983268
 OPT| Trust radius                                                  0.4724315332
 OPT| Decrease in energy                                                     YES
 OPT| Used time [s]                                                        3.037
 OPT|
 OPT| Maximum step size                                             0.1044983268
 OPT| Convergence limit for maximum step size                       0.0030000000
 OPT| Maximum step size is converged                                          NO
 OPT|
 OPT| RMS step size                                                 0.0145459284
 OPT| Convergence limit for RMS step size                           0.0015000000
 OPT| RMS step size is converged                                              NO
 OPT|
 OPT| Maximum gradient                                              0.0067564725
 OPT| Convergence limit for maximum gradient                        0.0004500000
 OPT| Maximum gradient is converged                                           NO
 OPT|
 OPT| RMS gradient                                                  0.0020455961
 OPT| Convergence limit for RMS gradient                            0.0003000000
 OPT| RMS gradient is converged                                               NO
 OPT|
 OPT| Pressure deviation [bar]                                  -7372.8922244340
 OPT| Pressure tolerance [bar]                                    100.0000000000
 OPT| Pressure is converged                                                   NO
 OPT| **************************************************************************
 OPT| Estimated peak process memory after this step [MiB]                    175

 --------------------------
 OPTIMIZATION STEP:     10
 --------------------------

 CELL| Volume [angstrom^3]:                                           547.648215
 CELL| Vector a [angstrom]:      12.746     0.000     0.000   |a| =    12.745599
 CELL| Vector b [angstrom]:      -0.000     9.429     0.000   |b| =     9.429074
 CELL| Vector c [angstrom]:      -0.000    -0.000     4.557   |c| =     4.556930
 CELL| Angle (b,c), alpha [degree]:                                    90.000000
 CELL| Angle (a,c), beta  [degree]:                                    90.000000
 CELL| Angle (a,b), gamma [degree]:                                    90.000027
 CELL| Numerically orthorhombic:                                              NO
 CELL| Periodicity                                                           XYZ

 Extrapolation method: ASPC

 Number of electrons:                                                        168
 Number of occupied orbitals:                                                 84
 Number of molecular orbitals:                                               148

 Number of orbital functions:                                                148
 Number of independent orbital functions:                                    148


 SCF WAVEFUNCTION OPTIMIZATION

  Step     Update method      Time    Convergence         Total energy    Change
  ------------------------------------------------------------------------------
     1 TBLite/Diag 0.40E+00    0.0     0.01804306       -96.0501790143 -9.61E+01
     2 TBLite/Diag 0.40E+00    0.0     0.00307352       -96.0502076295 -2.86E-05
     3 TBLite/Diag 0.40E+00    0.0     0.00222716       -96.0502028375  4.79E-06
     4 TBLite/Diag 0.40E+00    0.0     0.00164654       -96.0502156237 -1.28E-05
     5 TBLite/Diag 0.40E+00    0.0     0.00034489       -96.0502165602 -9.36E-07
     6 TBLite/Diag 0.40E+00    0.0     0.00003133       -96.0502165652 -5.07E-09
     7 TBLite/Diag 0.40E+00    0.0     0.00001660       -96.0502165682 -2.98E-09
     8 TBLite/Diag 0.40E+00    0.0     0.00000356       -96.0502165683 -9.11E-11
     9 TBLite/Diag 0.40E+00    0.0     0.00000357       -96.0502165683 -2.12E-11
    10 TBLite/Diag 0.40E+00    0.0     0.00000223       -96.0502165684 -2.65E-11
    11 TBLite/Diag 0.40E+00    0.0     0.00000054       -96.0502165684 -1.65E-12
    12 TBLite/Diag 0.40E+00    0.0     0.00000016       -96.0502165684 -8.53E-14
    13 TBLite/Diag 0.40E+00    0.0     0.00000005       -96.0502165684  5.68E-14
    14 TBLite/Diag 0.40E+00    0.0     0.00000002       -96.0502165684 -1.56E-13
    15 TBLite/Diag 0.40E+00    0.0     6.3038E-09       -96.0502165684 -1.42E-14
    16 TBLite/Diag 0.40E+00    0.0     5.4196E-09       -96.0502165684 -2.84E-14
    17 TBLite/Diag 0.40E+00    0.0     3.2065E-09       -96.0502165684 -7.11E-14
    18 TBLite/Diag 0.40E+00    0.0     1.3177E-09       -96.0502165684 -1.42E-14
    19 TBLite/Diag 0.40E+00    0.0     2.5746E-10       -96.0502165684  2.13E-13

  *** SCF run converged in    19 steps ***


  Core Hamiltonian energy:                                    -97.45846880613102
  Repulsive potential energy:                                   1.26235279608344
  Electrostatic energy:                                         0.25144941445551
  Self-consistent dispersion energy:                           -0.13013062404298
  Non-self consistent dispersion energy:                        0.02458065127513
  Correction for halogen bonding:                               0.00000000000000
  Electronic entropic energy:                                  -0.00000000000000
  Fermi energy:                                                -0.29806203571579

  Total energy:                                               -96.05021656835991
  Total energy (extrapolated to T->0):                        -96.05021656835991

 ENERGY| Total FORCE_EVAL ( QS ) energy [hartree]            -96.050216568359915

 OPT| **************************************************************************
 OPT| Step number                                                             10
 OPT| Optimization method                                                   BFGS
 OPT| Total energy [hartree]                                      -96.0502165684
 OPT| Internal pressure [bar]                                   -2515.3535406877
 OPT| Effective energy change [hartree]                            -0.0013846813
 OPT| Predicted energy change [hartree]                            -0.0008754413
 OPT| Scaling factor                                                0.0000000000
 OPT| Step size                                                     0.0908453145
 OPT| Trust radius                                                  0.4724315332
 OPT| Decrease in energy                                                     YES
 OPT| Used time [s]                                                        3.030
 OPT|
 OPT| Maximum step size                                             0.0908453145
 OPT| Convergence limit for maximum step size                       0.0030000000
 OPT| Maximum step size is converged                                          NO
 OPT|
 OPT| RMS step size                                                 0.0132356700
 OPT| Convergence limit for RMS step size                           0.0015000000
 OPT| RMS step size is converged                                              NO
 OPT|
 OPT| Maximum gradient                                              0.0046634177
 OPT| Convergence limit for maximum gradient                        0.0004500000
 OPT| Maximum gradient is converged                                           NO
 OPT|
 OPT| RMS gradient                                                  0.0021195689
 OPT| Convergence limit for RMS gradient                            0.0003000000
 OPT| RMS gradient is converged                                               NO
 OPT|
 OPT| Pressure deviation [bar]                                  -2515.3535406877
 OPT| Pressure tolerance [bar]                                    100.0000000000
 OPT| Pressure is converged                                                   NO
 OPT| **************************************************************************
 OPT| Estimated peak process memory after this step [MiB]                    175

 --------------------------
 OPTIMIZATION STEP:     11
 --------------------------

 CELL| Volume [angstrom^3]:                                           548.588926
 CELL| Vector a [angstrom]:      12.688     0.000     0.000   |a| =    12.687679
 CELL| Vector b [angstrom]:      -0.000     9.395     0.000   |b| =     9.395187
 CELL| Vector c [angstrom]:      -0.000     0.000     4.602   |c| =     4.602136
 CELL| Angle (b,c), alpha [degree]:                                    90.000000
 CELL| Angle (a,c), beta  [degree]:                                    90.000000
 CELL| Angle (a,b), gamma [degree]:                                    90.000040
 CELL| Numerically orthorhombic:                                              NO
 CELL| Periodicity                                                           XYZ

 Extrapolation method: ASPC

 Number of electrons:                                                        168
 Number of occupied orbitals:                                                 84
 Number of molecular orbitals:                                               148

[...]
 CELL| Angle (a,c), beta  [degree]:                                    90.000000
 CELL| Angle (a,b), gamma [degree]:                                    90.003232
 CELL| Numerically orthorhombic:                                              NO
 CELL| Periodicity                                                           XYZ

 Extrapolation method: ASPC

 Number of electrons:                                                        168
 Number of occupied orbitals:                                                 84
 Number of molecular orbitals:                                               148

 Number of orbital functions:                                                148
 Number of independent orbital functions:                                    148


 SCF WAVEFUNCTION OPTIMIZATION

  Step     Update method      Time    Convergence         Total energy    Change
  ------------------------------------------------------------------------------
     1 TBLite/Diag 0.40E+00    0.0     0.00099110       -96.1547033868 -9.62E+01
     2 TBLite/Diag 0.40E+00    0.0     0.00004164       -96.1547033955 -8.65E-09
     3 TBLite/Diag 0.40E+00    0.0     0.00004021       -96.1547033946  9.08E-10
     4 TBLite/Diag 0.40E+00    0.0     0.00002886       -96.1547033981 -3.51E-09
     5 TBLite/Diag 0.40E+00    0.0     0.00000437       -96.1547033983 -2.20E-10
     6 TBLite/Diag 0.40E+00    0.0     0.00000391       -96.1547033985 -2.03E-10
     7 TBLite/Diag 0.40E+00    0.0     0.00000266       -96.1547033986 -9.82E-11
     8 TBLite/Diag 0.40E+00    0.0     0.00000331       -96.1547033986 -4.48E-11
     9 TBLite/Diag 0.40E+00    0.0     0.00000063       -96.1547033986 -2.67E-12
    10 TBLite/Diag 0.40E+00    0.0     0.00000019       -96.1547033986 -1.99E-13
    11 TBLite/Diag 0.40E+00    0.0     0.00000010       -96.1547033986 -1.28E-13
    12 TBLite/Diag 0.40E+00    0.0     0.00000004       -96.1547033986  2.84E-14
    13 TBLite/Diag 0.40E+00    0.0     0.00000003       -96.1547033986  5.68E-14
    14 TBLite/Diag 0.40E+00    0.0     7.6820E-09       -96.1547033986 -8.53E-14
    15 TBLite/Diag 0.40E+00    0.0     6.0442E-09       -96.1547033986  1.42E-14
    16 TBLite/Diag 0.40E+00    0.0     2.2046E-09       -96.1547033986  7.11E-14
    17 TBLite/Diag 0.40E+00    0.0     7.6615E-10       -96.1547033986  7.11E-14

  *** SCF run converged in    17 steps ***


  Core Hamiltonian energy:                                    -97.52725506580796
  Repulsive potential energy:                                   1.25748458312694
  Electrostatic energy:                                         0.24284011837243
  Self-consistent dispersion energy:                           -0.16416734684971
  Non-self consistent dispersion energy:                        0.03639431252748
  Correction for halogen bonding:                               0.00000000000000
  Electronic entropic energy:                                  -0.00000000000000
  Fermi energy:                                                -0.28336923180191

  Total energy:                                               -96.15470339863083
  Total energy (extrapolated to T->0):                        -96.15470339863083

 ENERGY| Total FORCE_EVAL ( QS ) energy [hartree]            -96.154703398630829

 OPT| **************************************************************************
 OPT| Step number                                                            191
 OPT| Optimization method                                                   BFGS
 OPT| Total energy [hartree]                                      -96.1547033986
 OPT| Internal pressure [bar]                                      35.5498017749
 OPT| Effective energy change [hartree]                            -0.0000008876
 OPT| Predicted energy change [hartree]                            -0.0000007575
 OPT| Scaling factor                                                0.8759586774
 OPT| Step size                                                     0.0025780051
 OPT| Trust radius                                                  0.4724315332
 OPT| Decrease in energy                                                     YES
 OPT| Used time [s]                                                        1.934
 OPT|
 OPT| Maximum step size                                             0.0025780051
 OPT| Convergence limit for maximum step size                       0.0030000000
 OPT| Maximum step size is converged                                         YES
 OPT|
 OPT| RMS step size                                                 0.0008860585
 OPT| Convergence limit for RMS step size                           0.0015000000
 OPT| RMS step size is converged                                             YES
 OPT|
 OPT| Maximum gradient                                              0.0001082715
 OPT| Convergence limit for maximum gradient                        0.0004500000
 OPT| Maximum gradient is converged                                          YES
 OPT|
 OPT| RMS gradient                                                  0.0000427965
 OPT| Convergence limit for RMS gradient                            0.0003000000
 OPT| RMS gradient is converged                                              YES
 OPT|
 OPT| Pressure deviation [bar]                                     35.5498017749
 OPT| Pressure tolerance [bar]                                    100.0000000000
 OPT| Pressure is converged                                                  YES
 OPT| **************************************************************************
 OPT| Estimated peak process memory after this step [MiB]                    176

 *******************************************************************************
 ***                    GEOMETRY OPTIMIZATION COMPLETED                      ***
 *******************************************************************************

 write_final_structure: Optimization converged, writing XYZ file gladly:
  cytosine_GFN2_gamma_cell_opt-FINAL-1_191.xyz

 write_final_structure: Optimization converged, writing CIF file gladly:
  cytosine_GFN2_gamma_cell_opt-FINAL-1_191.cif

 write_final_structure: Done!

                    Reevaluating energy at the minimum

 CELL| Volume [angstrom^3]:                                           446.335661
 CELL| Vector a [angstrom]:      11.001     0.000     0.000   |a| =    11.001126
 CELL| Vector b [angstrom]:      -0.001    10.503     0.000   |b| =    10.502516
 CELL| Vector c [angstrom]:      -0.000     0.000     3.863   |c| =     3.863057
 CELL| Angle (b,c), alpha [degree]:                                    90.000000
 CELL| Angle (a,c), beta  [degree]:                                    90.000000
 CELL| Angle (a,b), gamma [degree]:                                    90.003232
 CELL| Numerically orthorhombic:                                              NO
 CELL| Periodicity                                                           XYZ

 Extrapolation method: ASPC

 Number of electrons:                                                        168
 Number of occupied orbitals:                                                 84
 Number of molecular orbitals:                                               148

 Number of orbital functions:                                                148
 Number of independent orbital functions:                                    148


 SCF WAVEFUNCTION OPTIMIZATION

  Step     Update method      Time    Convergence         Total energy    Change
  ------------------------------------------------------------------------------
     1 TBLite/Diag 0.40E+00    0.0     6.5043E-10       -96.1547033986 -9.62E+01

  *** SCF run converged in     1 steps ***


  Core Hamiltonian energy:                                    -97.52725506566995
  Repulsive potential energy:                                   1.25748458312694
  Electrostatic energy:                                         0.24284011823724
  Self-consistent dispersion energy:                           -0.16416734685247
  Non-self consistent dispersion energy:                        0.03639431252748
  Correction for halogen bonding:                               0.00000000000000
  Electronic entropic energy:                                  -0.00000000000000
  Fermi energy:                                                -0.28336923178542

  Total energy:                                               -96.15470339863076
  Total energy (extrapolated to T->0):                        -96.15470339863076

 ENERGY| Total FORCE_EVAL ( QS ) energy [hartree]            -96.154703398630758

 -------------------------------------------------------------------------------
 -                                                                             -
 -                                DBCSR STATISTICS                             -
 -                                                                             -
 -------------------------------------------------------------------------------
 COUNTER                                    TOTAL       BLAS       SMM       ACC
 flops     1 x    20 x     1             15200000       0.0%    100.0%      0.0%     
 flops     1 x    32 x     1             97280000       0.0%    100.0%      0.0%     
 flops     1 x    20 x     4             97280000       0.0%    100.0%      0.0%     
 flops     4 x    20 x     1             97280000       0.0%    100.0%      0.0%     
 flops     1 x     1 x   148            241056480       0.0%    100.0%      0.0%     
 flops     4 x    20 x     4            621532160       0.0%    100.0%      0.0%     
 flops     1 x    32 x     4            622592000       0.0%    100.0%      0.0%     
 flops     4 x    32 x     1            622592000       0.0%    100.0%      0.0%     
 flops     1 x     4 x   148           1469296640       0.0%    100.0%      0.0%     
 flops     4 x     1 x   148           1469296640       0.0%    100.0%      0.0%     
 flops     4 x    32 x     4           3977805824       0.0%    100.0%      0.0%     
 flops     4 x     4 x   148           9681416448       0.0%    100.0%      0.0%     
 flops inhomo. stacks                           0       0.0%      0.0%      0.0%
 flops total                        19.012628E+09       0.0%    100.0%      0.0%
 flops max/rank                     19.012628E+09       0.0%    100.0%      0.0%
 matmuls inhomo. stacks                         0       0.0%      0.0%      0.0%
 matmuls total                           18176238       0.0%    100.0%      0.0%
 number of processed stacks                 32612       0.0%    100.0%      0.0%
 average stack size                                     0.0     557.3       0.0
 marketing flops                    20.430825E+09
 -------------------------------------------------------------------------------
 # multiplications                           4828
 max memory usage/rank              13.683216E+09
 # max total images/rank                        1
 # max 3D layers                                1
 # MPI messages exchanged                       0
 -------------------------------------------------------------------------------
 -                                                                             -
 -                      DBCSR MESSAGE PASSING PERFORMANCE                      -
 -                                                                             -
 -------------------------------------------------------------------------------
 ROUTINE             CALLS      AVE VOLUME [Bytes]
 MP_Bcast               13                     12.
 MP_Allreduce        22283                      8.
 MP_Alltoall        165854                 121032.
 MP_ISend            19312                  10006.
 MP_IRecv            19312                  10006.
 -------------------------------------------------------------------------------

 -------------------------------------------------------------------------------
 -                                                                             -
 -                          OFFLOAD MEMPOOL STATISTICS                         -
 -                                                                             -
 -------------------------------------------------------------------------------
 Memory consumption                Number of allocations  Used [MiB]  Size [MiB]
 Device                                                1           0           0
 Host                                                  1           0           0
 -------------------------------------------------------------------------------

 MEMORY| Estimated peak process memory [MiB]                                 176

 -------------------------------------------------------------------------------
 -                                                                             -
 -                         MESSAGE PASSING PERFORMANCE                         -
 -                                                                             -
 -------------------------------------------------------------------------------

 ROUTINE             CALLS      AVE VOLUME [Bytes]
 MP_Group              192
 MP_Bcast             7754                    597.
 MP_Allreduce       120481                    378.
 MP_Sync              4069
 MP_comm_split        3877
 -------------------------------------------------------------------------------


 -------------------------------------------------------------------------------
 -                                                                             -
 -                           R E F E R E N C E S                               -
 -                                                                             -
 -------------------------------------------------------------------------------
 
 CP2K version 2026.1 (Development Version), the CP2K developers group (2026).
 CP2K is freely available from https://www.cp2k.org/ .
 
 M. Iannuzzi, J. Wilhelm, F. Stein, A. Bussy, H. Elgabarty, D. Golze, A. Hehn, 
 M. Graml, S. Marek, B. Sertcan Gökmen, C. Schran, H. Forbert, R. Z. 
 Khaliullin, A. Kozhevnikov, M. Taillefumier, R. Meli, V. V. Rybkin, M. Brehm, 
 R. Schade, O. Schütt, J. V. Pototschnig, H. Mirhosseini, A. Knüpfer, D. Marx, 
 M. Krack, J. Hutter, T. D. Kühne.
 J. Phys. Chem. B 130, 1237-1310 (2026).
 The CP2K Program Package Made Simple.
 https://doi.org/10.1021/acs.jpcb.5c05851

 A. Katbashev, M. Stahn, T. Rose, V. Alizadeh, M. Friede, C. Plett, P. 
 Steinbach, S. Ehlert.
 J. Phys. Chem. A 129, 2667-2682 (2025).
 Overview on Building Blocks and Applications of Efficient and Robust Extended 
 Tight Binding.
 https://doi.org/10.1021/acs.jpca.4c08263

 T. D. Kühne, M. Iannuzzi, M. Del Ben, V. V. Rybkin, P. Seewald, F. Stein, T. 
 Laino, R. Z. Khaliullin, O. Schütt, F. Schiffmann, D. Golze, J. Wilhelm, S. 
 Chulkov, M. H. Bani-Hashemian, V. Weber, U. Borstnik, M. Taillefumier, A. S. 
 Jakobovits, A. Lazzaro, H. Pabst, T. Müller, R. Schade, M. Guidon, S. 
 Andermatt, N. Holmberg, G. K. Schenter, A. Hehn, A. Bussy, F. Belleflamme, G. 
 Tabacchi, A. Glöß, M. Lass, I. Bethune, C. J. Mundy, C. Plessl, M. Watkins, 
 J. VandeVondele, M. Krack, J. Hutter.
 J. Chem. Phys. 152, 194103 (2020).
 CP2K: An electronic structure and molecular dynamics software package - 
 Quickstep: Efficient and accurate electronic structure calculations.
 https://doi.org/10.1063/5.0007045

 P. Pracht, E. Caldeweyher, S. Ehlert, S. Grimme.
 ChemRxiv, (2019).
 A Robust Non-Self-Consistent Tight-Binding Quantum Chemistry Method for large 
 Molecules.
 https://doi.org/10.26434/chemrxiv.8326202.v1

 S. Grimme, C. Bannwarth, P. Shushkov.
 J. Chem. Theory Comput. 13, 1989 (2017).
 A Robust and Accurate Tight-Binding Quantum Chemical Method for Structures, 
 Vibrational Frequencies, and Noncovalent Interactions of Large Molecular 
 Systems Parametrized for All spd-Block Elements (Z = 1-86).
 https://doi.org/10.1021/acs.jctc.7b00118

 O. Schuett, P. Messmer, J. Hutter, J. VandeVondele.
 Electronic Structure Calculations on Graphics Processing Units, 173-190 (2016).
 GPU-Accelerated Sparse Matrix-Matrix Multiplication for Linear Scaling Density 
 Functional Theory.
 https://doi.org/10.1002/9781118670712.ch8

 A. Heinecke, G. Henry, M. Hutchinson, H. Pabst.
 Proceedings of Intl. Supercomputing Conference, 981-991 (2016).
 LIBXSMM: Accelerating Small Matrix Multiplications by Runtime Code Generation.
 https://doi.org/10.1109/SC.2016.83

 U. Borstnik, J. VandeVondele, V. Weber, J. Hutter.
 Parallel Comput. 40, 47-58 (2014).
 Sparse matrix multiplication: The distributed block-compressed sparse row 
 library.
 https://doi.org/10.1016/j.parco.2014.03.012

 T. D. Kühne, M. Krack, F. R. Mohamed, M. Parrinello.
 Phys. Rev. Lett. 98, 066401 (2007).
 Efficient and accurate Car-Parrinello-like approach to Born-Oppenheimer 
 molecular dynamics.
 https://doi.org/10.1103/PhysRevLett.98.066401

 M. Frigo, S. G. Johnson.
 Proc. IEEE 93, 216-231 (2005).
 The design and implementation of FFTW3.
 https://doi.org/10.1109/JPROC.2004.840301

 J. Kolafa.
 J. Comput. Chem. 25, 335-342 (2004).
 Time-reversible always stable predictor-corrector method for molecular dynamics 
 of polarizable molecules.
 https://doi.org/10.1002/jcc.10385

 N. D. Mermin.
 Phys. Rev. 137, A1441-A1443 (1965).
 Thermal Properties of the Inhomogeneous Electron Gas.
 https://doi.org/10.1103/PhysRev.137.A1441


 -------------------------------------------------------------------------------
 -                                                                             -
 -                                T I M I N G                                  -
 -                                                                             -
 -------------------------------------------------------------------------------
 SUBROUTINE                       CALLS  ASD         SELF TIME        TOTAL TIME
                                MAXIMUM       AVERAGE  MAXIMUM  AVERAGE  MAXIMUM
 CP2K                                 1  1.0    0.002    0.002  426.769  426.769
 cp_cell_opt                          1  2.0    0.000    0.000  426.762  426.762
 geoopt_bfgs                          1  3.0    0.021    0.021  426.762  426.762
 cp_eval_at                         193  4.0    0.021    0.021  426.164  426.164
 qs_forces                          192  5.0    0.013    0.013  425.652  425.652
 build_tblite_matrices              385  7.0  337.596  337.596  344.845  344.845
 qs_energies                        193  6.0    0.005    0.005  143.093  143.093
 qs_energies_init_hamiltonians      193  7.0    0.001    0.001  104.135  104.135
 rebuild_ks_matrix                 3686  9.8    0.004    0.004   52.348   52.348
 build_tblite_ks_matrix            3686 10.8   52.259   52.259   52.344   52.344
 qs_ks_update_qs_env_forces         192  6.0    0.001    0.001   41.947   41.947
 scf_env_do_scf                     193  7.0    0.003    0.003   35.901   35.901
 scf_env_do_scf_inner_loop         3494  8.0    5.099    5.099   35.881   35.881
 qs_scf_new_mos                    3494  9.0    0.019    0.019   19.157   19.157
 qs_ks_update_qs_env               3494  9.0    0.007    0.007   10.747   10.747
 -------------------------------------------------------------------------------

 The number of warnings for this run is : 0
 
 -------------------------------------------------------------------------------
  **** **** ******  **  PROGRAM ENDED AT                 2026-05-23 22:54:32.786
 ***** ** ***  *** **   PROGRAM RAN ON                                spark-c86c
 **    ****   ******    PROGRAM RAN BY                                  kuehne88
 ***** **    ** ** **   PROGRAM PROCESS ID                               2269003
  **** **  *******  **  PROGRAM STOPPED IN /home/kuehne88/periodic-gfn2-benchmar
                                           ks/X23b/runs/cellopt_gamma/GFN2/cytos
                                           ine_GFN2_gamma_cellopt
