 DBCSR| CPU Multiplication driver                                           XSMM (U)
 DBCSR| Multrec recursion limit                                              512 (U)
 DBCSR| Multiplication stack size                                           1000 (D)
 DBCSR| Maximum elements for images                                    UNLIMITED (U)
 DBCSR| Multiplicative factor virtual images                                   1 (U)
 DBCSR| Use multiplication densification                                       T (D)
 DBCSR| Multiplication size stacks                                             3 (U)
 DBCSR| Use memory pool for CPU allocation                                     F (U)
 DBCSR| Number of 3D layers                                               SINGLE (U)
 DBCSR| Use MPI memory allocation                                              F (U)
 DBCSR| Use RMA algorithm                                                      F (U)
 DBCSR| Use Communication thread                                               T (U)
 DBCSR| Communication thread load                                             87 (D)
 DBCSR| MPI: My process id                                                     0
 DBCSR| MPI: Number of processes                                               1
 DBCSR| OMP: Current number of threads                                         1
 DBCSR| OMP: Max number of threads                                             1
 DBCSR| Split modifier for TAS multiplication algorithm                  1.0E+00 (U)


  **** **** ******  **  PROGRAM STARTED AT               2026-05-23 22:47:38.455
 ***** ** ***  *** **   PROGRAM STARTED ON                            spark-c86c
 **    ****   ******    PROGRAM STARTED BY                              kuehne88
 ***** **    ** ** **   PROGRAM PROCESS ID                               2269721
  **** **  *******  **  PROGRAM STARTED IN /home/kuehne88/periodic-gfn2-benchmar
                                           ks/X23b/runs/cellopt_gamma/GFN2/imida
                                           zole_GFN2_gamma_cellopt

 CP2K| version string:                 CP2K version 2026.1 (Development Version)
 CP2K| source code revision number:                                   0622d442e4
 CP2K| cp2kflags: omp fftw3 libxc parallel scalapack mpi_f08 xsmm spglib libdftd
 CP2K|            4 dftd4_v3 mctc-lib tblite
 CP2K| is freely available from                            https://www.cp2k.org/
 CP2K| Program compiled at                                   2026-05-23 22:05:08
 CP2K| Program compiled on                                            spark-c86c
 CP2K| Program compiled for                                              aarch64
 CP2K| Data directory path    /home/kuehne88/cp2k-master-tblite-20260523/install
 CP2K| Input file name                          imidazole_GFN2_gamma_cellopt.inp

 GLOBAL| Force Environment number                                              1
 GLOBAL| Basis set file name                                           BASIS_SET
 GLOBAL| Potential file name                                           POTENTIAL
 GLOBAL| MM Potential file name                                     MM_POTENTIAL
 GLOBAL| Coordinate file name                                      __STD_INPUT__
 GLOBAL| Method name                                                        CP2K
 GLOBAL| Project name                              imidazole_GFN2_gamma_cell_opt
 GLOBAL| Run type                                                       CELL_OPT
 GLOBAL| FFT library                                                       FFTW3
 GLOBAL| Diagonalization library                                       ScaLAPACK
 GLOBAL| Cholesky decomposition library                                ScaLAPACK
 GLOBAL| DGEMM library                                                      BLAS
 GLOBAL| Direct generalized diagonalization requested                          F
 GLOBAL| Orthonormality check for eigenvectors                          DISABLED
 GLOBAL| Matrix multiplication library                                 ScaLAPACK
 GLOBAL| All-to-all communication in single precision                          F
 GLOBAL| FFTs using library dependent lengths                                  F
 GLOBAL| Grid backend                                                       AUTO
 GLOBAL| Global print level                                                  LOW
 GLOBAL| MPI I/O enabled                                                       T
 GLOBAL| Total number of message passing processes                             1
 GLOBAL| Number of distributed systems (nodes)                                 1
 GLOBAL| Number of threads for this process                                    1
 GLOBAL| This output is from process                                           0
 GLOBAL| OpenMP stack size per thread (OMP_STACKSIZE)                    default
 GLOBAL| CPU model name                                                  UNKNOWN
 GLOBAL| CPUID                                                              2200
 GLOBAL| Compiled for CPUID                                                 2000

 *** HINT in environment.F:970 :: The compiler target flags (arm_arch64)   ***
 *** used to build this binary cannot exploit all extensions of this CPU   ***
 *** model (arm_sve256). Consider compiler target flags as part of FCFLAGS ***
 *** and CFLAGS (ARCH file).                                               ***


 MEMORY| system memory details [Kb]
 MEMORY|                        rank 0           min           max       average
 MEMORY| MemTotal            125508532     125508532     125508532     125508532
 MEMORY| MemFree             104348132     104348132     104348132     104348132
 MEMORY| Buffers                868200        868200        868200        868200
 MEMORY| Cached               14085072      14085072      14085072      14085072
 MEMORY| Slab                  1597492       1597492       1597492       1597492
 MEMORY| SReclaimable           919444        919444        919444        919444
 MEMORY| MemLikelyFree       120220848     120220848     120220848     120220848


 GENERATE|  Preliminary Number of Bonds generated:                             0
 GENERATE|  Achieved consistency in connectivity generation.


                  #####   #####        #     #   #     #       #          
                 #     # #     #      #    ##### #     #   # #####  ####  
                 #     # #           #       #   ###   #       #   #    # 
                 #     #  #####     #        #   #  #  #   #   #   ###### 
                 #   # #       #   #         #   #   # #   #   #   #      
                 #    #  #     #  #          #   #  #  # # #   #    #   # 
                  #### #  #####  #           #   ###   ##  #   #     ###  

                                   GFN2-xTB  
                                 Version 0.0                       
                            Johann V. Pototschnig                  



 TOTAL NUMBERS AND MAXIMUM NUMBERS

  Total number of            - Atomic kinds:                                   3
                             - Atoms:                                         36
                             - Shell sets:                                    56
                             - Shells:                                        56
                             - Primitive Cartesian functions:                208
                             - Cartesian basis functions:                     96
                             - Spherical basis functions:                     96

  Maximum angular momentum of the orbital basis functions:                     1


 SCF PARAMETERS         Density guess:                                     MOPAC
                        --------------------------------------------------------
                        max_scf:                                             300
                        max_scf_history:                                       0
                        max_diis:                                              4
                        --------------------------------------------------------
                        eps_scf:                                        1.00E-09
                        eps_scf_history:                                0.00E+00
                        eps_diis:                                       1.00E-01
                        eps_eigval:                                     1.00E-05
                        --------------------------------------------------------
                        level_shift [a.u.]:                             0.000000
                        added MOs                                        44    0
                        --------------------------------------------------------
                        Mixing method:                           DIRECT_P_MIXING
                        --------------------------------------------------------
                        Smear method:                                FERMI_DIRAC
                        Electronic temperature [K]:                        300.0
                        Electronic temperature [a.u.]:                  9.50E-04
                        Accuracy threshold:                             1.00E-06
                        --------------------------------------------------------
                        No outer SCF

 CELL_OPT| Pressure tolerance [bar]:                                       100.0
 CELL_OPT| Keep volume of cell:                                               NO
 CELL_OPT| Keep angles between the cell vectors:                              NO
 CELL_OPT| Keep cell symmetry:                                                NO
 CELL_OPT| Constraint:                                                      NONE

 BFGS| Use rational function optimization for step estimation:                NO
 BFGS| Use model Hessian for initial guess:                                   NO
 BFGS| Restart Hessian:                                                       NO
 BFGS| Trust radius:                                                       0.472

 *******************************************************************************
 ***                     STARTING   CELL   OPTIMIZATION                      ***
 ***                                   BFGS                                  ***
 *******************************************************************************

 CELL| Volume [angstrom^3]:                                           348.758564
 CELL| Vector a [angstrom]:       7.582     0.000     0.000   |a| =     7.582000
 CELL| Vector b [angstrom]:       0.000     5.371     0.000   |b| =     5.371000
 CELL| Vector c [angstrom]:      -4.743     0.000     8.564   |c| =     9.790000
 CELL| Angle (b,c), alpha [degree]:                                    90.000000
 CELL| Angle (a,c), beta  [degree]:                                   118.980000
 CELL| Angle (a,b), gamma [degree]:                                    90.000000
 CELL| Numerically orthorhombic:                                              NO
 CELL| Periodicity                                                           XYZ

 Extrapolation method: initial_guess

 Number of electrons:                                                        104
 Number of occupied orbitals:                                                 52
 Number of molecular orbitals:                                                96

 Number of orbital functions:                                                 96
 Number of independent orbital functions:                                     96


 SCF WAVEFUNCTION OPTIMIZATION

  Step     Update method      Time    Convergence         Total energy    Change
  ------------------------------------------------------------------------------
     1 TBLite/Diag 0.40E+00    0.0     1.04334523       -57.0862036244 -5.71E+01
     2 TBLite/Diag 0.40E+00    0.0     0.17753443       -57.2753296829 -1.89E-01
     3 TBLite/Diag 0.40E+00    0.0     0.09185614       -57.2752943619  3.53E-05
     4 TBLite/Diag 0.40E+00    0.0     0.06874849       -57.2943080699 -1.90E-02
     5 TBLite/Diag 0.40E+00    0.0     0.01823135       -57.2973387093 -3.03E-03
     6 TBLite/Diag 0.40E+00    0.0     0.00371229       -57.2973937057 -5.50E-05
     7 TBLite/Diag 0.40E+00    0.0     0.00251613       -57.2974272864 -3.36E-05
     8 TBLite/Diag 0.40E+00    0.0     0.00084110       -57.2974325876 -5.30E-06
     9 TBLite/Diag 0.40E+00    0.0     0.00015975       -57.2974327356 -1.48E-07
    10 TBLite/Diag 0.40E+00    0.0     0.00003479       -57.2974327377 -2.12E-09
    11 TBLite/Diag 0.40E+00    0.0     0.00003157       -57.2974327413 -3.54E-09
    12 TBLite/Diag 0.40E+00    0.0     0.00001049       -57.2974327414 -1.58E-10
    13 TBLite/Diag 0.40E+00    0.0     0.00000453       -57.2974327416 -1.40E-10
    14 TBLite/Diag 0.40E+00    0.0     0.00000080       -57.2974327416  6.89E-13
    15 TBLite/Diag 0.40E+00    0.0     0.00000059       -57.2974327416 -3.38E-12
    16 TBLite/Diag 0.40E+00    0.0     0.00000009       -57.2974327416 -2.84E-14
    17 TBLite/Diag 0.40E+00    0.0     0.00000003       -57.2974327416 -4.97E-14
    18 TBLite/Diag 0.40E+00    0.0     0.00000002       -57.2974327416 -7.11E-15
    19 TBLite/Diag 0.40E+00    0.0     4.0883E-09       -57.2974327416  6.39E-14
    20 TBLite/Diag 0.40E+00    0.0     2.7548E-09       -57.2974327416 -4.26E-14
    21 TBLite/Diag 0.40E+00    0.0     2.7774E-10       -57.2974327416 -7.82E-14

  *** SCF run converged in    21 steps ***


  Core Hamiltonian energy:                                    -58.13458206595898
  Repulsive potential energy:                                   0.82719603355025
  Electrostatic energy:                                         0.08655844303725
  Self-consistent dispersion energy:                           -0.09533454606700
  Non-self consistent dispersion energy:                        0.01872939385636
  Correction for halogen bonding:                               0.00000000000000
  Electronic entropic energy:                                  -0.00000000000000
  Fermi energy:                                                -0.24792432101347

  Total energy:                                               -57.29743274158212
  Total energy (extrapolated to T->0):                        -57.29743274158212

 ENERGY| Total FORCE_EVAL ( QS ) energy [hartree]            -57.297432741582121

 OPT| **************************************************************************
 OPT| Step number                                                              0
 OPT| Optimization method                                                   BFGS
 OPT| Total energy [hartree]                                      -57.2974327416
 OPT| Internal pressure [bar]                                  -18506.9385807123
 OPT| Used time [s]                                                        1.914
 OPT| **************************************************************************
 OPT| Estimated peak process memory [MiB]                                    165

 --------------------------
 OPTIMIZATION STEP:      1
 --------------------------

 CELL| Volume [angstrom^3]:                                           347.861352
 CELL| Vector a [angstrom]:       7.581     0.000     0.000   |a| =     7.580886
 CELL| Vector b [angstrom]:       0.000     5.362     0.000   |b| =     5.361951
 CELL| Vector c [angstrom]:      -4.741    -0.000     8.558   |c| =     9.783124
 CELL| Angle (b,c), alpha [degree]:                                    90.000000
 CELL| Angle (a,c), beta  [degree]:                                   118.984141
 CELL| Angle (a,b), gamma [degree]:                                    90.000000
 CELL| Numerically orthorhombic:                                              NO
 CELL| Periodicity                                                           XYZ

 Extrapolation method: ASPC

 Number of electrons:                                                        104
 Number of occupied orbitals:                                                 52
 Number of molecular orbitals:                                                96

 Number of orbital functions:                                                 96
 Number of independent orbital functions:                                     96


 SCF WAVEFUNCTION OPTIMIZATION

  Step     Update method      Time    Convergence         Total energy    Change
  ------------------------------------------------------------------------------
     1 TBLite/Diag 0.40E+00    0.0     0.01296665       -57.2992222147 -5.73E+01
     2 TBLite/Diag 0.40E+00    0.0     0.00359385       -57.2992867537 -6.45E-05
     3 TBLite/Diag 0.40E+00    0.0     0.00142954       -57.2992931804 -6.43E-06
     4 TBLite/Diag 0.40E+00    0.0     0.00101937       -57.2992930512  1.29E-07
     5 TBLite/Diag 0.40E+00    0.0     0.00051261       -57.2992954233 -2.37E-06
     6 TBLite/Diag 0.40E+00    0.0     0.00002831       -57.2992954255 -2.27E-09
     7 TBLite/Diag 0.40E+00    0.0     0.00001433       -57.2992954263 -7.48E-10
     8 TBLite/Diag 0.40E+00    0.0     0.00000608       -57.2992954265 -2.24E-10
     9 TBLite/Diag 0.40E+00    0.0     0.00000088       -57.2992954265 -5.27E-12
    10 TBLite/Diag 0.40E+00    0.0     0.00000014       -57.2992954265 -1.42E-14
    11 TBLite/Diag 0.40E+00    0.0     0.00000006       -57.2992954265 -2.13E-14
    12 TBLite/Diag 0.40E+00    0.0     0.00000006       -57.2992954265 -3.55E-14
    13 TBLite/Diag 0.40E+00    0.0     0.00000002       -57.2992954265  4.97E-14
    14 TBLite/Diag 0.40E+00    0.0     1.4947E-09       -57.2992954265  1.42E-14
    15 TBLite/Diag 0.40E+00    0.0     1.1080E-09       -57.2992954265 -3.55E-14
    16 TBLite/Diag 0.40E+00    0.0     2.0804E-10       -57.2992954265  5.68E-14

  *** SCF run converged in    16 steps ***


  Core Hamiltonian energy:                                    -58.14517074480539
  Repulsive potential energy:                                   0.83720838740954
  Electrostatic energy:                                         0.08541815308803
  Self-consistent dispersion energy:                           -0.09558209401840
  Non-self consistent dispersion energy:                        0.01883087182028
  Correction for halogen bonding:                               0.00000000000000
  Electronic entropic energy:                                  -0.00000000000000
  Fermi energy:                                                -0.24879193309521

  Total energy:                                               -57.29929542650596
  Total energy (extrapolated to T->0):                        -57.29929542650596

 ENERGY| Total FORCE_EVAL ( QS ) energy [hartree]            -57.299295426505957

 OPT| **************************************************************************
 OPT| Step number                                                              1
 OPT| Optimization method                                                   BFGS
 OPT| Total energy [hartree]                                      -57.2992954265
 OPT| Internal pressure [bar]                                  -14849.3570395387
 OPT| Effective energy change [hartree]                            -0.0018626849
 OPT| Predicted energy change [hartree]                            -0.0016236175
 OPT| Scaling factor                                                0.0000000000
 OPT| Step size                                                     0.0171005499
 OPT| Trust radius                                                  0.4724315332
 OPT| Decrease in energy                                                     YES
 OPT| Used time [s]                                                        1.874
 OPT|
 OPT| Maximum step size                                             0.0171005499
 OPT| Convergence limit for maximum step size                       0.0030000000
 OPT| Maximum step size is converged                                          NO
 OPT|
 OPT| RMS step size                                                 0.0053370888
 OPT| Convergence limit for RMS step size                           0.0015000000
 OPT| RMS step size is converged                                              NO
 OPT|
 OPT| Maximum gradient                                              0.0116813899
 OPT| Convergence limit for maximum gradient                        0.0004500000
 OPT| Maximum gradient is converged                                           NO
 OPT|
 OPT| RMS gradient                                                  0.0022042648
 OPT| Convergence limit for RMS gradient                            0.0003000000
 OPT| RMS gradient is converged                                               NO
 OPT|
 OPT| Pressure deviation [bar]                                 -14849.3570395387
 OPT| Pressure tolerance [bar]                                    100.0000000000
 OPT| Pressure is converged                                                   NO
 OPT| **************************************************************************
 OPT| Estimated peak process memory after this step [MiB]                    166

 --------------------------
 OPTIMIZATION STEP:      2
 --------------------------

 CELL| Volume [angstrom^3]:                                           346.910288
 CELL| Vector a [angstrom]:       7.580     0.000     0.000   |a| =     7.579997
 CELL| Vector b [angstrom]:       0.000     5.353     0.000   |b| =     5.352876
 CELL| Vector c [angstrom]:      -4.737    -0.000     8.550   |c| =     9.774299
 CELL| Angle (b,c), alpha [degree]:                                    90.000000
 CELL| Angle (a,c), beta  [degree]:                                   118.986637
 CELL| Angle (a,b), gamma [degree]:                                    90.000000
 CELL| Numerically orthorhombic:                                              NO
 CELL| Periodicity                                                           XYZ

 Extrapolation method: ASPC

 Number of electrons:                                                        104
 Number of occupied orbitals:                                                 52
 Number of molecular orbitals:                                                96

 Number of orbital functions:                                                 96
 Number of independent orbital functions:                                     96


 SCF WAVEFUNCTION OPTIMIZATION

  Step     Update method      Time    Convergence         Total energy    Change
  ------------------------------------------------------------------------------
     1 TBLite/Diag 0.40E+00    0.0     0.00501206       -57.2998348523 -5.73E+01
     2 TBLite/Diag 0.40E+00    0.0     0.00048125       -57.2998362069 -1.35E-06
     3 TBLite/Diag 0.40E+00    0.0     0.00035425       -57.2998356416  5.65E-07
     4 TBLite/Diag 0.40E+00    0.0     0.00038269       -57.2998364411 -8.00E-07
     5 TBLite/Diag 0.40E+00    0.0     0.00009840       -57.2998365007 -5.96E-08
     6 TBLite/Diag 0.40E+00    0.0     0.00001505       -57.2998365020 -1.29E-09
     7 TBLite/Diag 0.40E+00    0.0     0.00000895       -57.2998365023 -2.92E-10
     8 TBLite/Diag 0.40E+00    0.0     0.00000227       -57.2998365024 -7.71E-11
     9 TBLite/Diag 0.40E+00    0.0     0.00000030       -57.2998365024 -2.27E-13
    10 TBLite/Diag 0.40E+00    0.0     0.00000025       -57.2998365024 -5.47E-13
    11 TBLite/Diag 0.40E+00    0.0     0.00000003       -57.2998365024 -4.97E-14
    12 TBLite/Diag 0.40E+00    0.0     0.00000002       -57.2998365024  1.14E-13
    13 TBLite/Diag 0.40E+00    0.0     0.00000001       -57.2998365024 -1.35E-13
    14 TBLite/Diag 0.40E+00    0.0     6.0000E-10       -57.2998365024  1.42E-14

  *** SCF run converged in    14 steps ***


  Core Hamiltonian energy:                                    -58.15715474741509
  Repulsive potential energy:                                   0.84921540291641
  Electrostatic energy:                                         0.08499705533575
  Self-consistent dispersion energy:                           -0.09582388863034
  Non-self consistent dispersion energy:                        0.01892967542968
  Correction for halogen bonding:                               0.00000000000000
  Electronic entropic energy:                                  -0.00000000000000
  Fermi energy:                                                -0.24814193199848

  Total energy:                                               -57.29983650236360
  Total energy (extrapolated to T->0):                        -57.29983650236360

 ENERGY| Total FORCE_EVAL ( QS ) energy [hartree]            -57.299836502363597

 OPT| **************************************************************************
 OPT| Step number                                                              2
 OPT| Optimization method                                                   BFGS
 OPT| Total energy [hartree]                                      -57.2998365024
 OPT| Internal pressure [bar]                                   -8243.3315210575
 OPT| Effective energy change [hartree]                            -0.0005410759
 OPT| Predicted energy change [hartree]                            -0.0003715943
 OPT| Scaling factor                                                0.0000000000
 OPT| Step size                                                     0.0171492349
 OPT| Trust radius                                                  0.4724315332
 OPT| Decrease in energy                                                     YES
 OPT| Used time [s]                                                        1.867
 OPT|
 OPT| Maximum step size                                             0.0171492349
 OPT| Convergence limit for maximum step size                       0.0030000000
 OPT| Maximum step size is converged                                          NO
 OPT|
 OPT| RMS step size                                                 0.0031293789
 OPT| Convergence limit for RMS step size                           0.0015000000
 OPT| RMS step size is converged                                              NO
 OPT|
 OPT| Maximum gradient                                              0.0066562367
 OPT| Convergence limit for maximum gradient                        0.0004500000
 OPT| Maximum gradient is converged                                           NO
 OPT|
 OPT| RMS gradient                                                  0.0015666437
 OPT| Convergence limit for RMS gradient                            0.0003000000
 OPT| RMS gradient is converged                                               NO
 OPT|
 OPT| Pressure deviation [bar]                                  -8243.3315210575
 OPT| Pressure tolerance [bar]                                    100.0000000000
 OPT| Pressure is converged                                                   NO
 OPT| **************************************************************************
 OPT| Estimated peak process memory after this step [MiB]                    167

 --------------------------
 OPTIMIZATION STEP:      3
 --------------------------

 CELL| Volume [angstrom^3]:                                           345.620367
 CELL| Vector a [angstrom]:       7.580     0.000     0.000   |a| =     7.579682
 CELL| Vector b [angstrom]:       0.000     5.341     0.000   |b| =     5.340595
 CELL| Vector c [angstrom]:      -4.730    -0.000     8.538   |c| =     9.760908
 CELL| Angle (b,c), alpha [degree]:                                    90.000000
 CELL| Angle (a,c), beta  [degree]:                                   118.988286
 CELL| Angle (a,b), gamma [degree]:                                    90.000000
 CELL| Numerically orthorhombic:                                              NO
 CELL| Periodicity                                                           XYZ

 Extrapolation method: ASPC

 Number of electrons:                                                        104
 Number of occupied orbitals:                                                 52
 Number of molecular orbitals:                                                96

 Number of orbital functions:                                                 96
 Number of independent orbital functions:                                     96


 SCF WAVEFUNCTION OPTIMIZATION

  Step     Update method      Time    Convergence         Total energy    Change
  ------------------------------------------------------------------------------
     1 TBLite/Diag 0.40E+00    0.0     0.00747872       -57.3002653442 -5.73E+01
     2 TBLite/Diag 0.40E+00    0.0     0.00190997       -57.3002835913 -1.82E-05
     3 TBLite/Diag 0.40E+00    0.0     0.00069176       -57.3002846914 -1.10E-06
     4 TBLite/Diag 0.40E+00    0.0     0.00065175       -57.3002849307 -2.39E-07
     5 TBLite/Diag 0.40E+00    0.0     0.00029720       -57.3002857149 -7.84E-07
     6 TBLite/Diag 0.40E+00    0.0     0.00002503       -57.3002857148  1.34E-10
     7 TBLite/Diag 0.40E+00    0.0     0.00001639       -57.3002857161 -1.35E-09
     8 TBLite/Diag 0.40E+00    0.0     0.00000302       -57.3002857162 -4.03E-11
     9 TBLite/Diag 0.40E+00    0.0     0.00000095       -57.3002857162 -9.53E-12
    10 TBLite/Diag 0.40E+00    0.0     0.00000020       -57.3002857162 -3.84E-13
    11 TBLite/Diag 0.40E+00    0.0     0.00000004       -57.3002857162 -3.55E-14
    12 TBLite/Diag 0.40E+00    0.0     0.00000005       -57.3002857162  2.84E-14
    13 TBLite/Diag 0.40E+00    0.0     0.00000003       -57.3002857162 -2.13E-14
    14 TBLite/Diag 0.40E+00    0.0     2.0120E-09       -57.3002857162  2.84E-14
    15 TBLite/Diag 0.40E+00    0.0     5.7874E-10       -57.3002857162 -3.55E-14

  *** SCF run converged in    15 steps ***


  Core Hamiltonian energy:                                    -58.16961121908738
  Repulsive potential energy:                                   0.86167058346063
  Electrostatic energy:                                         0.08476836477108
  Self-consistent dispersion energy:                           -0.09617590133003
  Non-self consistent dispersion energy:                        0.01906245601088
  Correction for halogen bonding:                               0.00000000000000
  Electronic entropic energy:                                  -0.00000000000000
  Fermi energy:                                                -0.24698865306895

  Total energy:                                               -57.30028571617481
  Total energy (extrapolated to T->0):                        -57.30028571617481

 ENERGY| Total FORCE_EVAL ( QS ) energy [hartree]            -57.300285716174812

 OPT| **************************************************************************
 OPT| Step number                                                              3
 OPT| Optimization method                                                   BFGS
 OPT| Total energy [hartree]                                      -57.3002857162
 OPT| Internal pressure [bar]                                   -1261.0113303862
 OPT| Effective energy change [hartree]                            -0.0004492138
 OPT| Predicted energy change [hartree]                            -0.0003461645
 OPT| Scaling factor                                                0.0000000000
 OPT| Step size                                                     0.0232069955
 OPT| Trust radius                                                  0.4724315332
 OPT| Decrease in energy                                                     YES
 OPT| Used time [s]                                                        1.882
 OPT|
 OPT| Maximum step size                                             0.0232069955
 OPT| Convergence limit for maximum step size                       0.0030000000
 OPT| Maximum step size is converged                                          NO
 OPT|
 OPT| RMS step size                                                 0.0044672318
 OPT| Convergence limit for RMS step size                           0.0015000000
 OPT| RMS step size is converged                                              NO
 OPT|
 OPT| Maximum gradient                                              0.0028532708
 OPT| Convergence limit for maximum gradient                        0.0004500000
 OPT| Maximum gradient is converged                                           NO
 OPT|
 OPT| RMS gradient                                                  0.0013252381
 OPT| Convergence limit for RMS gradient                            0.0003000000
 OPT| RMS gradient is converged                                               NO
 OPT|
 OPT| Pressure deviation [bar]                                  -1261.0113303862
 OPT| Pressure tolerance [bar]                                    100.0000000000
 OPT| Pressure is converged                                                   NO
 OPT| **************************************************************************
 OPT| Estimated peak process memory after this step [MiB]                    167

 --------------------------
 OPTIMIZATION STEP:      4
 --------------------------

 CELL| Volume [angstrom^3]:                                           344.783382
 CELL| Vector a [angstrom]:       7.581     0.000     0.000   |a| =     7.580586
 CELL| Vector b [angstrom]:       0.000     5.332     0.000   |b| =     5.332434
 CELL| Vector c [angstrom]:      -4.725    -0.000     8.529   |c| =     9.750942
 CELL| Angle (b,c), alpha [degree]:                                    90.000000
 CELL| Angle (a,c), beta  [degree]:                                   118.987554
 CELL| Angle (a,b), gamma [degree]:                                    90.000000
 CELL| Numerically orthorhombic:                                              NO
 CELL| Periodicity                                                           XYZ

 Extrapolation method: ASPC

 Number of electrons:                                                        104
 Number of occupied orbitals:                                                 52
 Number of molecular orbitals:                                                96

 Number of orbital functions:                                                 96
 Number of independent orbital functions:                                     96


 SCF WAVEFUNCTION OPTIMIZATION

  Step     Update method      Time    Convergence         Total energy    Change
  ------------------------------------------------------------------------------
     1 TBLite/Diag 0.40E+00    0.0     0.00464015       -57.3005708133 -5.73E+01
     2 TBLite/Diag 0.40E+00    0.0     0.00088129       -57.3005757351 -4.92E-06
     3 TBLite/Diag 0.40E+00    0.0     0.00044964       -57.3005758545 -1.19E-07
     4 TBLite/Diag 0.40E+00    0.0     0.00039393       -57.3005761938 -3.39E-07
     5 TBLite/Diag 0.40E+00    0.0     0.00014721       -57.3005763936 -2.00E-07
     6 TBLite/Diag 0.40E+00    0.0     0.00001795       -57.3005763935  7.93E-11
     7 TBLite/Diag 0.40E+00    0.0     0.00001060       -57.3005763941 -6.02E-10
     8 TBLite/Diag 0.40E+00    0.0     0.00000142       -57.3005763941 -1.29E-11
     9 TBLite/Diag 0.40E+00    0.0     0.00000037       -57.3005763941 -1.23E-12
    10 TBLite/Diag 0.40E+00    0.0     0.00000004       -57.3005763941 -3.55E-14
    11 TBLite/Diag 0.40E+00    0.0     0.00000003       -57.3005763941 -6.39E-14
    12 TBLite/Diag 0.40E+00    0.0     0.00000002       -57.3005763941  6.39E-14
    13 TBLite/Diag 0.40E+00    0.0     7.2675E-09       -57.3005763941 -1.28E-13
    14 TBLite/Diag 0.40E+00    0.0     4.2916E-10       -57.3005763941  1.14E-13

  *** SCF run converged in    14 steps ***


  Core Hamiltonian energy:                                    -58.17366696325711
  Repulsive potential energy:                                   0.86560633865485
  Electrostatic energy:                                         0.08476142057530
  Self-consistent dispersion energy:                           -0.09642857011848
  Non-self consistent dispersion energy:                        0.01915138005286
  Correction for halogen bonding:                               0.00000000000000
  Electronic entropic energy:                                  -0.00000000000000
  Fermi energy:                                                -0.24643390628318

  Total energy:                                               -57.30057639409258
  Total energy (extrapolated to T->0):                        -57.30057639409258

 ENERGY| Total FORCE_EVAL ( QS ) energy [hartree]            -57.300576394092580

 OPT| **************************************************************************
 OPT| Step number                                                              4
 OPT| Optimization method                                                   BFGS
 OPT| Total energy [hartree]                                      -57.3005763941
 OPT| Internal pressure [bar]                                    1133.0262482521
 OPT| Effective energy change [hartree]                            -0.0002906779
 OPT| Predicted energy change [hartree]                            -0.0001765193
 OPT| Scaling factor                                                0.0000000000
 OPT| Step size                                                     0.0163594436
 OPT| Trust radius                                                  0.4724315332
 OPT| Decrease in energy                                                     YES
 OPT| Used time [s]                                                        1.880
 OPT|
 OPT| Maximum step size                                             0.0163594436
 OPT| Convergence limit for maximum step size                       0.0030000000
 OPT| Maximum step size is converged                                          NO
 OPT|
 OPT| RMS step size                                                 0.0035311043
 OPT| Convergence limit for RMS step size                           0.0015000000
 OPT| RMS step size is converged                                              NO
 OPT|
 OPT| Maximum gradient                                              0.0037672117
 OPT| Convergence limit for maximum gradient                        0.0004500000
 OPT| Maximum gradient is converged                                           NO
 OPT|
 OPT| RMS gradient                                                  0.0014488954
 OPT| Convergence limit for RMS gradient                            0.0003000000
 OPT| RMS gradient is converged                                               NO
 OPT|
 OPT| Pressure deviation [bar]                                   1133.0262482521
 OPT| Pressure tolerance [bar]                                    100.0000000000
 OPT| Pressure is converged                                                   NO
 OPT| **************************************************************************
 OPT| Estimated peak process memory after this step [MiB]                    167

 --------------------------
 OPTIMIZATION STEP:      5
 --------------------------

 CELL| Volume [angstrom^3]:                                           342.632120
 CELL| Vector a [angstrom]:       7.584     0.000     0.000   |a| =     7.584468
 CELL| Vector b [angstrom]:       0.000     5.311     0.000   |b| =     5.310507
 CELL| Vector c [angstrom]:      -4.712    -0.000     8.507   |c| =     9.724655
 CELL| Angle (b,c), alpha [degree]:                                    90.000000
 CELL| Angle (a,c), beta  [degree]:                                   118.982502
 CELL| Angle (a,b), gamma [degree]:                                    90.000000
 CELL| Numerically orthorhombic:                                              NO
 CELL| Periodicity                                                           XYZ

 Extrapolation method: ASPC

 Number of electrons:                                                        104
 Number of occupied orbitals:                                                 52
 Number of molecular orbitals:                                                96

 Number of orbital functions:                                                 96
 Number of independent orbital functions:                                     96


 SCF WAVEFUNCTION OPTIMIZATION

  Step     Update method      Time    Convergence         Total energy    Change
  ------------------------------------------------------------------------------
     1 TBLite/Diag 0.40E+00    0.0     0.01051399       -57.3012670150 -5.73E+01
     2 TBLite/Diag 0.40E+00    0.0     0.00107574       -57.3012759912 -8.98E-06
     3 TBLite/Diag 0.40E+00    0.0     0.00100072       -57.3012736106  2.38E-06
     4 TBLite/Diag 0.40E+00    0.0     0.00087570       -57.3012771881 -3.58E-06
     5 TBLite/Diag 0.40E+00    0.0     0.00020324       -57.3012775472 -3.59E-07
     6 TBLite/Diag 0.40E+00    0.0     0.00001969       -57.3012775477 -5.00E-10
     7 TBLite/Diag 0.40E+00    0.0     0.00001171       -57.3012775484 -7.07E-10
     8 TBLite/Diag 0.40E+00    0.0     0.00000269       -57.3012775484 -2.35E-11
     9 TBLite/Diag 0.40E+00    0.0     0.00000112       -57.3012775484 -9.68E-12
    10 TBLite/Diag 0.40E+00    0.0     0.00000017       -57.3012775484 -1.35E-13
    11 TBLite/Diag 0.40E+00    0.0     0.00000003       -57.3012775484 -4.97E-14
    12 TBLite/Diag 0.40E+00    0.0     0.00000003       -57.3012775484  1.28E-13
    13 TBLite/Diag 0.40E+00    0.0     0.00000002       -57.3012775484 -6.39E-14
    14 TBLite/Diag 0.40E+00    0.0     2.0564E-09       -57.3012775484 -7.11E-14
    15 TBLite/Diag 0.40E+00    0.0     5.4519E-10       -57.3012775484  7.11E-14

  *** SCF run converged in    15 steps ***


  Core Hamiltonian energy:                                    -58.17668515677920
  Repulsive potential energy:                                   0.86837221756679
  Electrostatic energy:                                         0.08476081650450
  Self-consistent dispersion energy:                           -0.09712037588243
  Non-self consistent dispersion energy:                        0.01939495019013
  Correction for halogen bonding:                               0.00000000000000
  Electronic entropic energy:                                  -0.00000000000000
  Fermi energy:                                                -0.24569508606226

  Total energy:                                               -57.30127754840021
  Total energy (extrapolated to T->0):                        -57.30127754840021

 ENERGY| Total FORCE_EVAL ( QS ) energy [hartree]            -57.301277548400208

 OPT| **************************************************************************
 OPT| Step number                                                              5
 OPT| Optimization method                                                   BFGS
 OPT| Total energy [hartree]                                      -57.3012775484
 OPT| Internal pressure [bar]                                    3390.0722069726
 OPT| Effective energy change [hartree]                            -0.0007011543
 OPT| Predicted energy change [hartree]                            -0.0004847642
 OPT| Scaling factor                                                0.0000000000
 OPT| Step size                                                     0.0426668644
 OPT| Trust radius                                                  0.4724315332
 OPT| Decrease in energy                                                     YES
 OPT| Used time [s]                                                        1.920
 OPT|
 OPT| Maximum step size                                             0.0426668644
 OPT| Convergence limit for maximum step size                       0.0030000000
 OPT| Maximum step size is converged                                          NO
 OPT|
 OPT| RMS step size                                                 0.0102806280
 OPT| Convergence limit for RMS step size                           0.0015000000
 OPT| RMS step size is converged                                              NO
 OPT|
 OPT| Maximum gradient                                              0.0047658749
 OPT| Convergence limit for maximum gradient                        0.0004500000
 OPT| Maximum gradient is converged                                           NO
 OPT|
 OPT| RMS gradient                                                  0.0019571962
 OPT| Convergence limit for RMS gradient                            0.0003000000
 OPT| RMS gradient is converged                                               NO
 OPT|
 OPT| Pressure deviation [bar]                                   3390.0722069726
 OPT| Pressure tolerance [bar]                                    100.0000000000
 OPT| Pressure is converged                                                   NO
 OPT| **************************************************************************
 OPT| Estimated peak process memory after this step [MiB]                    167

 --------------------------
 OPTIMIZATION STEP:      6
 --------------------------

 CELL| Volume [angstrom^3]:                                           340.065848
 CELL| Vector a [angstrom]:       7.590     0.000     0.000   |a| =     7.590164
 CELL| Vector b [angstrom]:      -0.000     5.283     0.000   |b| =     5.282738
 CELL| Vector c [angstrom]:      -4.696    -0.000     8.481   |c| =     9.694332
 CELL| Angle (b,c), alpha [degree]:                                    90.000000
 CELL| Angle (a,c), beta  [degree]:                                   118.972448
 CELL| Angle (a,b), gamma [degree]:                                    90.000000
 CELL| Numerically orthorhombic:                                              NO
 CELL| Periodicity                                                           XYZ

 Extrapolation method: ASPC

 Number of electrons:                                                        104
 Number of occupied orbitals:                                                 52
 Number of molecular orbitals:                                                96

 Number of orbital functions:                                                 96
 Number of independent orbital functions:                                     96


 SCF WAVEFUNCTION OPTIMIZATION

  Step     Update method      Time    Convergence         Total energy    Change
  ------------------------------------------------------------------------------
     1 TBLite/Diag 0.40E+00    0.0     0.00965654       -57.3020279139 -5.73E+01
     2 TBLite/Diag 0.40E+00    0.0     0.00025080       -57.3020293420 -1.43E-06
     3 TBLite/Diag 0.40E+00    0.0     0.00039806       -57.3020290981  2.44E-07
     4 TBLite/Diag 0.40E+00    0.0     0.00032880       -57.3020298275 -7.29E-07
     5 TBLite/Diag 0.40E+00    0.0     0.00004861       -57.3020298408 -1.33E-08
     6 TBLite/Diag 0.40E+00    0.0     0.00003436       -57.3020298443 -3.52E-09
     7 TBLite/Diag 0.40E+00    0.0     0.00001253       -57.3020298454 -1.08E-09
     8 TBLite/Diag 0.40E+00    0.0     0.00000207       -57.3020298455 -4.04E-11
     9 TBLite/Diag 0.40E+00    0.0     0.00000046       -57.3020298455 -1.52E-12
    10 TBLite/Diag 0.40E+00    0.0     0.00000021       -57.3020298455 -2.34E-13
    11 TBLite/Diag 0.40E+00    0.0     0.00000002       -57.3020298455  7.82E-14
    12 TBLite/Diag 0.40E+00    0.0     0.00000001       -57.3020298455 -1.42E-14
    13 TBLite/Diag 0.40E+00    0.0     8.6013E-09       -57.3020298455 -2.13E-14
    14 TBLite/Diag 0.40E+00    0.0     3.8305E-09       -57.3020298455 -4.26E-14
    15 TBLite/Diag 0.40E+00    0.0     4.2394E-10       -57.3020298455  1.42E-14

  *** SCF run converged in    15 steps ***


  Core Hamiltonian energy:                                    -58.17293777766744
  Repulsive potential energy:                                   0.86455333281070
  Electrostatic energy:                                         0.08464486989170
  Self-consistent dispersion energy:                           -0.09798059364380
  Non-self consistent dispersion energy:                        0.01969032315071
  Correction for halogen bonding:                               0.00000000000000
  Electronic entropic energy:                                  -0.00000000000000
  Fermi energy:                                                -0.24560634920476

  Total energy:                                               -57.30202984545812
  Total energy (extrapolated to T->0):                        -57.30202984545812

 ENERGY| Total FORCE_EVAL ( QS ) energy [hartree]            -57.302029845458115

 OPT| **************************************************************************
 OPT| Step number                                                              6
 OPT| Optimization method                                                   BFGS
 OPT| Total energy [hartree]                                      -57.3020298455
 OPT| Internal pressure [bar]                                    2347.9849139824
 OPT| Effective energy change [hartree]                            -0.0007522971
 OPT| Predicted energy change [hartree]                            -0.0005206834
 OPT| Scaling factor                                                0.0000000000
 OPT| Step size                                                     0.0524768927
 OPT| Trust radius                                                  0.4724315332
 OPT| Decrease in energy                                                     YES
 OPT| Used time [s]                                                        1.921
 OPT|
 OPT| Maximum step size                                             0.0524768927
 OPT| Convergence limit for maximum step size                       0.0030000000
 OPT| Maximum step size is converged                                          NO
 OPT|
 OPT| RMS step size                                                 0.0132218593
 OPT| Convergence limit for RMS step size                           0.0015000000
 OPT| RMS step size is converged                                              NO
 OPT|
 OPT| Maximum gradient                                              0.0060348512
 OPT| Convergence limit for maximum gradient                        0.0004500000
 OPT| Maximum gradient is converged                                           NO
 OPT|
 OPT| RMS gradient                                                  0.0021734348
 OPT| Convergence limit for RMS gradient                            0.0003000000
 OPT| RMS gradient is converged                                               NO
 OPT|
 OPT| Pressure deviation [bar]                                   2347.9849139824
 OPT| Pressure tolerance [bar]                                    100.0000000000
 OPT| Pressure is converged                                                   NO
 OPT| **************************************************************************
 OPT| Estimated peak process memory after this step [MiB]                    168

 --------------------------
 OPTIMIZATION STEP:      7
 --------------------------

 CELL| Volume [angstrom^3]:                                           337.270857
 CELL| Vector a [angstrom]:       7.597     0.000     0.000   |a| =     7.596540
 CELL| Vector b [angstrom]:      -0.000     5.250     0.000   |b| =     5.250273
 CELL| Vector c [angstrom]:      -4.679    -0.000     8.456   |c| =     9.664469
 CELL| Angle (b,c), alpha [degree]:                                    90.000000
 CELL| Angle (a,c), beta  [degree]:                                   118.956196
 CELL| Angle (a,b), gamma [degree]:                                    90.000000
 CELL| Numerically orthorhombic:                                              NO
 CELL| Periodicity                                                           XYZ

 Extrapolation method: ASPC

 Number of electrons:                                                        104
 Number of occupied orbitals:                                                 52
 Number of molecular orbitals:                                                96

 Number of orbital functions:                                                 96
 Number of independent orbital functions:                                     96


 SCF WAVEFUNCTION OPTIMIZATION

  Step     Update method      Time    Convergence         Total energy    Change
  ------------------------------------------------------------------------------
     1 TBLite/Diag 0.40E+00    0.0     0.01137060       -57.3027615254 -5.73E+01
     2 TBLite/Diag 0.40E+00    0.0     0.00167619       -57.3027789860 -1.75E-05
     3 TBLite/Diag 0.40E+00    0.0     0.00098737       -57.3027768166  2.17E-06
     4 TBLite/Diag 0.40E+00    0.0     0.00095566       -57.3027802039 -3.39E-06
     5 TBLite/Diag 0.40E+00    0.0     0.00032278       -57.3027810790 -8.75E-07
     6 TBLite/Diag 0.40E+00    0.0     0.00004219       -57.3027810795 -4.94E-10
     7 TBLite/Diag 0.40E+00    0.0     0.00002684       -57.3027810833 -3.78E-09
     8 TBLite/Diag 0.40E+00    0.0     0.00000458       -57.3027810835 -1.36E-10
     9 TBLite/Diag 0.40E+00    0.0     0.00000099       -57.3027810835 -1.94E-11
    10 TBLite/Diag 0.40E+00    0.0     0.00000026       -57.3027810835 -1.01E-12
    11 TBLite/Diag 0.40E+00    0.0     0.00000004       -57.3027810835  9.95E-14
    12 TBLite/Diag 0.40E+00    0.0     0.00000006       -57.3027810835 -3.55E-14
    13 TBLite/Diag 0.40E+00    0.0     0.00000003       -57.3027810835  7.11E-15
    14 TBLite/Diag 0.40E+00    0.0     1.6263E-09       -57.3027810835 -2.13E-14
    15 TBLite/Diag 0.40E+00    0.0     1.0917E-09       -57.3027810835  2.84E-14
    16 TBLite/Diag 0.40E+00    0.0     5.3688E-10       -57.3027810835  0.00E+00

  *** SCF run converged in    16 steps ***


  Core Hamiltonian energy:                                    -58.16349320046536
  Repulsive potential energy:                                   0.85533668136837
  Electrostatic energy:                                         0.08429674289451
  Self-consistent dispersion energy:                           -0.09893628448668
  Non-self consistent dispersion energy:                        0.02001497721761
  Correction for halogen bonding:                               0.00000000000000
  Electronic entropic energy:                                  -0.00000000000000
  Fermi energy:                                                -0.24615720647880

  Total energy:                                               -57.30278108347155
  Total energy (extrapolated to T->0):                        -57.30278108347155

 ENERGY| Total FORCE_EVAL ( QS ) energy [hartree]            -57.302781083471551

 OPT| **************************************************************************
 OPT| Step number                                                              7
 OPT| Optimization method                                                   BFGS
 OPT| Total energy [hartree]                                      -57.3027810835
 OPT| Internal pressure [bar]                                   -1590.8605659625
 OPT| Effective energy change [hartree]                            -0.0007512380
 OPT| Predicted energy change [hartree]                            -0.0005434703
 OPT| Scaling factor                                                0.0000000000
 OPT| Step size                                                     0.0613497794
 OPT| Trust radius                                                  0.4724315332
 OPT| Decrease in energy                                                     YES
 OPT| Used time [s]                                                        1.949
 OPT|
 OPT| Maximum step size                                             0.0613497794
 OPT| Convergence limit for maximum step size                       0.0030000000
 OPT| Maximum step size is converged                                          NO
 OPT|
 OPT| RMS step size                                                 0.0146767592
 OPT| Convergence limit for RMS step size                           0.0015000000
 OPT| RMS step size is converged                                              NO
 OPT|
 OPT| Maximum gradient                                              0.0078644148
 OPT| Convergence limit for maximum gradient                        0.0004500000
 OPT| Maximum gradient is converged                                           NO
 OPT|
 OPT| RMS gradient                                                  0.0019235046
 OPT| Convergence limit for RMS gradient                            0.0003000000
 OPT| RMS gradient is converged                                               NO
 OPT|
 OPT| Pressure deviation [bar]                                  -1590.8605659625
 OPT| Pressure tolerance [bar]                                    100.0000000000
 OPT| Pressure is converged                                                   NO
 OPT| **************************************************************************
 OPT| Estimated peak process memory after this step [MiB]                    168

 --------------------------
 OPTIMIZATION STEP:      8
 --------------------------

 CELL| Volume [angstrom^3]:                                           334.997383
 CELL| Vector a [angstrom]:       7.601     0.000     0.000   |a| =     7.600844
 CELL| Vector b [angstrom]:      -0.000     5.222     0.000   |b| =     5.221581
 CELL| Vector c [angstrom]:      -4.667    -0.000     8.441   |c| =     9.644823
 CELL| Angle (b,c), alpha [degree]:                                    90.000000
 CELL| Angle (a,c), beta  [degree]:                                   118.937059
 CELL| Angle (a,b), gamma [degree]:                                    90.000000
 CELL| Numerically orthorhombic:                                              NO
 CELL| Periodicity                                                           XYZ

 Extrapolation method: ASPC

 Number of electrons:                                                        104
 Number of occupied orbitals:                                                 52
 Number of molecular orbitals:                                                96

 Number of orbital functions:                                                 96
 Number of independent orbital functions:                                     96


 SCF WAVEFUNCTION OPTIMIZATION

  Step     Update method      Time    Convergence         Total energy    Change
  ------------------------------------------------------------------------------
     1 TBLite/Diag 0.40E+00    0.0     0.01125107       -57.3033462190 -5.73E+01
     2 TBLite/Diag 0.40E+00    0.0     0.00222898       -57.3033771891 -3.10E-05
     3 TBLite/Diag 0.40E+00    0.0     0.00098027       -57.3033790841 -1.90E-06
     4 TBLite/Diag 0.40E+00    0.0     0.00088012       -57.3033794656 -3.81E-07
     5 TBLite/Diag 0.40E+00    0.0     0.00042360       -57.3033810023 -1.54E-06
     6 TBLite/Diag 0.40E+00    0.0     0.00003905       -57.3033810036 -1.28E-09
     7 TBLite/Diag 0.40E+00    0.0     0.00002501       -57.3033810064 -2.82E-09
     8 TBLite/Diag 0.40E+00    0.0     0.00000565       -57.3033810066 -1.88E-10
     9 TBLite/Diag 0.40E+00    0.0     0.00000122       -57.3033810067 -2.67E-11
    10 TBLite/Diag 0.40E+00    0.0     0.00000034       -57.3033810067 -1.22E-12
    11 TBLite/Diag 0.40E+00    0.0     0.00000006       -57.3033810067 -5.68E-14
    12 TBLite/Diag 0.40E+00    0.0     0.00000007       -57.3033810067  7.11E-15
    13 TBLite/Diag 0.40E+00    0.0     0.00000004       -57.3033810067  7.11E-14
    14 TBLite/Diag 0.40E+00    0.0     1.5747E-09       -57.3033810067 -1.42E-14
    15 TBLite/Diag 0.40E+00    0.0     1.2662E-09       -57.3033810067  2.13E-14
    16 TBLite/Diag 0.40E+00    0.0     2.6174E-10       -57.3033810067 -3.55E-14

  *** SCF run converged in    16 steps ***


  Core Hamiltonian energy:                                    -58.15489209937075
  Repulsive potential energy:                                   0.84718176886142
  Electrostatic energy:                                         0.08375948283981
  Self-consistent dispersion energy:                           -0.09971380912108
  Non-self consistent dispersion energy:                        0.02028365012767
  Correction for halogen bonding:                               0.00000000000000
  Electronic entropic energy:                                  -0.00000000000000
  Fermi energy:                                                -0.24685451361388

  Total energy:                                               -57.30338100666293
  Total energy (extrapolated to T->0):                        -57.30338100666293

 ENERGY| Total FORCE_EVAL ( QS ) energy [hartree]            -57.303381006662931

 OPT| **************************************************************************
 OPT| Step number                                                              8
 OPT| Optimization method                                                   BFGS
 OPT| Total energy [hartree]                                      -57.3033810067
 OPT| Internal pressure [bar]                                   -5370.8921559547
 OPT| Effective energy change [hartree]                            -0.0005999232
 OPT| Predicted energy change [hartree]                            -0.0004209497
 OPT| Scaling factor                                                0.0000000000
 OPT| Step size                                                     0.0542197466
 OPT| Trust radius                                                  0.4724315332
 OPT| Decrease in energy                                                     YES
 OPT| Used time [s]                                                        1.979
 OPT|
 OPT| Maximum step size                                             0.0542197466
 OPT| Convergence limit for maximum step size                       0.0030000000
 OPT| Maximum step size is converged                                          NO
 OPT|
 OPT| RMS step size                                                 0.0112894591
 OPT| Convergence limit for RMS step size                           0.0015000000
 OPT| RMS step size is converged                                              NO
 OPT|
 OPT| Maximum gradient                                              0.0101342039
 OPT| Convergence limit for maximum gradient                        0.0004500000
 OPT| Maximum gradient is converged                                           NO
 OPT|
 OPT| RMS gradient                                                  0.0016547155
 OPT| Convergence limit for RMS gradient                            0.0003000000
 OPT| RMS gradient is converged                                               NO
 OPT|
 OPT| Pressure deviation [bar]                                  -5370.8921559547
 OPT| Pressure tolerance [bar]                                    100.0000000000
 OPT| Pressure is converged                                                   NO
 OPT| **************************************************************************
 OPT| Estimated peak process memory after this step [MiB]                    168

 --------------------------
 OPTIMIZATION STEP:      9
 --------------------------

 CELL| Volume [angstrom^3]:                                           332.613004
 CELL| Vector a [angstrom]:       7.604     0.000     0.000   |a| =     7.603864
 CELL| Vector b [angstrom]:      -0.000     5.190     0.000   |b| =     5.189837
 CELL| Vector c [angstrom]:      -4.655    -0.000     8.429   |c| =     9.628515
 CELL| Angle (b,c), alpha [degree]:                                    90.000000
 CELL| Angle (a,c), beta  [degree]:                                   118.911166
 CELL| Angle (a,b), gamma [degree]:                                    90.000000
 CELL| Numerically orthorhombic:                                              NO
 CELL| Periodicity                                                           XYZ

 Extrapolation method: ASPC

 Number of electrons:                                                        104
 Number of occupied orbitals:                                                 52
 Number of molecular orbitals:                                                96

 Number of orbital functions:                                                 96
 Number of independent orbital functions:                                     96


 SCF WAVEFUNCTION OPTIMIZATION

  Step     Update method      Time    Convergence         Total energy    Change
  ------------------------------------------------------------------------------
     1 TBLite/Diag 0.40E+00    0.0     0.01175097       -57.3039333132 -5.73E+01
     2 TBLite/Diag 0.40E+00    0.0     0.00220987       -57.3039642429 -3.09E-05
     3 TBLite/Diag 0.40E+00    0.0     0.00102467       -57.3039659395 -1.70E-06
     4 TBLite/Diag 0.40E+00    0.0     0.00090551       -57.3039664562 -5.17E-07
     5 TBLite/Diag 0.40E+00    0.0     0.00042675       -57.3039679935 -1.54E-06
     6 TBLite/Diag 0.40E+00    0.0     0.00003207       -57.3039679948 -1.30E-09
     7 TBLite/Diag 0.40E+00    0.0     0.00002411       -57.3039679972 -2.44E-09
     8 TBLite/Diag 0.40E+00    0.0     0.00000583       -57.3039679974 -1.80E-10
     9 TBLite/Diag 0.40E+00    0.0     0.00000142       -57.3039679974 -3.09E-11
    10 TBLite/Diag 0.40E+00    0.0     0.00000038       -57.3039679974 -1.44E-12
    11 TBLite/Diag 0.40E+00    0.0     0.00000007       -57.3039679974 -4.97E-14
    12 TBLite/Diag 0.40E+00    0.0     0.00000007       -57.3039679974  9.24E-14
    13 TBLite/Diag 0.40E+00    0.0     0.00000004       -57.3039679974 -4.26E-14
    14 TBLite/Diag 0.40E+00    0.0     2.7086E-09       -57.3039679974 -2.84E-14
    15 TBLite/Diag 0.40E+00    0.0     1.4598E-09       -57.3039679974  5.68E-14
    16 TBLite/Diag 0.40E+00    0.0     4.9737E-10       -57.3039679974 -4.97E-14

  *** SCF run converged in    16 steps ***


  Core Hamiltonian energy:                                    -58.14975830880366
  Repulsive potential energy:                                   0.84271441271661
  Electrostatic energy:                                         0.08303274544121
  Self-consistent dispersion energy:                           -0.10051694514336
  Non-self consistent dispersion energy:                        0.02056009836344
  Correction for halogen bonding:                               0.00000000000000
  Electronic entropic energy:                                  -0.00000000000000
  Fermi energy:                                                -0.24736165098050

  Total energy:                                               -57.30396799742577
  Total energy (extrapolated to T->0):                        -57.30396799742577

 ENERGY| Total FORCE_EVAL ( QS ) energy [hartree]            -57.303967997425765

 OPT| **************************************************************************
 OPT| Step number                                                              9
 OPT| Optimization method                                                   BFGS
 OPT| Total energy [hartree]                                      -57.3039679974
 OPT| Internal pressure [bar]                                   -7297.7704811405
 OPT| Effective energy change [hartree]                            -0.0005869908
 OPT| Predicted energy change [hartree]                            -0.0003998500
 OPT| Scaling factor                                                0.0000000000
 OPT| Step size                                                     0.0599866064
 OPT| Trust radius                                                  0.4724315332
 OPT| Decrease in energy                                                     YES
 OPT| Used time [s]                                                        1.998
 OPT|
 OPT| Maximum step size                                             0.0599866064
 OPT| Convergence limit for maximum step size                       0.0030000000
 OPT| Maximum step size is converged                                          NO
 OPT|
 OPT| RMS step size                                                 0.0104858536
 OPT| Convergence limit for RMS step size                           0.0015000000
 OPT| RMS step size is converged                                              NO
 OPT|
 OPT| Maximum gradient                                              0.0096907892
 OPT| Convergence limit for maximum gradient                        0.0004500000
 OPT| Maximum gradient is converged                                           NO
 OPT|
 OPT| RMS gradient                                                  0.0017073531
 OPT| Convergence limit for RMS gradient                            0.0003000000
 OPT| RMS gradient is converged                                               NO
 OPT|
 OPT| Pressure deviation [bar]                                  -7297.7704811405
 OPT| Pressure tolerance [bar]                                    100.0000000000
 OPT| Pressure is converged                                                   NO
 OPT| **************************************************************************
 OPT| Estimated peak process memory after this step [MiB]                    168

 --------------------------
 OPTIMIZATION STEP:     10
 --------------------------

 CELL| Volume [angstrom^3]:                                           329.562624
 CELL| Vector a [angstrom]:       7.607     0.000     0.000   |a| =     7.606916
 CELL| Vector b [angstrom]:      -0.000     5.149     0.000   |b| =     5.148949
 CELL| Vector c [angstrom]:      -4.640    -0.000     8.414   |c| =     9.608649
 CELL| Angle (b,c), alpha [degree]:                                    90.000000
 CELL| Angle (a,c), beta  [degree]:                                   118.873733
 CELL| Angle (a,b), gamma [degree]:                                    90.000000
 CELL| Numerically orthorhombic:                                              NO
 CELL| Periodicity                                                           XYZ

 Extrapolation method: ASPC

 Number of electrons:                                                        104
 Number of occupied orbitals:                                                 52
 Number of molecular orbitals:                                                96

 Number of orbital functions:                                                 96
 Number of independent orbital functions:                                     96


 SCF WAVEFUNCTION OPTIMIZATION

  Step     Update method      Time    Convergence         Total energy    Change
  ------------------------------------------------------------------------------
     1 TBLite/Diag 0.40E+00    0.0     0.01278302       -57.3045680458 -5.73E+01
     2 TBLite/Diag 0.40E+00    0.0     0.00176612       -57.3045872816 -1.92E-05
     3 TBLite/Diag 0.40E+00    0.0     0.00095144       -57.3045865159  7.66E-07
     4 TBLite/Diag 0.40E+00    0.0     0.00090431       -57.3045883268 -1.81E-06
     5 TBLite/Diag 0.40E+00    0.0     0.00035764       -57.3045893533 -1.03E-06
     6 TBLite/Diag 0.40E+00    0.0     0.00001803       -57.3045893547 -1.32E-09
     7 TBLite/Diag 0.40E+00    0.0     0.00001680       -57.3045893557 -1.01E-09
     8 TBLite/Diag 0.40E+00    0.0     0.00000574       -57.3045893558 -1.33E-10
     9 TBLite/Diag 0.40E+00    0.0     0.00000186       -57.3045893558 -3.41E-11
    10 TBLite/Diag 0.40E+00    0.0     0.00000036       -57.3045893558 -1.27E-12
    11 TBLite/Diag 0.40E+00    0.0     0.00000005       -57.3045893558 -5.68E-14
    12 TBLite/Diag 0.40E+00    0.0     0.00000006       -57.3045893558 -4.26E-14
    13 TBLite/Diag 0.40E+00    0.0     0.00000004       -57.3045893558  4.97E-14
    14 TBLite/Diag 0.40E+00    0.0     2.9177E-09       -57.3045893558  2.13E-14
    15 TBLite/Diag 0.40E+00    0.0     1.2829E-09       -57.3045893558 -1.42E-14
    16 TBLite/Diag 0.40E+00    0.0     5.4718E-10       -57.3045893558 -7.11E-14

  *** SCF run converged in    16 steps ***


  Core Hamiltonian energy:                                    -58.14924260744473
  Repulsive potential energy:                                   0.84310041673576
  Electrostatic energy:                                         0.08217093188466
  Self-consistent dispersion energy:                           -0.10153681541887
  Non-self consistent dispersion energy:                        0.02091871841154
  Correction for halogen bonding:                               0.00000000000000
  Electronic entropic energy:                                  -0.00000000000000
  Fermi energy:                                                -0.24745283505412

  Total energy:                                               -57.30458935583163
  Total energy (extrapolated to T->0):                        -57.30458935583163

 ENERGY| Total FORCE_EVAL ( QS ) energy [hartree]            -57.304589355831631

 OPT| **************************************************************************
 OPT| Step number                                                             10
 OPT| Optimization method                                                   BFGS
 OPT| Total energy [hartree]                                      -57.3045893558
 OPT| Internal pressure [bar]                                   -6400.2798921633
 OPT| Effective energy change [hartree]                            -0.0006213584
 OPT| Predicted energy change [hartree]                            -0.0004111127
 OPT| Scaling factor                                                0.0000000000
 OPT| Step size                                                     0.0772671230
 OPT| Trust radius                                                  0.4724315332
 OPT| Decrease in energy                                                     YES
 OPT| Used time [s]                                                        2.051
 OPT|
 OPT| Maximum step size                                             0.0772671230
 OPT| Convergence limit for maximum step size                       0.0030000000
 OPT| Maximum step size is converged                                          NO
 OPT|
 OPT| RMS step size                                                 0.0120189715
 OPT| Convergence limit for RMS step size                           0.0015000000
 OPT| RMS step size is converged                                              NO
 OPT|
 OPT| Maximum gradient                                              0.0069645303
 OPT| Convergence limit for maximum gradient                        0.0004500000
 OPT| Maximum gradient is converged                                           NO
 OPT|
 OPT| RMS gradient                                                  0.0019085250
 OPT| Convergence limit for RMS gradient                            0.0003000000
 OPT| RMS gradient is converged                                               NO
 OPT|
 OPT| Pressure deviation [bar]                                  -6400.2798921633
 OPT| Pressure tolerance [bar]                                    100.0000000000
 OPT| Pressure is converged                                                   NO
 OPT| **************************************************************************
 OPT| Estimated peak process memory after this step [MiB]                    168

 --------------------------
 OPTIMIZATION STEP:     11
 --------------------------

 CELL| Volume [angstrom^3]:                                           324.914800
 CELL| Vector a [angstrom]:       7.612     0.000     0.000   |a| =     7.612391
 CELL| Vector b [angstrom]:      -0.000     5.087     0.000   |b| =     5.086872
 CELL| Vector c [angstrom]:      -4.615    -0.000     8.391   |c| =     9.576173
 CELL| Angle (b,c), alpha [degree]:                                    90.000000
 CELL| Angle (a,c), beta  [degree]:                                   118.812121
 CELL| Angle (a,b), gamma [degree]:                                    90.000000
 CELL| Numerically orthorhombic:                                              NO
 CELL| Periodicity                                                           XYZ

 Extrapolation method: ASPC

 Number of electrons:                                                        104
 Number of occupied orbitals:                                                 52
 Number of molecular orbitals:                                                96

 Number of orbital functions:                                                 96
 Number of independent orbital functions:                                     96


 SCF WAVEFUNCTION OPTIMIZATION

  Step     Update method      Time    Convergence         Total energy    Change
  ------------------------------------------------------------------------------
     1 TBLite/Diag 0.40E+00    0.0     0.01587625       -57.3060781292 -5.73E+01
     2 TBLite/Diag 0.40E+00    0.0     0.00383609       -57.3061472002 -6.91E-05
     3 TBLite/Diag 0.40E+00    0.0     0.00245995       -57.3061660241 -1.88E-05
     4 TBLite/Diag 0.40E+00    0.0     0.00132890       -57.3061745082 -8.48E-06
     5 TBLite/Diag 0.40E+00    0.0     0.00033258       -57.3061753985 -8.90E-07
     6 TBLite/Diag 0.40E+00    0.0     0.00011727       -57.3061754392 -4.07E-08
     7 TBLite/Diag 0.40E+00    0.0     0.00004486       -57.3061754594 -2.02E-08
     8 TBLite/Diag 0.40E+00    0.0     0.00001274       -57.3061754601 -7.57E-10
     9 TBLite/Diag 0.40E+00    0.0     0.00000095       -57.3061754602 -1.24E-11
    10 TBLite/Diag 0.40E+00    0.0     0.00000048       -57.3061754602 -9.88E-13
    11 TBLite/Diag 0.40E+00    0.0     0.00000036       -57.3061754602  0.00E+00
    12 TBLite/Diag 0.40E+00    0.0     0.00000026       -57.3061754602 -2.34E-13
    13 TBLite/Diag 0.40E+00    0.0     0.00000005       -57.3061754602  2.13E-14
    14 TBLite/Diag 0.40E+00    0.0     0.00000001       -57.3061754602  7.11E-15
    15 TBLite/Diag 0.40E+00    0.0     4.0455E-09       -57.3061754602 -2.13E-14
    16 TBLite/Diag 0.40E+00    0.0     1.3886E-09       -57.3061754602 -1.42E-14
    17 TBLite/Diag 0.40E+00    0.0     4.7994E-10       -57.3061754602  5.68E-14

  *** SCF run converged in    17 steps ***


  Core Hamiltonian energy:                                    -58.15404417244613
  Repulsive potential energy:                                   0.84807355036554
  Electrostatic energy:                                         0.08140923617012
  Self-consistent dispersion energy:                           -0.10311458080195
  Non-self consistent dispersion energy:                        0.02150050655322
  Correction for halogen bonding:                               0.00000000000000
  Electronic entropic energy:                                  -0.00000000000000
  Fermi energy:                                                -0.24712702498690

  Total energy:                                               -57.30617546015920
  Total energy (extrapolated to T->0):                        -57.30617546015920

 ENERGY| Total FORCE_EVAL ( QS ) energy [hartree]            -57.306175460159196

 OPT| **************************************************************************
 OPT| Step number                                                             11
 OPT| Optimization method                                                   BFGS
 OPT| Total energy [hartree]                                      -57.3061754602
 OPT| Internal pressure [bar]                                   -2000.3634704996
 OPT| Effective energy change [hartree]                            -0.0015861043
 OPT| Predicted energy change [hartree]                            -0.0005217106
 OPT| Scaling factor                                                0.0000000000
 OPT| Step size                                                     0.1173087172
 OPT| Trust radius                                                  0.4724315332
 OPT| Decrease in energy                                                     YES
 OPT| Used time [s]                                                        2.072
 OPT|
 OPT| Maximum step size                                             0.1173087172
[...]
 OPT| **************************************************************************
 OPT| Estimated peak process memory after this step [MiB]                    168

 --------------------------
 OPTIMIZATION STEP:    155
 --------------------------

 CELL| Volume [angstrom^3]:                                           288.075765
 CELL| Vector a [angstrom]:       8.397     0.000     0.000   |a| =     8.397062
 CELL| Vector b [angstrom]:      -0.000     3.625     0.000   |b| =     3.624907
 CELL| Vector c [angstrom]:      -3.196    -0.000     9.464   |c| =     9.989400
 CELL| Angle (b,c), alpha [degree]:                                    90.000009
 CELL| Angle (a,c), beta  [degree]:                                   108.662259
 CELL| Angle (a,b), gamma [degree]:                                    90.000001
 CELL| Numerically orthorhombic:                                              NO
 CELL| Periodicity                                                           XYZ

 Extrapolation method: ASPC

 Number of electrons:                                                        104
 Number of occupied orbitals:                                                 52
 Number of molecular orbitals:                                                96

 Number of orbital functions:                                                 96
 Number of independent orbital functions:                                     96


 SCF WAVEFUNCTION OPTIMIZATION

  Step     Update method      Time    Convergence         Total energy    Change
  ------------------------------------------------------------------------------
     1 TBLite/Diag 0.40E+00    0.0     0.00112415       -57.4144730064 -5.74E+01
     2 TBLite/Diag 0.40E+00    0.0     0.00014744       -57.4144730879 -8.14E-08
     3 TBLite/Diag 0.40E+00    0.0     0.00011750       -57.4144730839  4.00E-09
     4 TBLite/Diag 0.40E+00    0.0     0.00008174       -57.4144731008 -1.69E-08
     5 TBLite/Diag 0.40E+00    0.0     0.00001203       -57.4144731014 -5.98E-10
     6 TBLite/Diag 0.40E+00    0.0     0.00000243       -57.4144731015 -7.58E-11
     7 TBLite/Diag 0.40E+00    0.0     0.00000157       -57.4144731015 -4.03E-11
     8 TBLite/Diag 0.40E+00    0.0     0.00000168       -57.4144731015 -9.55E-12
     9 TBLite/Diag 0.40E+00    0.0     0.00000074       -57.4144731015 -3.03E-12
    10 TBLite/Diag 0.40E+00    0.0     0.00000023       -57.4144731015 -1.78E-13
    11 TBLite/Diag 0.40E+00    0.0     0.00000002       -57.4144731015  4.26E-14
    12 TBLite/Diag 0.40E+00    0.0     0.00000002       -57.4144731015  2.13E-14
    13 TBLite/Diag 0.40E+00    0.0     5.0028E-09       -57.4144731015 -4.26E-14
    14 TBLite/Diag 0.40E+00    0.0     4.2002E-10       -57.4144731015 -1.07E-13

  *** SCF run converged in    14 steps ***


  Core Hamiltonian energy:                                    -58.19768929868211
  Repulsive potential energy:                                   0.77720818958438
  Electrostatic energy:                                         0.08788615507795
  Self-consistent dispersion energy:                           -0.10596117126115
  Non-self consistent dispersion energy:                        0.02408302374403
  Correction for halogen bonding:                               0.00000000000000
  Electronic entropic energy:                                  -0.00000000000000
  Fermi energy:                                                -0.28504153342379

  Total energy:                                               -57.41447310153691
  Total energy (extrapolated to T->0):                        -57.41447310153691

 ENERGY| Total FORCE_EVAL ( QS ) energy [hartree]            -57.414473101536906

 OPT| **************************************************************************
 OPT| Step number                                                            155
 OPT| Optimization method                                                   BFGS
 OPT| Total energy [hartree]                                      -57.4144731015
 OPT| Internal pressure [bar]                                     -81.6095026110
 OPT| Effective energy change [hartree]                            -0.0000021230
 OPT| Predicted energy change [hartree]                            -0.0000016011
 OPT| Scaling factor                                                0.8057436358
 OPT| Step size                                                     0.0025856547
 OPT| Trust radius                                                  0.4724315332
 OPT| Decrease in energy                                                     YES
 OPT| Used time [s]                                                        1.296
 OPT|
 OPT| Maximum step size                                             0.0025856547
 OPT| Convergence limit for maximum step size                       0.0030000000
 OPT| Maximum step size is converged                                         YES
 OPT|
 OPT| RMS step size                                                 0.0007087973
 OPT| Convergence limit for RMS step size                           0.0015000000
 OPT| RMS step size is converged                                             YES
 OPT|
 OPT| Maximum gradient                                              0.0001884862
 OPT| Convergence limit for maximum gradient                        0.0004500000
 OPT| Maximum gradient is converged                                          YES
 OPT|
 OPT| RMS gradient                                                  0.0000980545
 OPT| Convergence limit for RMS gradient                            0.0003000000
 OPT| RMS gradient is converged                                              YES
 OPT|
 OPT| Pressure deviation [bar]                                    -81.6095026110
 OPT| Pressure tolerance [bar]                                    100.0000000000
 OPT| Pressure is converged                                                  YES
 OPT| **************************************************************************
 OPT| Estimated peak process memory after this step [MiB]                    168

 *******************************************************************************
 ***                    GEOMETRY OPTIMIZATION COMPLETED                      ***
 *******************************************************************************

 write_final_structure: Optimization converged, writing XYZ file gladly:
  imidazole_GFN2_gamma_cell_opt-FINAL-1_155.xyz

 write_final_structure: Optimization converged, writing CIF file gladly:
  imidazole_GFN2_gamma_cell_opt-FINAL-1_155.cif

 write_final_structure: Done!

                    Reevaluating energy at the minimum

 CELL| Volume [angstrom^3]:                                           288.075765
 CELL| Vector a [angstrom]:       8.397     0.000     0.000   |a| =     8.397062
 CELL| Vector b [angstrom]:      -0.000     3.625     0.000   |b| =     3.624907
 CELL| Vector c [angstrom]:      -3.196    -0.000     9.464   |c| =     9.989400
 CELL| Angle (b,c), alpha [degree]:                                    90.000009
 CELL| Angle (a,c), beta  [degree]:                                   108.662259
 CELL| Angle (a,b), gamma [degree]:                                    90.000001
 CELL| Numerically orthorhombic:                                              NO
 CELL| Periodicity                                                           XYZ

 Extrapolation method: ASPC

 Number of electrons:                                                        104
 Number of occupied orbitals:                                                 52
 Number of molecular orbitals:                                                96

 Number of orbital functions:                                                 96
 Number of independent orbital functions:                                     96


 SCF WAVEFUNCTION OPTIMIZATION

  Step     Update method      Time    Convergence         Total energy    Change
  ------------------------------------------------------------------------------
     1 TBLite/Diag 0.40E+00    0.0     4.5739E-10       -57.4144731015 -5.74E+01

  *** SCF run converged in     1 steps ***


  Core Hamiltonian energy:                                    -58.19768929873399
  Repulsive potential energy:                                   0.77720818958438
  Electrostatic energy:                                         0.08788615512847
  Self-consistent dispersion energy:                           -0.10596117125970
  Non-self consistent dispersion energy:                        0.02408302374403
  Correction for halogen bonding:                               0.00000000000000
  Electronic entropic energy:                                  -0.00000000000000
  Fermi energy:                                                -0.28504153343163

  Total energy:                                               -57.41447310153681
  Total energy (extrapolated to T->0):                        -57.41447310153681

 ENERGY| Total FORCE_EVAL ( QS ) energy [hartree]            -57.414473101536807

 -------------------------------------------------------------------------------
 -                                                                             -
 -                                DBCSR STATISTICS                             -
 -                                                                             -
 -------------------------------------------------------------------------------
 COUNTER                                    TOTAL       BLAS       SMM       ACC
 flops     1 x    32 x     1             37847040       0.0%    100.0%      0.0%     
 flops     1 x     1 x    96             75098112       0.0%    100.0%      0.0%     
 flops     4 x    32 x     1            189235200       0.0%    100.0%      0.0%     
 flops     1 x    32 x     4            189235200       0.0%    100.0%      0.0%     
 flops     1 x     4 x    96            353402880       0.0%    100.0%      0.0%     
 flops     4 x     1 x    96            353402880       0.0%    100.0%      0.0%     
 flops     4 x    32 x     4            946176000       0.0%    100.0%      0.0%     
 flops     4 x     4 x    96           1855365120       0.0%    100.0%      0.0%     
 flops inhomo. stacks                           0       0.0%      0.0%      0.0%
 flops total                         3.999762E+09       0.0%    100.0%      0.0%
 flops max/rank                      3.999762E+09       0.0%    100.0%      0.0%
 matmuls inhomo. stacks                         0       0.0%      0.0%      0.0%
 matmuls total                            4909176       0.0%    100.0%      0.0%
 number of processed stacks                 16124       0.0%    100.0%      0.0%
 average stack size                                     0.0     304.5       0.0
 marketing flops                     4.119036E+09
 -------------------------------------------------------------------------------
 # multiplications                           3646
 max memory usage/rank              13.674746E+09
 # max total images/rank                        1
 # max 3D layers                                1
 # MPI messages exchanged                       0
 -------------------------------------------------------------------------------
 -                                                                             -
 -                      DBCSR MESSAGE PASSING PERFORMANCE                      -
 -                                                                             -
 -------------------------------------------------------------------------------
 ROUTINE             CALLS      AVE VOLUME [Bytes]
 MP_Bcast                9                     12.
 MP_Allreduce        16725                      8.
 MP_Alltoall        123722                  51702.
 MP_ISend            14584                   4669.
 MP_IRecv            14584                   4669.
 -------------------------------------------------------------------------------

 -------------------------------------------------------------------------------
 -                                                                             -
 -                          OFFLOAD MEMPOOL STATISTICS                         -
 -                                                                             -
 -------------------------------------------------------------------------------
 Memory consumption                Number of allocations  Used [MiB]  Size [MiB]
 Device                                                1           0           0
 Host                                                  1           0           0
 -------------------------------------------------------------------------------

 MEMORY| Estimated peak process memory [MiB]                                 169

 -------------------------------------------------------------------------------
 -                                                                             -
 -                         MESSAGE PASSING PERFORMANCE                         -
 -                                                                             -
 -------------------------------------------------------------------------------

 ROUTINE             CALLS      AVE VOLUME [Bytes]
 MP_Group              156
 MP_Bcast             5750                    390.
 MP_Allreduce        87199                    271.
 MP_Sync              3031
 MP_comm_split        2875
 -------------------------------------------------------------------------------


 -------------------------------------------------------------------------------
 -                                                                             -
 -                           R E F E R E N C E S                               -
 -                                                                             -
 -------------------------------------------------------------------------------
 
 CP2K version 2026.1 (Development Version), the CP2K developers group (2026).
 CP2K is freely available from https://www.cp2k.org/ .
 
 M. Iannuzzi, J. Wilhelm, F. Stein, A. Bussy, H. Elgabarty, D. Golze, A. Hehn, 
 M. Graml, S. Marek, B. Sertcan Gökmen, C. Schran, H. Forbert, R. Z. 
 Khaliullin, A. Kozhevnikov, M. Taillefumier, R. Meli, V. V. Rybkin, M. Brehm, 
 R. Schade, O. Schütt, J. V. Pototschnig, H. Mirhosseini, A. Knüpfer, D. Marx, 
 M. Krack, J. Hutter, T. D. Kühne.
 J. Phys. Chem. B 130, 1237-1310 (2026).
 The CP2K Program Package Made Simple.
 https://doi.org/10.1021/acs.jpcb.5c05851

 A. Katbashev, M. Stahn, T. Rose, V. Alizadeh, M. Friede, C. Plett, P. 
 Steinbach, S. Ehlert.
 J. Phys. Chem. A 129, 2667-2682 (2025).
 Overview on Building Blocks and Applications of Efficient and Robust Extended 
 Tight Binding.
 https://doi.org/10.1021/acs.jpca.4c08263

 T. D. Kühne, M. Iannuzzi, M. Del Ben, V. V. Rybkin, P. Seewald, F. Stein, T. 
 Laino, R. Z. Khaliullin, O. Schütt, F. Schiffmann, D. Golze, J. Wilhelm, S. 
 Chulkov, M. H. Bani-Hashemian, V. Weber, U. Borstnik, M. Taillefumier, A. S. 
 Jakobovits, A. Lazzaro, H. Pabst, T. Müller, R. Schade, M. Guidon, S. 
 Andermatt, N. Holmberg, G. K. Schenter, A. Hehn, A. Bussy, F. Belleflamme, G. 
 Tabacchi, A. Glöß, M. Lass, I. Bethune, C. J. Mundy, C. Plessl, M. Watkins, 
 J. VandeVondele, M. Krack, J. Hutter.
 J. Chem. Phys. 152, 194103 (2020).
 CP2K: An electronic structure and molecular dynamics software package - 
 Quickstep: Efficient and accurate electronic structure calculations.
 https://doi.org/10.1063/5.0007045

 P. Pracht, E. Caldeweyher, S. Ehlert, S. Grimme.
 ChemRxiv, (2019).
 A Robust Non-Self-Consistent Tight-Binding Quantum Chemistry Method for large 
 Molecules.
 https://doi.org/10.26434/chemrxiv.8326202.v1

 S. Grimme, C. Bannwarth, P. Shushkov.
 J. Chem. Theory Comput. 13, 1989 (2017).
 A Robust and Accurate Tight-Binding Quantum Chemical Method for Structures, 
 Vibrational Frequencies, and Noncovalent Interactions of Large Molecular 
 Systems Parametrized for All spd-Block Elements (Z = 1-86).
 https://doi.org/10.1021/acs.jctc.7b00118

 O. Schuett, P. Messmer, J. Hutter, J. VandeVondele.
 Electronic Structure Calculations on Graphics Processing Units, 173-190 (2016).
 GPU-Accelerated Sparse Matrix-Matrix Multiplication for Linear Scaling Density 
 Functional Theory.
 https://doi.org/10.1002/9781118670712.ch8

 A. Heinecke, G. Henry, M. Hutchinson, H. Pabst.
 Proceedings of Intl. Supercomputing Conference, 981-991 (2016).
 LIBXSMM: Accelerating Small Matrix Multiplications by Runtime Code Generation.
 https://doi.org/10.1109/SC.2016.83

 U. Borstnik, J. VandeVondele, V. Weber, J. Hutter.
 Parallel Comput. 40, 47-58 (2014).
 Sparse matrix multiplication: The distributed block-compressed sparse row 
 library.
 https://doi.org/10.1016/j.parco.2014.03.012

 T. D. Kühne, M. Krack, F. R. Mohamed, M. Parrinello.
 Phys. Rev. Lett. 98, 066401 (2007).
 Efficient and accurate Car-Parrinello-like approach to Born-Oppenheimer 
 molecular dynamics.
 https://doi.org/10.1103/PhysRevLett.98.066401

 M. Frigo, S. G. Johnson.
 Proc. IEEE 93, 216-231 (2005).
 The design and implementation of FFTW3.
 https://doi.org/10.1109/JPROC.2004.840301

 J. Kolafa.
 J. Comput. Chem. 25, 335-342 (2004).
 Time-reversible always stable predictor-corrector method for molecular dynamics 
 of polarizable molecules.
 https://doi.org/10.1002/jcc.10385

 N. D. Mermin.
 Phys. Rev. 137, A1441-A1443 (1965).
 Thermal Properties of the Inhomogeneous Electron Gas.
 https://doi.org/10.1103/PhysRev.137.A1441


 -------------------------------------------------------------------------------
 -                                                                             -
 -                                T I M I N G                                  -
 -                                                                             -
 -------------------------------------------------------------------------------
 SUBROUTINE                       CALLS  ASD         SELF TIME        TOTAL TIME
                                MAXIMUM       AVERAGE  MAXIMUM  AVERAGE  MAXIMUM
 CP2K                                 1  1.0    0.002    0.002  253.809  253.809
 cp_cell_opt                          1  2.0    0.000    0.000  253.803  253.803
 geoopt_bfgs                          1  3.0    0.017    0.017  253.803  253.803
 cp_eval_at                         157  4.0    0.016    0.016  253.473  253.473
 qs_forces                          156  5.0    0.009    0.009  253.135  253.135
 build_tblite_matrices              313  7.0  212.519  212.519  217.034  217.034
 qs_energies                        157  6.0    0.004    0.004   77.354   77.354
 qs_energies_init_hamiltonians      157  7.0    0.001    0.001   62.013   62.013
 rebuild_ks_matrix                 2720  9.8    0.002    0.002   24.908   24.908
 build_tblite_ks_matrix            2720 10.8   24.849   24.849   24.905   24.905
 qs_ks_update_qs_env_forces         156  6.0    0.000    0.000   20.822   20.822
 scf_env_do_scf                     157  7.0    0.002    0.002   14.015   14.015
 scf_env_do_scf_inner_loop         2564  8.0    2.064    2.064   14.003   14.003
 qs_scf_new_mos                    2564  9.0    0.011    0.011    7.293    7.293
 -------------------------------------------------------------------------------

 The number of warnings for this run is : 0
 
 -------------------------------------------------------------------------------
  **** **** ******  **  PROGRAM ENDED AT                 2026-05-23 22:51:52.585
 ***** ** ***  *** **   PROGRAM RAN ON                                spark-c86c
 **    ****   ******    PROGRAM RAN BY                                  kuehne88
 ***** **    ** ** **   PROGRAM PROCESS ID                               2269721
  **** **  *******  **  PROGRAM STOPPED IN /home/kuehne88/periodic-gfn2-benchmar
                                           ks/X23b/runs/cellopt_gamma/GFN2/imida
                                           zole_GFN2_gamma_cellopt
