 DBCSR| CPU Multiplication driver                                           XSMM (U)
 DBCSR| Multrec recursion limit                                              512 (U)
 DBCSR| Multiplication stack size                                           1000 (D)
 DBCSR| Maximum elements for images                                    UNLIMITED (U)
 DBCSR| Multiplicative factor virtual images                                   1 (U)
 DBCSR| Use multiplication densification                                       T (D)
 DBCSR| Multiplication size stacks                                             3 (U)
 DBCSR| Use memory pool for CPU allocation                                     F (U)
 DBCSR| Number of 3D layers                                               SINGLE (U)
 DBCSR| Use MPI memory allocation                                              F (U)
 DBCSR| Use RMA algorithm                                                      F (U)
 DBCSR| Use Communication thread                                               T (U)
 DBCSR| Communication thread load                                             87 (D)
 DBCSR| MPI: My process id                                                     0
 DBCSR| MPI: Number of processes                                               1
 DBCSR| OMP: Current number of threads                                         1
 DBCSR| OMP: Max number of threads                                             1
 DBCSR| Split modifier for TAS multiplication algorithm                  1.0E+00 (U)


  **** **** ******  **  PROGRAM STARTED AT               2026-05-23 22:47:26.107
 ***** ** ***  *** **   PROGRAM STARTED ON                            spark-c86c
 **    ****   ******    PROGRAM STARTED BY                              kuehne88
 ***** **    ** ** **   PROGRAM PROCESS ID                               2269182
  **** **  *******  **  PROGRAM STARTED IN /home/kuehne88/periodic-gfn2-benchmar
                                           ks/X23b/runs/cellopt_gamma/GFN2/ethyl
                                           carbamate_GFN2_gamma_cellopt

 CP2K| version string:                 CP2K version 2026.1 (Development Version)
 CP2K| source code revision number:                                   0622d442e4
 CP2K| cp2kflags: omp fftw3 libxc parallel scalapack mpi_f08 xsmm spglib libdftd
 CP2K|            4 dftd4_v3 mctc-lib tblite
 CP2K| is freely available from                            https://www.cp2k.org/
 CP2K| Program compiled at                                   2026-05-23 22:05:08
 CP2K| Program compiled on                                            spark-c86c
 CP2K| Program compiled for                                              aarch64
 CP2K| Data directory path    /home/kuehne88/cp2k-master-tblite-20260523/install
 CP2K| Input file name                     ethylcarbamate_GFN2_gamma_cellopt.inp

 GLOBAL| Force Environment number                                              1
 GLOBAL| Basis set file name                                           BASIS_SET
 GLOBAL| Potential file name                                           POTENTIAL
 GLOBAL| MM Potential file name                                     MM_POTENTIAL
 GLOBAL| Coordinate file name                                      __STD_INPUT__
 GLOBAL| Method name                                                        CP2K
 GLOBAL| Project name                         ethylcarbamate_GFN2_gamma_cell_opt
 GLOBAL| Run type                                                       CELL_OPT
 GLOBAL| FFT library                                                       FFTW3
 GLOBAL| Diagonalization library                                       ScaLAPACK
 GLOBAL| Cholesky decomposition library                                ScaLAPACK
 GLOBAL| DGEMM library                                                      BLAS
 GLOBAL| Direct generalized diagonalization requested                          F
 GLOBAL| Orthonormality check for eigenvectors                          DISABLED
 GLOBAL| Matrix multiplication library                                 ScaLAPACK
 GLOBAL| All-to-all communication in single precision                          F
 GLOBAL| FFTs using library dependent lengths                                  F
 GLOBAL| Grid backend                                                       AUTO
 GLOBAL| Global print level                                                  LOW
 GLOBAL| MPI I/O enabled                                                       T
 GLOBAL| Total number of message passing processes                             1
 GLOBAL| Number of distributed systems (nodes)                                 1
 GLOBAL| Number of threads for this process                                    1
 GLOBAL| This output is from process                                           0
 GLOBAL| OpenMP stack size per thread (OMP_STACKSIZE)                    default
 GLOBAL| CPU model name                                                  UNKNOWN
 GLOBAL| CPUID                                                              2200
 GLOBAL| Compiled for CPUID                                                 2000

 *** HINT in environment.F:970 :: The compiler target flags (arm_arch64)   ***
 *** used to build this binary cannot exploit all extensions of this CPU   ***
 *** model (arm_sve256). Consider compiler target flags as part of FCFLAGS ***
 *** and CFLAGS (ARCH file).                                               ***


 MEMORY| system memory details [Kb]
 MEMORY|                        rank 0           min           max       average
 MEMORY| MemTotal            125508532     125508532     125508532     125508532
 MEMORY| MemFree             104356012     104356012     104356012     104356012
 MEMORY| Buffers                868024        868024        868024        868024
 MEMORY| Cached               14078532      14078532      14078532      14078532
 MEMORY| Slab                  1596732       1596732       1596732       1596732
 MEMORY| SReclaimable           918600        918600        918600        918600
 MEMORY| MemLikelyFree       120221168     120221168     120221168     120221168


 GENERATE|  Preliminary Number of Bonds generated:                             0
 GENERATE|  Achieved consistency in connectivity generation.


                  #####   #####        #     #   #     #       #          
                 #     # #     #      #    ##### #     #   # #####  ####  
                 #     # #           #       #   ###   #       #   #    # 
                 #     #  #####     #        #   #  #  #   #   #   ###### 
                 #   # #       #   #         #   #   # #   #   #   #      
                 #    #  #     #  #          #   #  #  # # #   #    #   # 
                  #### #  #####  #           #   ###   ##  #   #     ###  

                                   GFN2-xTB  
                                 Version 0.0                       
                            Johann V. Pototschnig                  



 TOTAL NUMBERS AND MAXIMUM NUMBERS

  Total number of            - Atomic kinds:                                   4
                             - Atoms:                                         26
                             - Shell sets:                                    38
                             - Shells:                                        38
                             - Primitive Cartesian functions:                138
                             - Cartesian basis functions:                     62
                             - Spherical basis functions:                     62

  Maximum angular momentum of the orbital basis functions:                     1


 SCF PARAMETERS         Density guess:                                     MOPAC
                        --------------------------------------------------------
                        max_scf:                                             300
                        max_scf_history:                                       0
                        max_diis:                                              4
                        --------------------------------------------------------
                        eps_scf:                                        1.00E-09
                        eps_scf_history:                                0.00E+00
                        eps_diis:                                       1.00E-01
                        eps_eigval:                                     1.00E-05
                        --------------------------------------------------------
                        level_shift [a.u.]:                             0.000000
                        added MOs                                        26    0
                        --------------------------------------------------------
                        Mixing method:                           DIRECT_P_MIXING
                        --------------------------------------------------------
                        Smear method:                                FERMI_DIRAC
                        Electronic temperature [K]:                        300.0
                        Electronic temperature [a.u.]:                  9.50E-04
                        Accuracy threshold:                             1.00E-06
                        --------------------------------------------------------
                        No outer SCF

 CELL_OPT| Pressure tolerance [bar]:                                       100.0
 CELL_OPT| Keep volume of cell:                                               NO
 CELL_OPT| Keep angles between the cell vectors:                              NO
 CELL_OPT| Keep cell symmetry:                                                NO
 CELL_OPT| Constraint:                                                      NONE

 BFGS| Use rational function optimization for step estimation:                NO
 BFGS| Use model Hessian for initial guess:                                   NO
 BFGS| Restart Hessian:                                                       NO
 BFGS| Trust radius:                                                       0.472

 *******************************************************************************
 ***                     STARTING   CELL   OPTIMIZATION                      ***
 ***                                   BFGS                                  ***
 *******************************************************************************

 CELL| Volume [angstrom^3]:                                           248.773079
 CELL| Vector a [angstrom]:       5.051     0.000     0.000   |a| =     5.051000
 CELL| Vector b [angstrom]:       1.619     6.822     0.000   |b| =     7.011000
 CELL| Vector c [angstrom]:      -1.899    -1.078     7.220   |c| =     7.543000
 CELL| Angle (b,c), alpha [degree]:                                   101.370000
 CELL| Angle (a,c), beta  [degree]:                                   104.580000
 CELL| Angle (a,b), gamma [degree]:                                    76.650000
 CELL| Numerically orthorhombic:                                              NO
 CELL| Periodicity                                                           XYZ

 Extrapolation method: initial_guess

 Number of electrons:                                                         72
 Number of occupied orbitals:                                                 36
 Number of molecular orbitals:                                                62

 Number of orbital functions:                                                 62
 Number of independent orbital functions:                                     62


 SCF WAVEFUNCTION OPTIMIZATION

  Step     Update method      Time    Convergence         Total energy    Change
  ------------------------------------------------------------------------------
     1 TBLite/Diag 0.40E+00    0.0     1.11864480       -41.6214127157 -4.16E+01
     2 TBLite/Diag 0.40E+00    0.0     0.32100224       -42.0159763372 -3.95E-01
     3 TBLite/Diag 0.40E+00    0.0     0.07410402       -42.0262008961 -1.02E-02
     4 TBLite/Diag 0.40E+00    0.0     0.04893039       -42.0306092012 -4.41E-03
     5 TBLite/Diag 0.40E+00    0.0     0.02032891       -42.0317051976 -1.10E-03
     6 TBLite/Diag 0.40E+00    0.0     0.00352627       -42.0317631687 -5.80E-05
     7 TBLite/Diag 0.40E+00    0.0     0.00125395       -42.0317668553 -3.69E-06
     8 TBLite/Diag 0.40E+00    0.0     0.00026105       -42.0317676115 -7.56E-07
     9 TBLite/Diag 0.40E+00    0.0     0.00018124       -42.0317676928 -8.13E-08
    10 TBLite/Diag 0.40E+00    0.0     0.00013057       -42.0317676877  5.04E-09
    11 TBLite/Diag 0.40E+00    0.0     0.00007483       -42.0317677089 -2.11E-08
    12 TBLite/Diag 0.40E+00    0.0     0.00001115       -42.0317677087  1.27E-10
    13 TBLite/Diag 0.40E+00    0.0     0.00000759       -42.0317677090 -2.21E-10
    14 TBLite/Diag 0.40E+00    0.0     0.00000115       -42.0317677090 -2.91E-12
    15 TBLite/Diag 0.40E+00    0.0     0.00000027       -42.0317677090 -1.42E-14
    16 TBLite/Diag 0.40E+00    0.0     0.00000014       -42.0317677090 -7.11E-14
    17 TBLite/Diag 0.40E+00    0.0     0.00000001       -42.0317677090  3.55E-14
    18 TBLite/Diag 0.40E+00    0.0     1.3388E-09       -42.0317677090 -1.42E-14
    19 TBLite/Diag 0.40E+00    0.0     1.1235E-09       -42.0317677090 -4.97E-14
    20 TBLite/Diag 0.40E+00    0.0     3.7362E-10       -42.0317677090  4.26E-14

  *** SCF run converged in    20 steps ***


  Core Hamiltonian energy:                                    -42.74787721014958
  Repulsive potential energy:                                   0.64328224873825
  Electrostatic energy:                                         0.11205063857969
  Self-consistent dispersion energy:                           -0.04772892428270
  Non-self consistent dispersion energy:                        0.00850553815709
  Correction for halogen bonding:                               0.00000000000000
  Electronic entropic energy:                                  -0.00000000000000
  Fermi energy:                                                -0.23573723568724

  Total energy:                                               -42.03176770895725
  Total energy (extrapolated to T->0):                        -42.03176770895725

 ENERGY| Total FORCE_EVAL ( QS ) energy [hartree]            -42.031767708957254

 OPT| **************************************************************************
 OPT| Step number                                                              0
 OPT| Optimization method                                                   BFGS
 OPT| Total energy [hartree]                                      -42.0317677090
 OPT| Internal pressure [bar]                                  105080.7878166305
 OPT| Used time [s]                                                        1.093
 OPT| **************************************************************************
 OPT| Estimated peak process memory [MiB]                                    163

 --------------------------
 OPTIMIZATION STEP:      1
 --------------------------

 CELL| Volume [angstrom^3]:                                           252.500480
 CELL| Vector a [angstrom]:       5.102     0.000     0.000   |a| =     5.102334
 CELL| Vector b [angstrom]:       1.614     6.846     0.000   |b| =     7.033725
 CELL| Vector c [angstrom]:      -1.913    -1.074     7.229   |c| =     7.554299
 CELL| Angle (b,c), alpha [degree]:                                   101.334691
 CELL| Angle (a,c), beta  [degree]:                                   104.668186
 CELL| Angle (a,b), gamma [degree]:                                    76.730951
 CELL| Numerically orthorhombic:                                              NO
 CELL| Periodicity                                                           XYZ

 Extrapolation method: ASPC

 Number of electrons:                                                         72
 Number of occupied orbitals:                                                 36
 Number of molecular orbitals:                                                62

 Number of orbital functions:                                                 62
 Number of independent orbital functions:                                     62


 SCF WAVEFUNCTION OPTIMIZATION

  Step     Update method      Time    Convergence         Total energy    Change
  ------------------------------------------------------------------------------
     1 TBLite/Diag 0.40E+00    0.0     0.17623331       -42.1301054838 -4.21E+01
     2 TBLite/Diag 0.40E+00    0.0     0.01617582       -42.1314748524 -1.37E-03
     3 TBLite/Diag 0.40E+00    0.0     0.00209445       -42.1315104543 -3.56E-05
     4 TBLite/Diag 0.40E+00    0.0     0.00150586       -42.1315157205 -5.27E-06
     5 TBLite/Diag 0.40E+00    0.0     0.00055749       -42.1315162608 -5.40E-07
     6 TBLite/Diag 0.40E+00    0.0     0.00028774       -42.1315165014 -2.41E-07
     7 TBLite/Diag 0.40E+00    0.0     0.00005606       -42.1315165247 -2.32E-08
     8 TBLite/Diag 0.40E+00    0.0     0.00003450       -42.1315165291 -4.42E-09
     9 TBLite/Diag 0.40E+00    0.0     0.00000835       -42.1315165297 -5.97E-10
    10 TBLite/Diag 0.40E+00    0.0     0.00000412       -42.1315165298 -6.39E-11
    11 TBLite/Diag 0.40E+00    0.0     0.00000111       -42.1315165298 -4.08E-12
    12 TBLite/Diag 0.40E+00    0.0     0.00000017       -42.1315165298 -6.39E-14
    13 TBLite/Diag 0.40E+00    0.0     0.00000002       -42.1315165298  0.00E+00
    14 TBLite/Diag 0.40E+00    0.0     0.00000001       -42.1315165298  0.00E+00
    15 TBLite/Diag 0.40E+00    0.0     3.2515E-09       -42.1315165298 -3.55E-14
    16 TBLite/Diag 0.40E+00    0.0     8.0172E-10       -42.1315165298  0.00E+00

  *** SCF run converged in    16 steps ***


  Core Hamiltonian energy:                                    -42.65188434927590
  Repulsive potential energy:                                   0.44080003636006
  Electrostatic energy:                                         0.11854621515961
  Self-consistent dispersion energy:                           -0.04721594812111
  Non-self consistent dispersion energy:                        0.00823751609907
  Correction for halogen bonding:                               0.00000000000000
  Electronic entropic energy:                                  -0.00000000000000
  Fermi energy:                                                -0.23562590345223

  Total energy:                                               -42.13151652977828
  Total energy (extrapolated to T->0):                        -42.13151652977828

 ENERGY| Total FORCE_EVAL ( QS ) energy [hartree]            -42.131516529778281

 OPT| **************************************************************************
 OPT| Step number                                                              1
 OPT| Optimization method                                                   BFGS
 OPT| Total energy [hartree]                                      -42.1315165298
 OPT| Internal pressure [bar]                                   16237.4256253730
 OPT| Effective energy change [hartree]                            -0.0997488208
 OPT| Predicted energy change [hartree]                            -0.1321892397
 OPT| Scaling factor                                                0.0000000000
 OPT| Step size                                                     0.1825664414
 OPT| Trust radius                                                  0.4724315332
 OPT| Decrease in energy                                                     YES
 OPT| Used time [s]                                                        1.187
 OPT|
 OPT| Maximum step size                                             0.1825664414
 OPT| Convergence limit for maximum step size                       0.0030000000
 OPT| Maximum step size is converged                                          NO
 OPT|
 OPT| RMS step size                                                 0.0561013623
 OPT| Convergence limit for RMS step size                           0.0015000000
 OPT| RMS step size is converged                                              NO
 OPT|
 OPT| Maximum gradient                                              0.0544225199
 OPT| Convergence limit for maximum gradient                        0.0004500000
 OPT| Maximum gradient is converged                                           NO
 OPT|
 OPT| RMS gradient                                                  0.0167451725
 OPT| Convergence limit for RMS gradient                            0.0003000000
 OPT| RMS gradient is converged                                               NO
 OPT|
 OPT| Pressure deviation [bar]                                  16237.4256253730
 OPT| Pressure tolerance [bar]                                    100.0000000000
 OPT| Pressure is converged                                                   NO
 OPT| **************************************************************************
 OPT| Estimated peak process memory after this step [MiB]                    163

 --------------------------
 OPTIMIZATION STEP:      2
 --------------------------

 CELL| Volume [angstrom^3]:                                           253.103889
 CELL| Vector a [angstrom]:       5.104     0.000     0.000   |a| =     5.104297
 CELL| Vector b [angstrom]:       1.612     6.858     0.000   |b| =     7.044859
 CELL| Vector c [angstrom]:      -1.920    -1.070     7.230   |c| =     7.557250
 CELL| Angle (b,c), alpha [degree]:                                   101.300005
 CELL| Angle (a,c), beta  [degree]:                                   104.721690
 CELL| Angle (a,b), gamma [degree]:                                    76.774509
 CELL| Numerically orthorhombic:                                              NO
 CELL| Periodicity                                                           XYZ

 Extrapolation method: ASPC

 Number of electrons:                                                         72
 Number of occupied orbitals:                                                 36
 Number of molecular orbitals:                                                62

 Number of orbital functions:                                                 62
 Number of independent orbital functions:                                     62


 SCF WAVEFUNCTION OPTIMIZATION

  Step     Update method      Time    Convergence         Total energy    Change
  ------------------------------------------------------------------------------
     1 TBLite/Diag 0.40E+00    0.0     0.04626063       -42.1470617431 -4.21E+01
     2 TBLite/Diag 0.40E+00    0.0     0.01603872       -42.1476219615 -5.60E-04
     3 TBLite/Diag 0.40E+00    0.0     0.00142600       -42.1476317789 -9.82E-06
     4 TBLite/Diag 0.40E+00    0.0     0.00112993       -42.1476333846 -1.61E-06
     5 TBLite/Diag 0.40E+00    0.0     0.00052511       -42.1476339442 -5.60E-07
     6 TBLite/Diag 0.40E+00    0.0     0.00014448       -42.1476340252 -8.10E-08
     7 TBLite/Diag 0.40E+00    0.0     0.00001477       -42.1476340266 -1.43E-09
     8 TBLite/Diag 0.40E+00    0.0     0.00000850       -42.1476340270 -3.86E-10
     9 TBLite/Diag 0.40E+00    0.0     0.00000178       -42.1476340270 -2.93E-11
    10 TBLite/Diag 0.40E+00    0.0     0.00000106       -42.1476340270 -4.03E-12
    11 TBLite/Diag 0.40E+00    0.0     0.00000030       -42.1476340270 -3.13E-13
    12 TBLite/Diag 0.40E+00    0.0     0.00000011       -42.1476340270 -7.82E-14
    13 TBLite/Diag 0.40E+00    0.0     0.00000002       -42.1476340270  3.55E-14
    14 TBLite/Diag 0.40E+00    0.0     0.00000001       -42.1476340270  0.00E+00
    15 TBLite/Diag 0.40E+00    0.0     7.9133E-10       -42.1476340270  2.13E-14

  *** SCF run converged in    15 steps ***


  Core Hamiltonian energy:                                    -42.65764120144993
  Repulsive potential energy:                                   0.43613915622169
  Electrostatic energy:                                         0.11283843066257
  Self-consistent dispersion energy:                           -0.04716812956267
  Non-self consistent dispersion energy:                        0.00819771710908
  Correction for halogen bonding:                               0.00000000000000
  Electronic entropic energy:                                  -0.00000000000000
  Fermi energy:                                                -0.23694655284399

  Total energy:                                               -42.14763402701927
  Total energy (extrapolated to T->0):                        -42.14763402701927

 ENERGY| Total FORCE_EVAL ( QS ) energy [hartree]            -42.147634027019265

 OPT| **************************************************************************
 OPT| Step number                                                              2
 OPT| Optimization method                                                   BFGS
 OPT| Total energy [hartree]                                      -42.1476340270
 OPT| Internal pressure [bar]                                   12272.6884077254
 OPT| Effective energy change [hartree]                            -0.0161174972
 OPT| Predicted energy change [hartree]                            -0.0102760594
 OPT| Scaling factor                                                0.0000000000
 OPT| Step size                                                     0.0416888682
 OPT| Trust radius                                                  0.4724315332
 OPT| Decrease in energy                                                     YES
 OPT| Used time [s]                                                        1.173
 OPT|
 OPT| Maximum step size                                             0.0416888682
 OPT| Convergence limit for maximum step size                       0.0030000000
 OPT| Maximum step size is converged                                          NO
 OPT|
 OPT| RMS step size                                                 0.0151384045
 OPT| Convergence limit for RMS step size                           0.0015000000
 OPT| RMS step size is converged                                              NO
 OPT|
 OPT| Maximum gradient                                              0.0388627993
 OPT| Convergence limit for maximum gradient                        0.0004500000
 OPT| Maximum gradient is converged                                           NO
 OPT|
 OPT| RMS gradient                                                  0.0110768627
 OPT| Convergence limit for RMS gradient                            0.0003000000
 OPT| RMS gradient is converged                                               NO
 OPT|
 OPT| Pressure deviation [bar]                                  12272.6884077254
 OPT| Pressure tolerance [bar]                                    100.0000000000
 OPT| Pressure is converged                                                   NO
 OPT| **************************************************************************
 OPT| Estimated peak process memory after this step [MiB]                    164

 --------------------------
 OPTIMIZATION STEP:      3
 --------------------------

 CELL| Volume [angstrom^3]:                                           254.674350
 CELL| Vector a [angstrom]:       5.115     0.000     0.000   |a| =     5.115108
 CELL| Vector b [angstrom]:       1.608     6.884     0.000   |b| =     7.069718
 CELL| Vector c [angstrom]:      -1.938    -1.058     7.232   |c| =     7.561636
 CELL| Angle (b,c), alpha [degree]:                                   101.216748
 CELL| Angle (a,c), beta  [degree]:                                   104.851099
 CELL| Angle (a,b), gamma [degree]:                                    76.852506
 CELL| Numerically orthorhombic:                                              NO
 CELL| Periodicity                                                           XYZ

 Extrapolation method: ASPC

 Number of electrons:                                                         72
 Number of occupied orbitals:                                                 36
 Number of molecular orbitals:                                                62

 Number of orbital functions:                                                 62
 Number of independent orbital functions:                                     62


 SCF WAVEFUNCTION OPTIMIZATION

  Step     Update method      Time    Convergence         Total energy    Change
  ------------------------------------------------------------------------------
     1 TBLite/Diag 0.40E+00    0.0     0.10299030       -42.1654797283 -4.22E+01
     2 TBLite/Diag 0.40E+00    0.0     0.00469782       -42.1655875295 -1.08E-04
     3 TBLite/Diag 0.40E+00    0.0     0.00162656       -42.1655936027 -6.07E-06
     4 TBLite/Diag 0.40E+00    0.0     0.00086243       -42.1655960798 -2.48E-06
     5 TBLite/Diag 0.40E+00    0.0     0.00034136       -42.1655964812 -4.01E-07
     6 TBLite/Diag 0.40E+00    0.0     0.00007213       -42.1655965010 -1.99E-08
     7 TBLite/Diag 0.40E+00    0.0     0.00002196       -42.1655965028 -1.75E-09
     8 TBLite/Diag 0.40E+00    0.0     0.00000875       -42.1655965032 -4.44E-10
     9 TBLite/Diag 0.40E+00    0.0     0.00000225       -42.1655965033 -4.03E-11
    10 TBLite/Diag 0.40E+00    0.0     0.00000147       -42.1655965033 -7.66E-12
    11 TBLite/Diag 0.40E+00    0.0     0.00000021       -42.1655965033 -1.21E-13
    12 TBLite/Diag 0.40E+00    0.0     0.00000005       -42.1655965033 -2.84E-14
    13 TBLite/Diag 0.40E+00    0.0     0.00000002       -42.1655965033 -1.42E-14
    14 TBLite/Diag 0.40E+00    0.0     8.3646E-09       -42.1655965033 -1.42E-14
    15 TBLite/Diag 0.40E+00    0.0     1.7637E-09       -42.1655965033  2.13E-14
    16 TBLite/Diag 0.40E+00    0.0     2.0511E-10       -42.1655965033 -2.84E-14

  *** SCF run converged in    16 steps ***


  Core Hamiltonian energy:                                    -42.65782924594147
  Repulsive potential energy:                                   0.42144462853171
  Electrostatic energy:                                         0.10965326012537
  Self-consistent dispersion energy:                           -0.04696347249777
  Non-self consistent dispersion energy:                        0.00809832651067
  Correction for halogen bonding:                               0.00000000000000
  Electronic entropic energy:                                  -0.00000000000000
  Fermi energy:                                                -0.24089724304577

  Total energy:                                               -42.16559650327147
  Total energy (extrapolated to T->0):                        -42.16559650327147

 ENERGY| Total FORCE_EVAL ( QS ) energy [hartree]            -42.165596503271473

 OPT| **************************************************************************
 OPT| Step number                                                              3
 OPT| Optimization method                                                   BFGS
 OPT| Total energy [hartree]                                      -42.1655965033
 OPT| Internal pressure [bar]                                   -2496.6181217062
 OPT| Effective energy change [hartree]                            -0.0179624763
 OPT| Predicted energy change [hartree]                            -0.0151979403
 OPT| Scaling factor                                                0.0000000000
 OPT| Step size                                                     0.1055847862
 OPT| Trust radius                                                  0.4724315332
 OPT| Decrease in energy                                                     YES
 OPT| Used time [s]                                                        1.173
 OPT|
 OPT| Maximum step size                                             0.1055847862
 OPT| Convergence limit for maximum step size                       0.0030000000
 OPT| Maximum step size is converged                                          NO
 OPT|
 OPT| RMS step size                                                 0.0340713240
 OPT| Convergence limit for RMS step size                           0.0015000000
 OPT| RMS step size is converged                                              NO
 OPT|
 OPT| Maximum gradient                                              0.0175034006
 OPT| Convergence limit for maximum gradient                        0.0004500000
 OPT| Maximum gradient is converged                                           NO
 OPT|
 OPT| RMS gradient                                                  0.0089213504
 OPT| Convergence limit for RMS gradient                            0.0003000000
 OPT| RMS gradient is converged                                               NO
 OPT|
 OPT| Pressure deviation [bar]                                  -2496.6181217062
 OPT| Pressure tolerance [bar]                                    100.0000000000
 OPT| Pressure is converged                                                   NO
 OPT| **************************************************************************
 OPT| Estimated peak process memory after this step [MiB]                    164

 --------------------------
 OPTIMIZATION STEP:      4
 --------------------------

 CELL| Volume [angstrom^3]:                                           255.223585
 CELL| Vector a [angstrom]:       5.121     0.000     0.000   |a| =     5.121093
 CELL| Vector b [angstrom]:       1.604     6.894     0.000   |b| =     7.078099
 CELL| Vector c [angstrom]:      -1.949    -1.051     7.229   |c| =     7.560697
 CELL| Angle (b,c), alpha [degree]:                                   101.177898
 CELL| Angle (a,c), beta  [degree]:                                   104.938708
 CELL| Angle (a,b), gamma [degree]:                                    76.905215
 CELL| Numerically orthorhombic:                                              NO
 CELL| Periodicity                                                           XYZ

 Extrapolation method: ASPC

 Number of electrons:                                                         72
 Number of occupied orbitals:                                                 36
 Number of molecular orbitals:                                                62

 Number of orbital functions:                                                 62
 Number of independent orbital functions:                                     62


 SCF WAVEFUNCTION OPTIMIZATION

  Step     Update method      Time    Convergence         Total energy    Change
  ------------------------------------------------------------------------------
     1 TBLite/Diag 0.40E+00    0.0     0.02323831       -42.1723873262 -4.22E+01
     2 TBLite/Diag 0.40E+00    0.0     0.00466457       -42.1724540020 -6.67E-05
     3 TBLite/Diag 0.40E+00    0.0     0.00094773       -42.1724558081 -1.81E-06
     4 TBLite/Diag 0.40E+00    0.0     0.00063544       -42.1724568771 -1.07E-06
     5 TBLite/Diag 0.40E+00    0.0     0.00023908       -42.1724570884 -2.11E-07
     6 TBLite/Diag 0.40E+00    0.0     0.00005354       -42.1724570957 -7.35E-09
     7 TBLite/Diag 0.40E+00    0.0     0.00001784       -42.1724570974 -1.69E-09
     8 TBLite/Diag 0.40E+00    0.0     0.00000549       -42.1724570976 -1.49E-10
     9 TBLite/Diag 0.40E+00    0.0     0.00000355       -42.1724570976 -4.40E-11
    10 TBLite/Diag 0.40E+00    0.0     0.00000088       -42.1724570976 -2.54E-12
    11 TBLite/Diag 0.40E+00    0.0     0.00000009       -42.1724570976 -5.68E-14
    12 TBLite/Diag 0.40E+00    0.0     0.00000004       -42.1724570976 -2.13E-14
    13 TBLite/Diag 0.40E+00    0.0     0.00000001       -42.1724570976  2.13E-14
    14 TBLite/Diag 0.40E+00    0.0     4.4878E-09       -42.1724570976 -2.13E-14
    15 TBLite/Diag 0.40E+00    0.0     8.5275E-10       -42.1724570976 -7.11E-15

  *** SCF run converged in    15 steps ***


  Core Hamiltonian energy:                                    -42.66205275449192
  Repulsive potential energy:                                   0.41922537454899
  Electrostatic energy:                                         0.10915570976677
  Self-consistent dispersion energy:                           -0.04685218840279
  Non-self consistent dispersion energy:                        0.00806676096012
  Correction for halogen bonding:                               0.00000000000000
  Electronic entropic energy:                                  -0.00000000000000
  Fermi energy:                                                -0.24062083661677

  Total energy:                                               -42.17245709761884
  Total energy (extrapolated to T->0):                        -42.17245709761884

 ENERGY| Total FORCE_EVAL ( QS ) energy [hartree]            -42.172457097618839

 OPT| **************************************************************************
 OPT| Step number                                                              4
 OPT| Optimization method                                                   BFGS
 OPT| Total energy [hartree]                                      -42.1724570976
 OPT| Internal pressure [bar]                                   -6931.0729761831
 OPT| Effective energy change [hartree]                            -0.0068605943
 OPT| Predicted energy change [hartree]                            -0.0041782482
 OPT| Scaling factor                                                0.0000000000
 OPT| Step size                                                     0.0464891241
 OPT| Trust radius                                                  0.4724315332
 OPT| Decrease in energy                                                     YES
 OPT| Used time [s]                                                        1.162
 OPT|
 OPT| Maximum step size                                             0.0464891241
 OPT| Convergence limit for maximum step size                       0.0030000000
 OPT| Maximum step size is converged                                          NO
 OPT|
 OPT| RMS step size                                                 0.0169517955
 OPT| Convergence limit for RMS step size                           0.0015000000
 OPT| RMS step size is converged                                              NO
 OPT|
 OPT| Maximum gradient                                              0.0146621064
 OPT| Convergence limit for maximum gradient                        0.0004500000
 OPT| Maximum gradient is converged                                           NO
 OPT|
 OPT| RMS gradient                                                  0.0075972727
 OPT| Convergence limit for RMS gradient                            0.0003000000
 OPT| RMS gradient is converged                                               NO
 OPT|
 OPT| Pressure deviation [bar]                                  -6931.0729761831
 OPT| Pressure tolerance [bar]                                    100.0000000000
 OPT| Pressure is converged                                                   NO
 OPT| **************************************************************************
 OPT| Estimated peak process memory after this step [MiB]                    164

 --------------------------
 OPTIMIZATION STEP:      5
 --------------------------

 CELL| Volume [angstrom^3]:                                           255.729899
 CELL| Vector a [angstrom]:       5.131     0.000     0.000   |a| =     5.130543
 CELL| Vector b [angstrom]:       1.596     6.903     0.000   |b| =     7.085475
 CELL| Vector c [angstrom]:      -1.969    -1.041     7.220   |c| =     7.556167
 CELL| Angle (b,c), alpha [degree]:                                   101.126698
 CELL| Angle (a,c), beta  [degree]:                                   105.104687
 CELL| Angle (a,b), gamma [degree]:                                    76.979216
 CELL| Numerically orthorhombic:                                              NO
 CELL| Periodicity                                                           XYZ

 Extrapolation method: ASPC

 Number of electrons:                                                         72
 Number of occupied orbitals:                                                 36
 Number of molecular orbitals:                                                62

 Number of orbital functions:                                                 62
 Number of independent orbital functions:                                     62


 SCF WAVEFUNCTION OPTIMIZATION

  Step     Update method      Time    Convergence         Total energy    Change
  ------------------------------------------------------------------------------
     1 TBLite/Diag 0.40E+00    0.0     0.04928405       -42.1801154265 -4.22E+01
     2 TBLite/Diag 0.40E+00    0.0     0.00769186       -42.1803196721 -2.04E-04
     3 TBLite/Diag 0.40E+00    0.0     0.00314846       -42.1803212232 -1.55E-06
     4 TBLite/Diag 0.40E+00    0.0     0.00223929       -42.1803334780 -1.23E-05
     5 TBLite/Diag 0.40E+00    0.0     0.00049719       -42.1803342695 -7.92E-07
     6 TBLite/Diag 0.40E+00    0.0     0.00009121       -42.1803343077 -3.82E-08
     7 TBLite/Diag 0.40E+00    0.0     0.00005008       -42.1803343163 -8.63E-09
     8 TBLite/Diag 0.40E+00    0.0     0.00001038       -42.1803343172 -8.55E-10
     9 TBLite/Diag 0.40E+00    0.0     0.00000853       -42.1803343174 -2.45E-10
    10 TBLite/Diag 0.40E+00    0.0     0.00000147       -42.1803343174 -1.13E-11
    11 TBLite/Diag 0.40E+00    0.0     0.00000027       -42.1803343174 -5.54E-13
    12 TBLite/Diag 0.40E+00    0.0     0.00000014       -42.1803343174 -9.95E-14
    13 TBLite/Diag 0.40E+00    0.0     0.00000003       -42.1803343174 -2.13E-14
    14 TBLite/Diag 0.40E+00    0.0     0.00000001       -42.1803343174  5.68E-14
    15 TBLite/Diag 0.40E+00    0.0     1.8529E-09       -42.1803343174 -2.84E-14
    16 TBLite/Diag 0.40E+00    0.0     1.2140E-10       -42.1803343174 -7.11E-15

  *** SCF run converged in    16 steps ***


  Core Hamiltonian energy:                                    -42.66933180833801
  Repulsive potential energy:                                   0.41646756141658
  Electrostatic energy:                                         0.11118109674548
  Self-consistent dispersion energy:                           -0.04668734914393
  Non-self consistent dispersion energy:                        0.00803618188203
  Correction for halogen bonding:                               0.00000000000000
  Electronic entropic energy:                                  -0.00000000000000
  Fermi energy:                                                -0.24156697569521

  Total energy:                                               -42.18033431743785
  Total energy (extrapolated to T->0):                        -42.18033431743785

 ENERGY| Total FORCE_EVAL ( QS ) energy [hartree]            -42.180334317437847

 OPT| **************************************************************************
 OPT| Step number                                                              5
 OPT| Optimization method                                                   BFGS
 OPT| Total energy [hartree]                                      -42.1803343174
 OPT| Internal pressure [bar]                                  -14044.4861883894
 OPT| Effective energy change [hartree]                            -0.0078772198
 OPT| Predicted energy change [hartree]                            -0.0068289262
 OPT| Scaling factor                                                0.0000000000
 OPT| Step size                                                     0.0893525013
 OPT| Trust radius                                                  0.4724315332
 OPT| Decrease in energy                                                     YES
 OPT| Used time [s]                                                        1.170
 OPT|
 OPT| Maximum step size                                             0.0893525013
 OPT| Convergence limit for maximum step size                       0.0030000000
 OPT| Maximum step size is converged                                          NO
 OPT|
 OPT| RMS step size                                                 0.0322908634
 OPT| Convergence limit for RMS step size                           0.0015000000
 OPT| RMS step size is converged                                              NO
 OPT|
 OPT| Maximum gradient                                              0.0125539336
 OPT| Convergence limit for maximum gradient                        0.0004500000
 OPT| Maximum gradient is converged                                           NO
 OPT|
 OPT| RMS gradient                                                  0.0038983230
 OPT| Convergence limit for RMS gradient                            0.0003000000
 OPT| RMS gradient is converged                                               NO
 OPT|
 OPT| Pressure deviation [bar]                                 -14044.4861883894
 OPT| Pressure tolerance [bar]                                    100.0000000000
 OPT| Pressure is converged                                                   NO
 OPT| **************************************************************************
 OPT| Estimated peak process memory after this step [MiB]                    164

 --------------------------
 OPTIMIZATION STEP:      6
 --------------------------

 CELL| Volume [angstrom^3]:                                           255.251210
 CELL| Vector a [angstrom]:       5.128     0.000     0.000   |a| =     5.127777
 CELL| Vector b [angstrom]:       1.597     6.897     0.000   |b| =     7.079509
 CELL| Vector c [angstrom]:      -1.972    -1.042     7.217   |c| =     7.554018
 CELL| Angle (b,c), alpha [degree]:                                   101.143033
 CELL| Angle (a,c), beta  [degree]:                                   105.129464
 CELL| Angle (a,b), gamma [degree]:                                    76.961895
 CELL| Numerically orthorhombic:                                              NO
 CELL| Periodicity                                                           XYZ

 Extrapolation method: ASPC

 Number of electrons:                                                         72
 Number of occupied orbitals:                                                 36
 Number of molecular orbitals:                                                62

 Number of orbital functions:                                                 62
 Number of independent orbital functions:                                     62


 SCF WAVEFUNCTION OPTIMIZATION

  Step     Update method      Time    Convergence         Total energy    Change
  ------------------------------------------------------------------------------
     1 TBLite/Diag 0.40E+00    0.0     0.01661646       -42.1817523202 -4.22E+01
     2 TBLite/Diag 0.40E+00    0.0     0.00137369       -42.1817613930 -9.07E-06
     3 TBLite/Diag 0.40E+00    0.0     0.00032906       -42.1817617912 -3.98E-07
     4 TBLite/Diag 0.40E+00    0.0     0.00013822       -42.1817618697 -7.85E-08
     5 TBLite/Diag 0.40E+00    0.0     0.00003092       -42.1817618726 -2.88E-09
     6 TBLite/Diag 0.40E+00    0.0     0.00002300       -42.1817618736 -9.80E-10
     7 TBLite/Diag 0.40E+00    0.0     0.00000641       -42.1817618737 -1.57E-10
     8 TBLite/Diag 0.40E+00    0.0     0.00000151       -42.1817618737 -1.11E-11
     9 TBLite/Diag 0.40E+00    0.0     0.00000045       -42.1817618737 -1.19E-12
    10 TBLite/Diag 0.40E+00    0.0     0.00000017       -42.1817618737 -1.21E-13
    11 TBLite/Diag 0.40E+00    0.0     0.00000002       -42.1817618737 -2.84E-14
    12 TBLite/Diag 0.40E+00    0.0     0.00000002       -42.1817618737  0.00E+00
    13 TBLite/Diag 0.40E+00    0.0     4.7563E-09       -42.1817618737  7.11E-15
    14 TBLite/Diag 0.40E+00    0.0     6.3609E-10       -42.1817618737 -4.26E-14

  *** SCF run converged in    14 steps ***


  Core Hamiltonian energy:                                    -42.67761132412254
  Repulsive potential energy:                                   0.42345026845321
  Electrostatic energy:                                         0.11109111058819
  Self-consistent dispersion energy:                           -0.04675865501421
  Non-self consistent dispersion energy:                        0.00806672635904
  Correction for halogen bonding:                               0.00000000000000
  Electronic entropic energy:                                  -0.00000000000000
  Fermi energy:                                                -0.24045691887037

  Total energy:                                               -42.18176187373631
  Total energy (extrapolated to T->0):                        -42.18176187373631

 ENERGY| Total FORCE_EVAL ( QS ) energy [hartree]            -42.181761873736306

 OPT| **************************************************************************
 OPT| Step number                                                              6
 OPT| Optimization method                                                   BFGS
 OPT| Total energy [hartree]                                      -42.1817618737
 OPT| Internal pressure [bar]                                   -9227.4709457915
 OPT| Effective energy change [hartree]                            -0.0014275563
 OPT| Predicted energy change [hartree]                            -0.0008885805
 OPT| Scaling factor                                                0.0000000000
 OPT| Step size                                                     0.0177455095
 OPT| Trust radius                                                  0.4724315332
 OPT| Decrease in energy                                                     YES
 OPT| Used time [s]                                                        1.168
 OPT|
 OPT| Maximum step size                                             0.0177455095
 OPT| Convergence limit for maximum step size                       0.0030000000
 OPT| Maximum step size is converged                                          NO
 OPT|
 OPT| RMS step size                                                 0.0073549075
 OPT| Convergence limit for RMS step size                           0.0015000000
 OPT| RMS step size is converged                                              NO
 OPT|
 OPT| Maximum gradient                                              0.0105646715
 OPT| Convergence limit for maximum gradient                        0.0004500000
 OPT| Maximum gradient is converged                                           NO
 OPT|
 OPT| RMS gradient                                                  0.0033475418
 OPT| Convergence limit for RMS gradient                            0.0003000000
 OPT| RMS gradient is converged                                               NO
 OPT|
 OPT| Pressure deviation [bar]                                  -9227.4709457915
 OPT| Pressure tolerance [bar]                                    100.0000000000
 OPT| Pressure is converged                                                   NO
 OPT| **************************************************************************
 OPT| Estimated peak process memory after this step [MiB]                    164

 --------------------------
 OPTIMIZATION STEP:      7
 --------------------------

 CELL| Volume [angstrom^3]:                                           254.102996
 CELL| Vector a [angstrom]:       5.122     0.000     0.000   |a| =     5.122357
 CELL| Vector b [angstrom]:       1.602     6.878     0.000   |b| =     7.062140
 CELL| Vector c [angstrom]:      -1.974    -1.046     7.212   |c| =     7.550356
 CELL| Angle (b,c), alpha [degree]:                                   101.201502
 CELL| Angle (a,c), beta  [degree]:                                   105.152825
 CELL| Angle (a,b), gamma [degree]:                                    76.887914
 CELL| Numerically orthorhombic:                                              NO
 CELL| Periodicity                                                           XYZ

 Extrapolation method: ASPC

 Number of electrons:                                                         72
 Number of occupied orbitals:                                                 36
 Number of molecular orbitals:                                                62

 Number of orbital functions:                                                 62
 Number of independent orbital functions:                                     62


 SCF WAVEFUNCTION OPTIMIZATION

  Step     Update method      Time    Convergence         Total energy    Change
  ------------------------------------------------------------------------------
     1 TBLite/Diag 0.40E+00    0.0     0.03976166       -42.1840316239 -4.22E+01
     2 TBLite/Diag 0.40E+00    0.0     0.00091748       -42.1840384681 -6.84E-06
     3 TBLite/Diag 0.40E+00    0.0     0.00074824       -42.1840396133 -1.15E-06
     4 TBLite/Diag 0.40E+00    0.0     0.00033441       -42.1840400797 -4.66E-07
     5 TBLite/Diag 0.40E+00    0.0     0.00008099       -42.1840400998 -2.01E-08
     6 TBLite/Diag 0.40E+00    0.0     0.00004571       -42.1840401052 -5.40E-09
     7 TBLite/Diag 0.40E+00    0.0     0.00000797       -42.1840401055 -2.59E-10
     8 TBLite/Diag 0.40E+00    0.0     0.00000330       -42.1840401055 -6.02E-11
     9 TBLite/Diag 0.40E+00    0.0     0.00000080       -42.1840401055 -2.83E-12
    10 TBLite/Diag 0.40E+00    0.0     0.00000013       -42.1840401055 -1.14E-13
    11 TBLite/Diag 0.40E+00    0.0     0.00000009       -42.1840401055 -1.42E-14
    12 TBLite/Diag 0.40E+00    0.0     0.00000002       -42.1840401055  0.00E+00
    13 TBLite/Diag 0.40E+00    0.0     6.1755E-09       -42.1840401055 -2.84E-14
    14 TBLite/Diag 0.40E+00    0.0     1.7093E-09       -42.1840401055  3.55E-14
    15 TBLite/Diag 0.40E+00    0.0     3.9526E-10       -42.1840401055 -7.11E-15

  *** SCF run converged in    15 steps ***


  Core Hamiltonian energy:                                    -42.69056087216055
  Repulsive potential energy:                                   0.43465010418075
  Electrostatic energy:                                         0.11067737696902
  Self-consistent dispersion energy:                           -0.04694777055164
  Non-self consistent dispersion energy:                        0.00814105604590
  Correction for halogen bonding:                               0.00000000000000
  Electronic entropic energy:                                  -0.00000000000000
  Fermi energy:                                                -0.24018472768873

  Total energy:                                               -42.18404010551652
  Total energy (extrapolated to T->0):                        -42.18404010551652

 ENERGY| Total FORCE_EVAL ( QS ) energy [hartree]            -42.184040105516516

 OPT| **************************************************************************
 OPT| Step number                                                              7
 OPT| Optimization method                                                   BFGS
 OPT| Total energy [hartree]                                      -42.1840401055
 OPT| Internal pressure [bar]                                    -570.8708201033
 OPT| Effective energy change [hartree]                            -0.0022782318
 OPT| Predicted energy change [hartree]                            -0.0016193399
 OPT| Scaling factor                                                0.0000000000
 OPT| Step size                                                     0.0441514050
 OPT| Trust radius                                                  0.4724315332
 OPT| Decrease in energy                                                     YES
 OPT| Used time [s]                                                        1.176
 OPT|
 OPT| Maximum step size                                             0.0441514050
 OPT| Convergence limit for maximum step size                       0.0030000000
 OPT| Maximum step size is converged                                          NO
 OPT|
 OPT| RMS step size                                                 0.0152605185
 OPT| Convergence limit for RMS step size                           0.0015000000
 OPT| RMS step size is converged                                              NO
 OPT|
 OPT| Maximum gradient                                              0.0087273955
 OPT| Convergence limit for maximum gradient                        0.0004500000
 OPT| Maximum gradient is converged                                           NO
 OPT|
 OPT| RMS gradient                                                  0.0037645798
 OPT| Convergence limit for RMS gradient                            0.0003000000
 OPT| RMS gradient is converged                                               NO
 OPT|
 OPT| Pressure deviation [bar]                                   -570.8708201033
 OPT| Pressure tolerance [bar]                                    100.0000000000
 OPT| Pressure is converged                                                   NO
 OPT| **************************************************************************
 OPT| Estimated peak process memory after this step [MiB]                    164

 --------------------------
 OPTIMIZATION STEP:      8
 --------------------------

 CELL| Volume [angstrom^3]:                                           252.985336
 CELL| Vector a [angstrom]:       5.119     0.000     0.000   |a| =     5.118702
 CELL| Vector b [angstrom]:       1.610     6.856     0.000   |b| =     7.042217
 CELL| Vector c [angstrom]:      -1.973    -1.053     7.209   |c| =     7.548044
 CELL| Angle (b,c), alpha [degree]:                                   101.277727
 CELL| Angle (a,c), beta  [degree]:                                   105.153558
 CELL| Angle (a,b), gamma [degree]:                                    76.785469
 CELL| Numerically orthorhombic:                                              NO
 CELL| Periodicity                                                           XYZ

 Extrapolation method: ASPC

 Number of electrons:                                                         72
 Number of occupied orbitals:                                                 36
 Number of molecular orbitals:                                                62

 Number of orbital functions:                                                 62
 Number of independent orbital functions:                                     62


 SCF WAVEFUNCTION OPTIMIZATION

  Step     Update method      Time    Convergence         Total energy    Change
  ------------------------------------------------------------------------------
     1 TBLite/Diag 0.40E+00    0.0     0.04617842       -42.1860221554 -4.22E+01
     2 TBLite/Diag 0.40E+00    0.0     0.00183950       -42.1860416728 -1.95E-05
     3 TBLite/Diag 0.40E+00    0.0     0.00081360       -42.1860436222 -1.95E-06
     4 TBLite/Diag 0.40E+00    0.0     0.00026924       -42.1860440310 -4.09E-07
     5 TBLite/Diag 0.40E+00    0.0     0.00010471       -42.1860440808 -4.99E-08
     6 TBLite/Diag 0.40E+00    0.0     0.00005473       -42.1860440899 -9.01E-09
     7 TBLite/Diag 0.40E+00    0.0     0.00001505       -42.1860440905 -6.58E-10
     8 TBLite/Diag 0.40E+00    0.0     0.00000511       -42.1860440907 -2.12E-10
     9 TBLite/Diag 0.40E+00    0.0     0.00000103       -42.1860440907 -1.27E-11
    10 TBLite/Diag 0.40E+00    0.0     0.00000080       -42.1860440907 -1.87E-12
    11 TBLite/Diag 0.40E+00    0.0     0.00000012       -42.1860440907 -3.55E-14
    12 TBLite/Diag 0.40E+00    0.0     0.00000006       -42.1860440907 -4.26E-14
    13 TBLite/Diag 0.40E+00    0.0     0.00000001       -42.1860440907 -7.11E-15
    14 TBLite/Diag 0.40E+00    0.0     3.8746E-09       -42.1860440907  1.42E-14
    15 TBLite/Diag 0.40E+00    0.0     6.7981E-10       -42.1860440907 -7.11E-15

  *** SCF run converged in    15 steps ***


  Core Hamiltonian energy:                                    -42.69744018724199
  Repulsive potential energy:                                   0.44060938176835
  Electrostatic energy:                                         0.10972409049413
  Self-consistent dispersion energy:                           -0.04715069982828
  Non-self consistent dispersion energy:                        0.00821332406786
  Correction for halogen bonding:                               0.00000000000000
  Electronic entropic energy:                                  -0.00000000000000
  Fermi energy:                                                -0.24144341495512

  Total energy:                                               -42.18604409073994
  Total energy (extrapolated to T->0):                        -42.18604409073994

 ENERGY| Total FORCE_EVAL ( QS ) energy [hartree]            -42.186044090739941

 OPT| **************************************************************************
 OPT| Step number                                                              8
 OPT| Optimization method                                                   BFGS
 OPT| Total energy [hartree]                                      -42.1860440907
 OPT| Internal pressure [bar]                                    5277.8885384377
 OPT| Effective energy change [hartree]                            -0.0020039852
 OPT| Predicted energy change [hartree]                            -0.0013238402
 OPT| Scaling factor                                                0.0000000000
 OPT| Step size                                                     0.0521192032
 OPT| Trust radius                                                  0.4724315332
 OPT| Decrease in energy                                                     YES
 OPT| Used time [s]                                                        1.182
 OPT|
 OPT| Maximum step size                                             0.0521192032
 OPT| Convergence limit for maximum step size                       0.0030000000
 OPT| Maximum step size is converged                                          NO
 OPT|
 OPT| RMS step size                                                 0.0161710669
 OPT| Convergence limit for RMS step size                           0.0015000000
 OPT| RMS step size is converged                                              NO
 OPT|
 OPT| Maximum gradient                                              0.0124732720
 OPT| Convergence limit for maximum gradient                        0.0004500000
 OPT| Maximum gradient is converged                                           NO
 OPT|
 OPT| RMS gradient                                                  0.0041157585
 OPT| Convergence limit for RMS gradient                            0.0003000000
 OPT| RMS gradient is converged                                               NO
 OPT|
 OPT| Pressure deviation [bar]                                   5277.8885384377
 OPT| Pressure tolerance [bar]                                    100.0000000000
 OPT| Pressure is converged                                                   NO
 OPT| **************************************************************************
 OPT| Estimated peak process memory after this step [MiB]                    164

 --------------------------
 OPTIMIZATION STEP:      9
 --------------------------

 CELL| Volume [angstrom^3]:                                           251.722592
 CELL| Vector a [angstrom]:       5.118     0.000     0.000   |a| =     5.117658
 CELL| Vector b [angstrom]:       1.622     6.825     0.000   |b| =     7.015113
 CELL| Vector c [angstrom]:      -1.970    -1.064     7.207   |c| =     7.546774
 CELL| Angle (b,c), alpha [degree]:                                   101.392923
 CELL| Angle (a,c), beta  [degree]:                                   105.134908
 CELL| Angle (a,b), gamma [degree]:                                    76.630949
 CELL| Numerically orthorhombic:                                              NO
 CELL| Periodicity                                                           XYZ

 Extrapolation method: ASPC

 Number of electrons:                                                         72
 Number of occupied orbitals:                                                 36
 Number of molecular orbitals:                                                62

 Number of orbital functions:                                                 62
 Number of independent orbital functions:                                     62


 SCF WAVEFUNCTION OPTIMIZATION

  Step     Update method      Time    Convergence         Total energy    Change
  ------------------------------------------------------------------------------
     1 TBLite/Diag 0.40E+00    0.0     0.06506115       -42.1882186774 -4.22E+01
     2 TBLite/Diag 0.40E+00    0.0     0.00410080       -42.1882974731 -7.88E-05
     3 TBLite/Diag 0.40E+00    0.0     0.00114988       -42.1883024495 -4.98E-06
     4 TBLite/Diag 0.40E+00    0.0     0.00051233       -42.1883032344 -7.85E-07
     5 TBLite/Diag 0.40E+00    0.0     0.00024330       -42.1883034168 -1.82E-07
     6 TBLite/Diag 0.40E+00    0.0     0.00010050       -42.1883034500 -3.32E-08
     7 TBLite/Diag 0.40E+00    0.0     0.00002043       -42.1883034515 -1.57E-09
     8 TBLite/Diag 0.40E+00    0.0     0.00000712       -42.1883034519 -4.25E-10
     9 TBLite/Diag 0.40E+00    0.0     0.00000220       -42.1883034520 -2.97E-11
    10 TBLite/Diag 0.40E+00    0.0     0.00000075       -42.1883034520 -1.11E-12
    11 TBLite/Diag 0.40E+00    0.0     0.00000007       -42.1883034520 -3.55E-14
    12 TBLite/Diag 0.40E+00    0.0     0.00000004       -42.1883034520 -1.42E-14
    13 TBLite/Diag 0.40E+00    0.0     0.00000001       -42.1883034520  1.42E-14
    14 TBLite/Diag 0.40E+00    0.0     6.0037E-09       -42.1883034520  2.13E-14
    15 TBLite/Diag 0.40E+00    0.0     1.1626E-09       -42.1883034520 -2.13E-14
    16 TBLite/Diag 0.40E+00    0.0     2.0451E-10       -42.1883034520 -2.13E-14

  *** SCF run converged in    16 steps ***


  Core Hamiltonian energy:                                    -42.69724629058720
  Repulsive potential energy:                                   0.43955246671087
  Electrostatic energy:                                         0.10849669249757
  Self-consistent dispersion energy:                           -0.04739803575425
  Non-self consistent dispersion energy:                        0.00829171515442
  Correction for halogen bonding:                               0.00000000000000
  Electronic entropic energy:                                  -0.00000000000000
  Fermi energy:                                                -0.24532086907835

  Total energy:                                               -42.18830345197859
  Total energy (extrapolated to T->0):                        -42.18830345197859

 ENERGY| Total FORCE_EVAL ( QS ) energy [hartree]            -42.188303451978591

 OPT| **************************************************************************
 OPT| Step number                                                              9
 OPT| Optimization method                                                   BFGS
 OPT| Total energy [hartree]                                      -42.1883034520
 OPT| Internal pressure [bar]                                    7199.3506325889
 OPT| Effective energy change [hartree]                            -0.0022593612
 OPT| Predicted energy change [hartree]                            -0.0017068394
 OPT| Scaling factor                                                0.0000000000
 OPT| Step size                                                     0.0761561873
 OPT| Trust radius                                                  0.4724315332
 OPT| Decrease in energy                                                     YES
 OPT| Used time [s]                                                        1.195
 OPT|
 OPT| Maximum step size                                             0.0761561873
 OPT| Convergence limit for maximum step size                       0.0030000000
 OPT| Maximum step size is converged                                          NO
 OPT|
 OPT| RMS step size                                                 0.0226004470
 OPT| Convergence limit for RMS step size                           0.0015000000
 OPT| RMS step size is converged                                              NO
 OPT|
 OPT| Maximum gradient                                              0.0103169151
 OPT| Convergence limit for maximum gradient                        0.0004500000
 OPT| Maximum gradient is converged                                           NO
 OPT|
 OPT| RMS gradient                                                  0.0036134836
 OPT| Convergence limit for RMS gradient                            0.0003000000
 OPT| RMS gradient is converged                                               NO
 OPT|
 OPT| Pressure deviation [bar]                                   7199.3506325889
 OPT| Pressure tolerance [bar]                                    100.0000000000
 OPT| Pressure is converged                                                   NO
 OPT| **************************************************************************
 OPT| Estimated peak process memory after this step [MiB]                    164

 --------------------------
 OPTIMIZATION STEP:     10
 --------------------------

 CELL| Volume [angstrom^3]:                                           251.306489
 CELL| Vector a [angstrom]:       5.120     0.000     0.000   |a| =     5.120105
 CELL| Vector b [angstrom]:       1.629     6.810     0.000   |b| =     7.002183
 CELL| Vector c [angstrom]:      -1.968    -1.071     7.207   |c| =     7.547444
 CELL| Angle (b,c), alpha [degree]:                                   101.460353
 CELL| Angle (a,c), beta  [degree]:                                   105.113012
 CELL| Angle (a,b), gamma [degree]:                                    76.550730
 CELL| Numerically orthorhombic:                                              NO
 CELL| Periodicity                                                           XYZ

 Extrapolation method: ASPC

 Number of electrons:                                                         72
 Number of occupied orbitals:                                                 36
 Number of molecular orbitals:                                                62

 Number of orbital functions:                                                 62
 Number of independent orbital functions:                                     62


 SCF WAVEFUNCTION OPTIMIZATION

  Step     Update method      Time    Convergence         Total energy    Change
  ------------------------------------------------------------------------------
     1 TBLite/Diag 0.40E+00    0.0     0.03194903       -42.1895232670 -4.22E+01
     2 TBLite/Diag 0.40E+00    0.0     0.00310540       -42.1895559257 -3.27E-05
     3 TBLite/Diag 0.40E+00    0.0     0.00061424       -42.1895578095 -1.88E-06
     4 TBLite/Diag 0.40E+00    0.0     0.00020472       -42.1895579599 -1.50E-07
     5 TBLite/Diag 0.40E+00    0.0     0.00010708       -42.1895579918 -3.19E-08
     6 TBLite/Diag 0.40E+00    0.0     0.00005619       -42.1895580006 -8.85E-09
     7 TBLite/Diag 0.40E+00    0.0     0.00001437       -42.1895580014 -7.84E-10
     8 TBLite/Diag 0.40E+00    0.0     0.00000496       -42.1895580016 -1.75E-10
     9 TBLite/Diag 0.40E+00    0.0     0.00000132       -42.1895580016 -1.16E-11
    10 TBLite/Diag 0.40E+00    0.0     0.00000074       -42.1895580016 -2.26E-12
    11 TBLite/Diag 0.40E+00    0.0     0.00000013       -42.1895580016 -6.39E-14
    12 TBLite/Diag 0.40E+00    0.0     0.00000010       -42.1895580016 -5.68E-14
    13 TBLite/Diag 0.40E+00    0.0     7.5926E-09       -42.1895580016  1.42E-14
    14 TBLite/Diag 0.40E+00    0.0     3.4911E-09       -42.1895580016  2.84E-14
    15 TBLite/Diag 0.40E+00    0.0     8.6804E-10       -42.1895580016 -2.84E-14

  *** SCF run converged in    15 steps ***


  Core Hamiltonian energy:                                    -42.69218190449476
  Repulsive potential energy:                                   0.43383245484014
  Electrostatic energy:                                         0.10797304650207
  Self-consistent dispersion energy:                           -0.04749805013441
  Non-self consistent dispersion energy:                        0.00831645168433
  Correction for halogen bonding:                               0.00000000000000
  Electronic entropic energy:                                  -0.00000000000000
  Fermi energy:                                                -0.24778101021789

  Total energy:                                               -42.18955800160264
  Total energy (extrapolated to T->0):                        -42.18955800160264

 ENERGY| Total FORCE_EVAL ( QS ) energy [hartree]            -42.189558001602641

 OPT| **************************************************************************
 OPT| Step number                                                             10
 OPT| Optimization method                                                   BFGS
 OPT| Total energy [hartree]                                      -42.1895580016
 OPT| Internal pressure [bar]                                    4454.1991992242
 OPT| Effective energy change [hartree]                            -0.0012545496
 OPT| Predicted energy change [hartree]                            -0.0008835450
 OPT| Scaling factor                                                0.0000000000
 OPT| Step size                                                     0.0395860315
 OPT| Trust radius                                                  0.4724315332
 OPT| Decrease in energy                                                     YES
 OPT| Used time [s]                                                        1.191
 OPT|
 OPT| Maximum step size                                             0.0395860315
 OPT| Convergence limit for maximum step size                       0.0030000000
 OPT| Maximum step size is converged                                          NO
 OPT|
 OPT| RMS step size                                                 0.0120211107
 OPT| Convergence limit for RMS step size                           0.0015000000
 OPT| RMS step size is converged                                              NO
 OPT|
 OPT| Maximum gradient                                              0.0058347522
 OPT| Convergence limit for maximum gradient                        0.0004500000
 OPT| Maximum gradient is converged                                           NO
 OPT|
 OPT| RMS gradient                                                  0.0027620556
 OPT| Convergence limit for RMS gradient                            0.0003000000
 OPT| RMS gradient is converged                                               NO
 OPT|
 OPT| Pressure deviation [bar]                                   4454.1991992242
 OPT| Pressure tolerance [bar]                                    100.0000000000
 OPT| Pressure is converged                                                   NO
 OPT| **************************************************************************
 OPT| Estimated peak process memory after this step [MiB]                    164

 --------------------------
 OPTIMIZATION STEP:     11
 --------------------------

 CELL| Volume [angstrom^3]:                                           251.297480
 CELL| Vector a [angstrom]:       5.124     0.000     0.000   |a| =     5.124430
 CELL| Vector b [angstrom]:       1.632     6.804     0.000   |b| =     6.996625
 CELL| Vector c [angstrom]:      -1.967    -1.077     7.208   |c| =     7.548323
 CELL| Angle (b,c), alpha [degree]:                                   101.505179
 CELL| Angle (a,c), beta  [degree]:                                   105.101117
 CELL| Angle (a,b), gamma [degree]:                                    76.514433
 CELL| Numerically orthorhombic:                                              NO
 CELL| Periodicity                                                           XYZ

 Extrapolation method: ASPC

 Number of electrons:                                                         72
 Number of occupied orbitals:                                                 36
 Number of molecular orbitals:                                                62

 Number of orbital functions:                                                 62
 Number of independent orbital functions:                                     62


 SCF WAVEFUNCTION OPTIMIZATION

  Step     Update method      Time    Convergence         Total energy    Change
  ------------------------------------------------------------------------------
     1 TBLite/Diag 0.40E+00    0.0     0.01714314       -42.1905094038 -4.22E+01
     2 TBLite/Diag 0.40E+00    0.0     0.00162943       -42.1905198566 -1.05E-05
     3 TBLite/Diag 0.40E+00    0.0     0.00036669       -42.1905209380 -1.08E-06
     4 TBLite/Diag 0.40E+00    0.0     0.00015670       -42.1905210299 -9.19E-08
     5 TBLite/Diag 0.40E+00    0.0     0.00005383       -42.1905210487 -1.88E-08
     6 TBLite/Diag 0.40E+00    0.0     0.00002805       -42.1905210530 -4.28E-09
     7 TBLite/Diag 0.40E+00    0.0     0.00001258       -42.1905210539 -8.75E-10
     8 TBLite/Diag 0.40E+00    0.0     0.00000445       -42.1905210540 -1.00E-10
     9 TBLite/Diag 0.40E+00    0.0     0.00000181       -42.1905210540 -1.45E-11
    10 TBLite/Diag 0.40E+00    0.0     0.00000057       -42.1905210540 -1.29E-12
    11 TBLite/Diag 0.40E+00    0.0     0.00000005       -42.1905210540 -3.55E-14
    12 TBLite/Diag 0.40E+00    0.0     0.00000002       -42.1905210540  2.84E-14
    13 TBLite/Diag 0.40E+00    0.0     4.3437E-09       -42.1905210540  2.13E-14
    14 TBLite/Diag 0.40E+00    0.0     5.6372E-10       -42.1905210540 -2.84E-14

  *** SCF run converged in    14 steps ***


  Core Hamiltonian energy:                                    -42.68577936673056
  Repulsive potential energy:                                   0.42635313897394
  Electrostatic energy:                                         0.10811383917125
  Self-consistent dispersion energy:                           -0.04752331040419
  Non-self consistent dispersion energy:                        0.00831464499095
  Correction for halogen bonding:                               0.00000000000000
  Electronic entropic energy:                                  -0.00000000000000
  Fermi energy:                                                -0.24910371148373

  Total energy:                                               -42.19052105399859
  Total energy (extrapolated to T->0):                        -42.19052105399859

 ENERGY| Total FORCE_EVAL ( QS ) energy [hartree]            -42.190521053998594

 OPT| **************************************************************************
 OPT| Step number                                                             11
 OPT| Optimization method                                                   BFGS
 OPT| Total energy [hartree]                                      -42.1905210540
 OPT| Internal pressure [bar]                                    -557.8788064613
 OPT| Effective energy change [hartree]                            -0.0009630524
 OPT| Predicted energy change [hartree]                            -0.0007100625
 OPT| Scaling factor                                                0.0000000000
 OPT| Step size                                                     0.0253404765
 OPT| Trust radius                                                  0.4724315332
 OPT| Decrease in energy                                                     YES
 OPT| Used time [s]                                                        1.191
 OPT|
 OPT| Maximum step size                                             0.0253404765
 OPT| Convergence limit for maximum step size                       0.0030000000
 OPT| Maximum step size is converged                                          NO
 OPT|
 OPT| RMS step size                                                 0.0090331255
 OPT| Convergence limit for RMS step size                           0.0015000000
[...]
 --------------------------

 CELL| Volume [angstrom^3]:                                           226.756838
 CELL| Vector a [angstrom]:       4.209     0.000     0.000   |a| =     4.208572
 CELL| Vector b [angstrom]:       2.130     6.420     0.000   |b| =     6.764459
 CELL| Vector c [angstrom]:      -0.787    -1.029     8.392   |c| =     8.491346
 CELL| Angle (b,c), alpha [degree]:                                    98.292317
 CELL| Angle (a,c), beta  [degree]:                                    95.315133
 CELL| Angle (a,b), gamma [degree]:                                    71.647900
 CELL| Numerically orthorhombic:                                              NO
 CELL| Periodicity                                                           XYZ

 Extrapolation method: ASPC

 Number of electrons:                                                         72
 Number of occupied orbitals:                                                 36
 Number of molecular orbitals:                                                62

 Number of orbital functions:                                                 62
 Number of independent orbital functions:                                     62


 SCF WAVEFUNCTION OPTIMIZATION

  Step     Update method      Time    Convergence         Total energy    Change
  ------------------------------------------------------------------------------
     1 TBLite/Diag 0.40E+00    0.0     0.00066551       -42.2509759790 -4.23E+01
     2 TBLite/Diag 0.40E+00    0.0     0.00002854       -42.2509759824 -3.45E-09
     3 TBLite/Diag 0.40E+00    0.0     0.00001458       -42.2509759826 -1.49E-10
     4 TBLite/Diag 0.40E+00    0.0     0.00000987       -42.2509759828 -2.71E-10
     5 TBLite/Diag 0.40E+00    0.0     0.00000176       -42.2509759829 -1.27E-11
     6 TBLite/Diag 0.40E+00    0.0     0.00000046       -42.2509759829 -1.12E-12
     7 TBLite/Diag 0.40E+00    0.0     0.00000021       -42.2509759829 -1.28E-13
     8 TBLite/Diag 0.40E+00    0.0     0.00000012       -42.2509759829 -7.82E-14
     9 TBLite/Diag 0.40E+00    0.0     0.00000003       -42.2509759829  2.84E-14
    10 TBLite/Diag 0.40E+00    0.0     0.00000002       -42.2509759829 -2.13E-14
    11 TBLite/Diag 0.40E+00    0.0     3.4505E-09       -42.2509759829 -1.42E-14
    12 TBLite/Diag 0.40E+00    0.0     1.8359E-09       -42.2509759829  0.00E+00
    13 TBLite/Diag 0.40E+00    0.0     6.3000E-10       -42.2509759829 -7.11E-15

  *** SCF run converged in    13 steps ***


  Core Hamiltonian energy:                                    -42.72929680719773
  Repulsive potential energy:                                   0.42167574997270
  Electrostatic energy:                                         0.09941428078790
  Self-consistent dispersion energy:                           -0.05310725491705
  Non-self consistent dispersion energy:                        0.01033804849395
  Correction for halogen bonding:                               0.00000000000000
  Electronic entropic energy:                                  -0.00000000000000
  Fermi energy:                                                -0.25298620654146

  Total energy:                                               -42.25097598286023
  Total energy (extrapolated to T->0):                        -42.25097598286023

 ENERGY| Total FORCE_EVAL ( QS ) energy [hartree]            -42.250975982860226

 OPT| **************************************************************************
 OPT| Step number                                                            190
 OPT| Optimization method                                                   BFGS
 OPT| Total energy [hartree]                                      -42.2509759829
 OPT| Internal pressure [bar]                                     -14.5841858460
 OPT| Effective energy change [hartree]                            -0.0000006735
 OPT| Predicted energy change [hartree]                            -0.0000004771
 OPT| Scaling factor                                                0.7182422554
 OPT| Step size                                                     0.0017537891
 OPT| Trust radius                                                  0.4724315332
 OPT| Decrease in energy                                                     YES
 OPT| Used time [s]                                                        0.812
 OPT|
 OPT| Maximum step size                                             0.0017537891
 OPT| Convergence limit for maximum step size                       0.0030000000
 OPT| Maximum step size is converged                                         YES
 OPT|
 OPT| RMS step size                                                 0.0005810414
 OPT| Convergence limit for RMS step size                           0.0015000000
 OPT| RMS step size is converged                                             YES
 OPT|
 OPT| Maximum gradient                                              0.0001662433
 OPT| Convergence limit for maximum gradient                        0.0004500000
 OPT| Maximum gradient is converged                                          YES
 OPT|
 OPT| RMS gradient                                                  0.0000648120
 OPT| Convergence limit for RMS gradient                            0.0003000000
 OPT| RMS gradient is converged                                              YES
 OPT|
 OPT| Pressure deviation [bar]                                    -14.5841858460
 OPT| Pressure tolerance [bar]                                    100.0000000000
 OPT| Pressure is converged                                                  YES
 OPT| **************************************************************************
 OPT| Estimated peak process memory after this step [MiB]                    165

 *******************************************************************************
 ***                    GEOMETRY OPTIMIZATION COMPLETED                      ***
 *******************************************************************************

 write_final_structure: Optimization converged, writing XYZ file gladly:
  ethylcarbamate_GFN2_gamma_cell_opt-FINAL-1_190.xyz

 write_final_structure: Optimization converged, writing CIF file gladly:
  ethylcarbamate_GFN2_gamma_cell_opt-FINAL-1_190.cif

 write_final_structure: Done!

                    Reevaluating energy at the minimum

 CELL| Volume [angstrom^3]:                                           226.756838
 CELL| Vector a [angstrom]:       4.209     0.000     0.000   |a| =     4.208572
 CELL| Vector b [angstrom]:       2.130     6.420     0.000   |b| =     6.764459
 CELL| Vector c [angstrom]:      -0.787    -1.029     8.392   |c| =     8.491346
 CELL| Angle (b,c), alpha [degree]:                                    98.292317
 CELL| Angle (a,c), beta  [degree]:                                    95.315133
 CELL| Angle (a,b), gamma [degree]:                                    71.647900
 CELL| Numerically orthorhombic:                                              NO
 CELL| Periodicity                                                           XYZ

 Extrapolation method: ASPC

 Number of electrons:                                                         72
 Number of occupied orbitals:                                                 36
 Number of molecular orbitals:                                                62

 Number of orbital functions:                                                 62
 Number of independent orbital functions:                                     62


 SCF WAVEFUNCTION OPTIMIZATION

  Step     Update method      Time    Convergence         Total energy    Change
  ------------------------------------------------------------------------------
     1 TBLite/Diag 0.40E+00    0.0     2.6721E-10       -42.2509759829 -4.23E+01

  *** SCF run converged in     1 steps ***


  Core Hamiltonian energy:                                    -42.72929680722476
  Repulsive potential energy:                                   0.42167574997270
  Electrostatic energy:                                         0.09941428081587
  Self-consistent dispersion energy:                           -0.05310725491797
  Non-self consistent dispersion energy:                        0.01033804849395
  Correction for halogen bonding:                               0.00000000000000
  Electronic entropic energy:                                  -0.00000000000000
  Fermi energy:                                                -0.25298620654274

  Total energy:                                               -42.25097598286021
  Total energy (extrapolated to T->0):                        -42.25097598286021

 ENERGY| Total FORCE_EVAL ( QS ) energy [hartree]            -42.250975982860211

 -------------------------------------------------------------------------------
 -                                                                             -
 -                                DBCSR STATISTICS                             -
 -                                                                             -
 -------------------------------------------------------------------------------
 COUNTER                                    TOTAL       BLAS       SMM       ACC
 flops     1 x    30 x     1             11113200       0.0%    100.0%      0.0%     
 flops     1 x    32 x     1             11854080       0.0%    100.0%      0.0%     
 flops     4 x    30 x     1             38102400       0.0%    100.0%      0.0%     
 flops     1 x    30 x     4             38102400       0.0%    100.0%      0.0%     
 flops     4 x    32 x     1             40642560       0.0%    100.0%      0.0%     
 flops     1 x    32 x     4             40642560       0.0%    100.0%      0.0%     
 flops     1 x     1 x    62             42848820       0.0%    100.0%      0.0%     
 flops     4 x    30 x     4            130636800       0.0%    100.0%      0.0%     
 flops     4 x     1 x    62            137116224       0.0%    100.0%      0.0%     
 flops     1 x     4 x    62            137116224       0.0%    100.0%      0.0%     
 flops     4 x    32 x     4            139345920       0.0%    100.0%      0.0%     
 flops     4 x     4 x    62            509288832       0.0%    100.0%      0.0%     
 flops inhomo. stacks                           0       0.0%      0.0%      0.0%
 flops total                         1.276810E+09       0.0%    100.0%      0.0%
 flops max/rank                      1.276810E+09       0.0%    100.0%      0.0%
 matmuls inhomo. stacks                         0       0.0%      0.0%      0.0%
 matmuls total                            2432781       0.0%    100.0%      0.0%
 number of processed stacks                 20724       0.0%    100.0%      0.0%
 average stack size                                     0.0     117.4       0.0
 marketing flops                     1.361232E+09
 -------------------------------------------------------------------------------
 # multiplications                           4236
 max memory usage/rank              13.671285E+09
 # max total images/rank                        1
 # max 3D layers                                1
 # MPI messages exchanged                       0
 -------------------------------------------------------------------------------
 -                                                                             -
 -                      DBCSR MESSAGE PASSING PERFORMANCE                      -
 -                                                                             -
 -------------------------------------------------------------------------------
 ROUTINE             CALLS      AVE VOLUME [Bytes]
 MP_Bcast               13                     12.
 MP_Allreduce        19333                      8.
 MP_Alltoall        142317                  22749.
 MP_ISend            16944                   2432.
 MP_IRecv            16944                   2432.
 -------------------------------------------------------------------------------

 -------------------------------------------------------------------------------
 -                                                                             -
 -                          OFFLOAD MEMPOOL STATISTICS                         -
 -                                                                             -
 -------------------------------------------------------------------------------
 Memory consumption                Number of allocations  Used [MiB]  Size [MiB]
 Device                                                2           0           0
 Host                                                  2           0           0
 -------------------------------------------------------------------------------

 MEMORY| Estimated peak process memory [MiB]                                 165

 -------------------------------------------------------------------------------
 -                                                                             -
 -                         MESSAGE PASSING PERFORMANCE                         -
 -                                                                             -
 -------------------------------------------------------------------------------

 ROUTINE             CALLS      AVE VOLUME [Bytes]
 MP_Group              191
 MP_Bcast             6580                    255.
 MP_Allreduce       104550                    189.
 MP_Sync              3481
 MP_comm_split        3290
 -------------------------------------------------------------------------------


 -------------------------------------------------------------------------------
 -                                                                             -
 -                           R E F E R E N C E S                               -
 -                                                                             -
 -------------------------------------------------------------------------------
 
 CP2K version 2026.1 (Development Version), the CP2K developers group (2026).
 CP2K is freely available from https://www.cp2k.org/ .
 
 M. Iannuzzi, J. Wilhelm, F. Stein, A. Bussy, H. Elgabarty, D. Golze, A. Hehn, 
 M. Graml, S. Marek, B. Sertcan Gökmen, C. Schran, H. Forbert, R. Z. 
 Khaliullin, A. Kozhevnikov, M. Taillefumier, R. Meli, V. V. Rybkin, M. Brehm, 
 R. Schade, O. Schütt, J. V. Pototschnig, H. Mirhosseini, A. Knüpfer, D. Marx, 
 M. Krack, J. Hutter, T. D. Kühne.
 J. Phys. Chem. B 130, 1237-1310 (2026).
 The CP2K Program Package Made Simple.
 https://doi.org/10.1021/acs.jpcb.5c05851

 A. Katbashev, M. Stahn, T. Rose, V. Alizadeh, M. Friede, C. Plett, P. 
 Steinbach, S. Ehlert.
 J. Phys. Chem. A 129, 2667-2682 (2025).
 Overview on Building Blocks and Applications of Efficient and Robust Extended 
 Tight Binding.
 https://doi.org/10.1021/acs.jpca.4c08263

 T. D. Kühne, M. Iannuzzi, M. Del Ben, V. V. Rybkin, P. Seewald, F. Stein, T. 
 Laino, R. Z. Khaliullin, O. Schütt, F. Schiffmann, D. Golze, J. Wilhelm, S. 
 Chulkov, M. H. Bani-Hashemian, V. Weber, U. Borstnik, M. Taillefumier, A. S. 
 Jakobovits, A. Lazzaro, H. Pabst, T. Müller, R. Schade, M. Guidon, S. 
 Andermatt, N. Holmberg, G. K. Schenter, A. Hehn, A. Bussy, F. Belleflamme, G. 
 Tabacchi, A. Glöß, M. Lass, I. Bethune, C. J. Mundy, C. Plessl, M. Watkins, 
 J. VandeVondele, M. Krack, J. Hutter.
 J. Chem. Phys. 152, 194103 (2020).
 CP2K: An electronic structure and molecular dynamics software package - 
 Quickstep: Efficient and accurate electronic structure calculations.
 https://doi.org/10.1063/5.0007045

 P. Pracht, E. Caldeweyher, S. Ehlert, S. Grimme.
 ChemRxiv, (2019).
 A Robust Non-Self-Consistent Tight-Binding Quantum Chemistry Method for large 
 Molecules.
 https://doi.org/10.26434/chemrxiv.8326202.v1

 S. Grimme, C. Bannwarth, P. Shushkov.
 J. Chem. Theory Comput. 13, 1989 (2017).
 A Robust and Accurate Tight-Binding Quantum Chemical Method for Structures, 
 Vibrational Frequencies, and Noncovalent Interactions of Large Molecular 
 Systems Parametrized for All spd-Block Elements (Z = 1-86).
 https://doi.org/10.1021/acs.jctc.7b00118

 O. Schuett, P. Messmer, J. Hutter, J. VandeVondele.
 Electronic Structure Calculations on Graphics Processing Units, 173-190 (2016).
 GPU-Accelerated Sparse Matrix-Matrix Multiplication for Linear Scaling Density 
 Functional Theory.
 https://doi.org/10.1002/9781118670712.ch8

 A. Heinecke, G. Henry, M. Hutchinson, H. Pabst.
 Proceedings of Intl. Supercomputing Conference, 981-991 (2016).
 LIBXSMM: Accelerating Small Matrix Multiplications by Runtime Code Generation.
 https://doi.org/10.1109/SC.2016.83

 U. Borstnik, J. VandeVondele, V. Weber, J. Hutter.
 Parallel Comput. 40, 47-58 (2014).
 Sparse matrix multiplication: The distributed block-compressed sparse row 
 library.
 https://doi.org/10.1016/j.parco.2014.03.012

 T. D. Kühne, M. Krack, F. R. Mohamed, M. Parrinello.
 Phys. Rev. Lett. 98, 066401 (2007).
 Efficient and accurate Car-Parrinello-like approach to Born-Oppenheimer 
 molecular dynamics.
 https://doi.org/10.1103/PhysRevLett.98.066401

 M. Frigo, S. G. Johnson.
 Proc. IEEE 93, 216-231 (2005).
 The design and implementation of FFTW3.
 https://doi.org/10.1109/JPROC.2004.840301

 J. Kolafa.
 J. Comput. Chem. 25, 335-342 (2004).
 Time-reversible always stable predictor-corrector method for molecular dynamics 
 of polarizable molecules.
 https://doi.org/10.1002/jcc.10385

 N. D. Mermin.
 Phys. Rev. 137, A1441-A1443 (1965).
 Thermal Properties of the Inhomogeneous Electron Gas.
 https://doi.org/10.1103/PhysRev.137.A1441


 -------------------------------------------------------------------------------
 -                                                                             -
 -                                T I M I N G                                  -
 -                                                                             -
 -------------------------------------------------------------------------------
 SUBROUTINE                       CALLS  ASD         SELF TIME        TOTAL TIME
                                MAXIMUM       AVERAGE  MAXIMUM  AVERAGE  MAXIMUM
 CP2K                                 1  1.0    0.002    0.002  171.947  171.947
 cp_cell_opt                          1  2.0    0.000    0.000  171.941  171.941
 geoopt_bfgs                          1  3.0    0.016    0.016  171.941  171.941
 cp_eval_at                         192  4.0    0.017    0.017  171.691  171.691
 qs_forces                          191  5.0    0.010    0.010  171.468  171.468
 build_tblite_matrices              383  7.0  148.379  148.379  151.459  151.459
 qs_energies                        192  6.0    0.004    0.004   48.639   48.639
 qs_energies_init_hamiltonians      192  7.0    0.001    0.001   40.652   40.652
 rebuild_ks_matrix                 3100  9.8    0.002    0.002   13.967   13.967
 build_tblite_ks_matrix            3100 10.8   13.918   13.918   13.964   13.964
 qs_ks_update_qs_env_forces         191  6.0    0.000    0.000   11.988   11.988
 scf_env_do_scf                     192  7.0    0.002    0.002    7.159    7.159
 scf_env_do_scf_inner_loop         2909  8.0    1.013    1.013    7.150    7.150
 qs_scf_new_mos                    2909  9.0    0.009    0.009    3.841    3.841
 -------------------------------------------------------------------------------

 The number of warnings for this run is : 0
 
 -------------------------------------------------------------------------------
  **** **** ******  **  PROGRAM ENDED AT                 2026-05-23 22:50:18.398
 ***** ** ***  *** **   PROGRAM RAN ON                                spark-c86c
 **    ****   ******    PROGRAM RAN BY                                  kuehne88
 ***** **    ** ** **   PROGRAM PROCESS ID                               2269182
  **** **  *******  **  PROGRAM STOPPED IN /home/kuehne88/periodic-gfn2-benchmar
                                           ks/X23b/runs/cellopt_gamma/GFN2/ethyl
                                           carbamate_GFN2_gamma_cellopt
