 DBCSR| CPU Multiplication driver                                           BLAS (U)
 DBCSR| Multrec recursion limit                                              512 (U)
 DBCSR| Multiplication stack size                                           1000 (D)
 DBCSR| Maximum elements for images                                    UNLIMITED (U)
 DBCSR| Multiplicative factor virtual images                                   1 (U)
 DBCSR| Use multiplication densification                                       T (D)
 DBCSR| Multiplication size stacks                                             3 (U)
 DBCSR| Use memory pool for CPU allocation                                     F (U)
 DBCSR| Number of 3D layers                                               SINGLE (U)
 DBCSR| Use MPI memory allocation                                              F (U)
 DBCSR| Use RMA algorithm                                                      F (U)
 DBCSR| Use Communication thread                                               T (U)
 DBCSR| Communication thread load                                             60 (D)
 DBCSR| MPI: My process id                                                     0
 DBCSR| MPI: Number of processes                                               1
 DBCSR| OMP: Current number of threads                                         8
 DBCSR| OMP: Max number of threads                                             8
 DBCSR| Split modifier for TAS multiplication algorithm                  1.0E+00 (U)


  **** **** ******  **  PROGRAM STARTED AT               2026-07-16 14:35:38.297
 ***** ** ***  *** **   PROGRAM STARTED ON                                 terok
 **    ****   ******    PROGRAM STARTED BY                              kuehne88
 ***** **    ** ** **   PROGRAM PROCESS ID                               1001400
  **** **  *******  **  PROGRAM STARTED IN /home/kuehne88/work/codex-gxtb-exchan
                                           ge-cache-cp2k-runtime-r3-20260716/run
                                           s/si_shifted_spglib_energy

 CP2K| version string:                 CP2K version 2026.1 (Development Version)
 CP2K| source code revision number:                                   28df9380ab
 CP2K| cp2kflags: omp fftw3 libxc parallel scalapack spglib s_dftd3 mctc-lib tbl
 CP2K|            ite tblite_gxtb
 CP2K| is freely available from                            https://www.cp2k.org/
 CP2K| Program compiled at                                   2026-07-16 14:15:14
 CP2K| Program compiled on                                                 terok
 CP2K| Program compiled for                                               x86_64
 CP2K| Data directory path    /home/kuehne88/work/codex-gxtb-exchange-cache-cp2k
 CP2K| Input file name                                                 input.inp

 GLOBAL| Force Environment number                                              1
 GLOBAL| Basis set file name                                           BASIS_SET
 GLOBAL| Potential file name                                           POTENTIAL
 GLOBAL| MM Potential file name                                     MM_POTENTIAL
 GLOBAL| Coordinate file name                                      __STD_INPUT__
 GLOBAL| Method name                                                        CP2K
 GLOBAL| Project name                                    Si_shifted_spglib_debug
 GLOBAL| Run type                                                          DEBUG
 GLOBAL| FFT library                                                       FFTW3
 GLOBAL| Diagonalization library                                       ScaLAPACK
 GLOBAL| Cholesky decomposition library                                ScaLAPACK
 GLOBAL| DGEMM library                                                      BLAS
 GLOBAL| Direct generalized diagonalization requested                          F
 GLOBAL| Orthonormality check for eigenvectors                          DISABLED
 GLOBAL| Matrix multiplication library                                 ScaLAPACK
 GLOBAL| All-to-all communication in single precision                          F
 GLOBAL| FFTs using library dependent lengths                                  F
 GLOBAL| Grid backend                                                       AUTO
 GLOBAL| Global print level                                               MEDIUM
 GLOBAL| MPI I/O enabled                                                       T
 GLOBAL| Total number of message passing processes                             1
 GLOBAL| Number of distributed systems (nodes)                                 1
 GLOBAL| Number of threads for this process                                    8
 GLOBAL| This output is from process                                           0
 GLOBAL| OpenMP stack size per thread (OMP_STACKSIZE)                    default
 GLOBAL| CPU model name                                       AMD EPYC Processor
 GLOBAL| CPUID                                                              1002

 MEMORY| system memory details [Kb]
 MEMORY|                        rank 0           min           max       average
 MEMORY| MemTotal            528104804     528104804     528104804     528104804
 MEMORY| MemFree             387653704     387653704     387653704     387653704
 MEMORY| Buffers                    20            20            20            20
 MEMORY| Cached              124462592     124462592     124462592     124462592
 MEMORY| Slab                  9597152       9597152       9597152       9597152
 MEMORY| SReclaimable          7198056       7198056       7198056       7198056
 MEMORY| MemLikelyFree       519314372     519314372     519314372     519314372


 *** Fundamental physical constants (SI units) ***

 *** Literature: B. J. Mohr and B. N. Taylor,
 ***             CODATA recommended values of the fundamental physical
 ***             constants: 2006, Web Version 5.1
 ***             http://physics.nist.gov/constants

 Speed of light in vacuum [m/s]                             2.99792458000000E+08
 Magnetic constant or permeability of vacuum [N/A**2]       1.25663706143592E-06
 Electric constant or permittivity of vacuum [F/m]          8.85418781762039E-12
 Planck constant (h) [J*s]                                  6.62606896000000E-34
 Planck constant (h-bar) [J*s]                              1.05457162825177E-34
 Elementary charge [C]                                      1.60217648700000E-19
 Electron mass [kg]                                         9.10938215000000E-31
 Electron g factor [ ]                                     -2.00231930436220E+00
 Proton mass [kg]                                           1.67262163700000E-27
 Fine-structure constant                                    7.29735253760000E-03
 Rydberg constant [1/m]                                     1.09737315685270E+07
 Avogadro constant [1/mol]                                  6.02214179000000E+23
 Boltzmann constant [J/K]                                   1.38065040000000E-23
 Atomic mass unit [kg]                                      1.66053878200000E-27
 Bohr radius [m]                                            5.29177208590000E-11

 *** Conversion factors ***

 [u] -> [a.u.]                                              1.82288848426455E+03
 [Angstrom] -> [Bohr] = [a.u.]                              1.88972613288564E+00
 [a.u.] = [Bohr] -> [Angstrom]                              5.29177208590000E-01
 [a.u.] -> [s]                                              2.41888432650478E-17
 [a.u.] -> [fs]                                             2.41888432650478E-02
 [a.u.] -> [J]                                              4.35974393937059E-18
 [a.u.] -> [N]                                              8.23872205491840E-08
 [a.u.] -> [K]                                              3.15774647902944E+05
 [a.u.] -> [kJ/mol]                                         2.62549961709828E+03
 [a.u.] -> [kcal/mol]                                       6.27509468713739E+02
 [a.u.] -> [Pa]                                             2.94210107994716E+13
 [a.u.] -> [bar]                                            2.94210107994716E+08
 [a.u.] -> [atm]                                            2.90362800883016E+08
 [a.u.] -> [eV]                                             2.72113838565563E+01
 [a.u.] -> [Hz]                                             6.57968392072181E+15
 [a.u.] -> [1/cm] (wave numbers)                            2.19474631370540E+05
 [a.u./Bohr**2] -> [1/cm]                                   5.14048714338585E+03
 

 CELL| Volume [angstrom^3]:                                            40.047869
 CELL| Vector a [angstrom]:       3.840     0.000     0.000   |a| =     3.840297
 CELL| Vector b [angstrom]:       1.920     3.326     0.000   |b| =     3.840297
 CELL| Vector c [angstrom]:       1.920     1.109     3.136   |c| =     3.840297
 CELL| Angle (b,c), alpha [degree]:                                    60.000000
 CELL| Angle (a,c), beta  [degree]:                                    60.000000
 CELL| Angle (a,b), gamma [degree]:                                    60.000000
 CELL| Numerically orthorhombic:                                              NO
 CELL| Periodicity                                                           XYZ

 CELL_REF| Volume [angstrom^3]:                                        40.047869
 CELL_REF| Vector a [angstrom     3.840     0.000     0.000   |a| =     3.840297
 CELL_REF| Vector b [angstrom     1.920     3.326     0.000   |b| =     3.840297
 CELL_REF| Vector c [angstrom     1.920     1.109     3.136   |c| =     3.840297
 CELL_REF| Angle (b,c), alpha [degree]:                                60.000000
 CELL_REF| Angle (a,c), beta  [degree]:                                60.000000
 CELL_REF| Angle (a,b), gamma [degree]:                                60.000000
 CELL_REF| Numerically orthorhombic:                                          NO
 CELL_REF| Periodicity                                                       XYZ

 GENERATE|  Preliminary Number of Bonds generated:                             0
 GENERATE|  Achieved consistency in connectivity generation.


                  #####   #####        #     #   #     #       #          
                 #     # #     #      #    ##### #     #   # #####  ####  
                 #     # #           #       #   ###   #       #   #    # 
                 #     #  #####     #        #   #  #  #   #   #   ###### 
                 #   # #       #   #         #   #   # #   #   #   #      
                 #    #  #     #  #          #   #  #  # # #   #    #   # 
                  #### #  #####  #           #   ###   ##  #   #     ###  

                                     g-xTB   
                                 Version 0.0                       
                            Johann V. Pototschnig                  

                tblite provider: SAVE
                tblite source revision: unknown
                g-xTB support: enabled

 xTB| Parameter file                                             xTB1_parameters
 xTB| Basis expansion STO-NG                                                   6
 xTB| Basis expansion STO-NG for Hydrogen                                      4
 xTB| Repulsive pair potential accuracy                               0.1000E-09
 xTB| Repulsive enhancement factor                                      0.000000
 xTB| Halogen interaction potential                                            T
 xTB| Halogen interaction potential cutoff radius                         20.000
 xTB| Nonbonded interactions                                                   F
 xTB| vdW potential type:                                              DFTD3(BJ)
 xTB| D3 Dispersion: Parameter                                         dftd3.dat
 xTB| Huckel constants ks kp kd                        1.850     2.250     2.000
 xTB| Huckel constants ksp k2sh                                  2.080     2.850
 xTB| Mataga-Nishimoto exponent                                            2.000
 xTB| Repulsion potential exponent                                         1.500
 xTB| Coordination number scaling kcn(s) kcn(p) kc     0.006    -0.003    -0.005
 xTB| Electronegativity scaling                                           -0.007
 xTB| Halogen potential scaling kxr kx2                          1.300     0.440
 xTB| SCC mixer:                                                       AUTO
 xTB| tblite accuracy:                                                 1.000E+00
 xTB| tblite SCC mixer damping:                                            0.400
 xTB| tblite SCC mixer iterations:                                           250
 xTB| tblite SCC mixer memory:                                               250
 xTB| tblite SCC mixer solver:                                         GVD
 xTB| tblite SCC mixer omega0:                                         1.000E-02
 xTB| tblite SCC mixer min weight:                                     1.000E+00
 xTB| tblite SCC mixer max weight:                                     1.000E+05
 xTB| tblite SCC mixer weight factor:                                  1.000E-02




 ATOMIC KIND INFORMATION

  1. Atomic kind: Si                                    Number of atoms:       2

     Orbital Basis Set                                                 Si_STO-5G

       Number of orbital shell sets:                                           3
       Number of orbital shells:                                               3
       Number of primitive Cartesian functions:                               11
       Number of Cartesian basis functions:                                   10
       Number of spherical basis functions:                                    9
       Norm type:                                                              3

       Normalised Cartesian orbitals:

                        Set   Shell   Orbital            Exponent    Coefficient

                          1       1    1s                4.480989       0.081515
                                                         1.311833      -0.308482
                                                         0.304930       0.120488
                                                         0.201075       0.078155
                                                         0.076953       0.045458

                          2       1    2px               1.203692      -0.166706
                                                         0.488460       0.180988
                                                         0.183780       0.100040
                                                         0.065048       0.013180
                          2       1    2py               1.203692      -0.166706
                                                         0.488460       0.180988
                                                         0.183780       0.100040
                                                         0.065048       0.013180
                          2       1    2pz               1.203692      -0.166706
                                                         0.488460       0.180988
                                                         0.183780       0.100040
                                                         0.065048       0.013180

                          3       1    3dx2              1.062530       0.455864
                                                         0.288560       0.159361
                          3       1    3dxy              1.062530       0.789580
                                                         0.288560       0.276021
                          3       1    3dxz              1.062530       0.789580
                                                         0.288560       0.276021
                          3       1    3dy2              1.062530       0.455864
                                                         0.288560       0.159361
                          3       1    3dyz              1.062530       0.789580
                                                         0.288560       0.276021
                          3       1    3dz2              1.062530       0.455864
                                                         0.288560       0.159361

     AE Potential information for                                        Silicon

       Description:                                       Bare Coulomb Potential
                                                             Valence charge only

       Gaussian exponent of the core charge distribution:               1.623245
       Electronic configuration (s p d ...):                       2   2   0   0


 MOLECULE KIND INFORMATION


 All atoms are their own molecule, skipping detailed information


 TOTAL NUMBERS AND MAXIMUM NUMBERS

  Total number of            - Atomic kinds:                                   1
                             - Atoms:                                          2
                             - Shell sets:                                     6
                             - Shells:                                         6
                             - Primitive Cartesian functions:                 22
                             - Cartesian basis functions:                     20
                             - Spherical basis functions:                     18

  Maximum angular momentum of the orbital basis functions:                     2


 MODULE QUICKSTEP: ATOMIC COORDINATES IN ANGSTROM

   Atom Kind Element         X             Y             Z       Z(eff)     Mass
      1    1 Si   14      0.000000      0.000000      0.000000   4.0000  28.0855
      2    1 Si   14      1.920148      1.108598      0.783897   4.0000  28.0855



 SCF PARAMETERS         Density guess:                                     MOPAC
                        --------------------------------------------------------
                        max_scf:                                             300
                        max_scf_history:                                       0
                        max_diis:                                              4
                        --------------------------------------------------------
                        eps_scf:                                        1.00E-10
                        eps_scf_history:                                0.00E+00
                        eps_diis:                                       1.00E-01
                        eps_eigval:                                     1.00E-05
                        --------------------------------------------------------
                        level_shift [a.u.]:                             0.000000
                        added MOs                                        14   -1
                        --------------------------------------------------------
                        Mixing method:                           DIRECT_P_MIXING
                        --------------------------------------------------------
                        Smear method:                                FERMI_DIRAC
                        Electronic temperature [K]:                        300.0
                        Electronic temperature [a.u.]:                  9.50E-04
                        Accuracy threshold:                             1.00E-10
                        --------------------------------------------------------
                        No outer SCF

 PW_GRID| Information for grid number                                          1
 PW_GRID| Cutoff [a.u.]                                                      1.0
 PW_GRID| spherical cutoff:                                                   NO
 PW_GRID|   Bounds   1             -2       1                Points:           4
 PW_GRID|   Bounds   2             -2       1                Points:           4
 PW_GRID|   Bounds   3             -2       1                Points:           4
 PW_GRID| Volume element (a.u.^3)   4.223         Volume (a.u.^3)       270.2564
 PW_GRID| Grid span                                                    FULLSPACE

 POISSON| Solver                                                        PERIODIC
 POISSON| Periodicity                                                        XYZ

 RS_GRID| Information for grid number                                          1
 RS_GRID|   Bounds   1             -2       1                Points:           4
 RS_GRID|   Bounds   2             -2       1                Points:           4
 RS_GRID|   Bounds   3             -2       1                Points:           4

 *******************************************************************************
  **                     Special K-Point Generation by SPGLIB                 **
 *******************************************************************************
 *******************************************************************************
  **                              Finished SPGLIB                             **
 *******************************************************************************

 Crystal Symmetry Information
       International Symbol:                                               Fd-3m
       Point Group Symbol:                                                  m-3m
       Schoenflies Symbol:                                                  Oh^7
       Number of Symmetry Operations:                                         48

 K-point Symmetry Information
       Number of Special K-points:                                             3
                   Wavevector Basis                                       Weight
          1   0.00000   0.00000   0.00000                                      1
          2   0.00000   0.00000   0.50000                                      4
          3   0.00000   0.50000   0.50000                                      3

       K-point Mesh:                                               2     2     2
                   Wavevector Basis                   Special Points    Rotation
          1   0.00000   0.00000   0.00000              1           1           1
          2   0.00000   0.00000   0.50000              2           2           1
          3   0.00000   0.50000   0.00000              2           2           4
          4   0.00000   0.50000   0.50000              4           3           1
          5   0.50000   0.00000   0.00000              2           2           2
          6   0.50000   0.00000   0.50000              4           3          22
          7   0.50000   0.50000   0.00000              4           3          15
          8   0.50000   0.50000   0.50000              2           2           3

       Atom Transformation Table
          Rot=    1     1    2
          Rot=    2     1    2
          Rot=    3     1    2
          Rot=    4     1    2
          Rot=    5     1    2
          Rot=    6     1    2
          Rot=    7     1    2
          Rot=    8     1    2
          Rot=    9     1    2
          Rot=   10     1    2
          Rot=   11     1    2
          Rot=   12     1    2
          Rot=   13     1    2
          Rot=   14     1    2
          Rot=   15     1    2
          Rot=   16     1    2
          Rot=   17     1    2
          Rot=   18     1    2
          Rot=   19     1    2
          Rot=   20     1    2
          Rot=   21     1    2
          Rot=   22     1    2
          Rot=   23     1    2
          Rot=   24     1    2
          Rot=   25     2    1
          Rot=   26     2    1
          Rot=   27     2    1
          Rot=   28     2    1
          Rot=   29     2    1
          Rot=   30     2    1
          Rot=   31     2    1
          Rot=   32     2    1
          Rot=   33     2    1
          Rot=   34     2    1
          Rot=   35     2    1
          Rot=   36     2    1
          Rot=   37     2    1
          Rot=   38     2    1
          Rot=   39     2    1
          Rot=   40     2    1
          Rot=   41     2    1
          Rot=   42     2    1
          Rot=   43     2    1
          Rot=   44     2    1
          Rot=   45     2    1
          Rot=   46     2    1
          Rot=   47     2    1
          Rot=   48     2    1

 *******************************************************************************
                                    Kpoints
 *******************************************************************************
 BRILLOUIN| K-point scheme                                             MacDonald
 BRILLOUIN| K-Point grid                                             2    2    2
 BRILLOUIN| K-Point shift                             0.2500    0.2500    0.2500
 BRILLOUIN| K-point symmetry accuracy                               0.100000E-07
 BRILLOUIN| K-Point point group symmetrization                                ON
 BRILLOUIN| Symmetry backend                                             SPGLIB
 BRILLOUIN| Symmetry reduction method                                    SPGLIB
 BRILLOUIN| Wavefunction type                                            COMPLEX
 BRILLOUIN| List of Kpoints [2 Pi/Bohr]                                        3
 BRILLOUIN| Number           Weight            X              Y              Z
 BRILLOUIN|     1           0.12500        0.00000        0.00000        0.00000
 BRILLOUIN|     2           0.50000        0.00000        0.00000        0.50000
 BRILLOUIN|     3           0.37500        0.00000        0.50000        0.50000
 *******************************************************************************

 *******************************************************************************
  **                     Special K-Point Generation by SPGLIB                 **
 *******************************************************************************
 *******************************************************************************
  **                              Finished SPGLIB                             **
 *******************************************************************************

 Crystal Symmetry Information
       International Symbol:                                               Fd-3m
       Point Group Symbol:                                                  m-3m
       Schoenflies Symbol:                                                  Oh^7
       Number of Symmetry Operations:                                         48

 K-point Symmetry Information
       Number of Special K-points:                                             3
                   Wavevector Basis                                       Weight
          1   0.00000   0.00000   0.00000                                      1
          2   0.00000   0.00000   0.50000                                      4
          3   0.00000   0.50000   0.50000                                      3

       K-point Mesh:                                               2     2     2
                   Wavevector Basis                   Special Points    Rotation
          1   0.00000   0.00000   0.00000              1           1           1
          2   0.00000   0.00000   0.50000              2           2           1
          3   0.00000   0.50000   0.00000              2           2           4
          4   0.00000   0.50000   0.50000              4           3           1
          5   0.50000   0.00000   0.00000              2           2           2
          6   0.50000   0.00000   0.50000              4           3          22
          7   0.50000   0.50000   0.00000              4           3          15
          8   0.50000   0.50000   0.50000              2           2           3

       Atom Transformation Table
          Rot=    1     1    2
          Rot=    2     1    2
          Rot=    3     1    2
          Rot=    4     1    2
          Rot=    5     1    2
          Rot=    6     1    2
          Rot=    7     1    2
          Rot=    8     1    2
          Rot=    9     1    2
          Rot=   10     1    2
          Rot=   11     1    2
          Rot=   12     1    2
          Rot=   13     1    2
          Rot=   14     1    2
          Rot=   15     1    2
          Rot=   16     1    2
          Rot=   17     1    2
          Rot=   18     1    2
          Rot=   19     1    2
          Rot=   20     1    2
          Rot=   21     1    2
          Rot=   22     1    2
          Rot=   23     1    2
          Rot=   24     1    2
          Rot=   25     2    1
          Rot=   26     2    1
          Rot=   27     2    1
          Rot=   28     2    1
          Rot=   29     2    1
          Rot=   30     2    1
          Rot=   31     2    1
          Rot=   32     2    1
          Rot=   33     2    1
          Rot=   34     2    1
          Rot=   35     2    1
          Rot=   36     2    1
          Rot=   37     2    1
          Rot=   38     2    1
          Rot=   39     2    1
          Rot=   40     2    1
          Rot=   41     2    1
          Rot=   42     2    1
          Rot=   43     2    1
          Rot=   44     2    1
          Rot=   45     2    1
          Rot=   46     2    1
          Rot=   47     2    1
          Rot=   48     2    1

 Extrapolation method: initial_guess

 Number of electrons:                                                          8
 Number of occupied orbitals:                                                  4
 Number of molecular orbitals:                                                18

 Number of orbital functions:                                                 18
 Number of independent orbital functions:                                     18


 SCF WAVEFUNCTION OPTIMIZATION

  Step     Update method      Time    Convergence         Total energy    Change
  ------------------------------------------------------------------------------
     1 GXTB-Raw    0.10E+01    0.7     0.63708787      -579.0056168886 -5.79E+02
     2 GXTB-Simple 0.20E+00    0.7     0.02308957      -579.0230925670 -1.75E-02
     3 GXTB-Simple 0.20E+00    0.7     0.02025226      -579.0333672865 -1.03E-02
     4 GXTB-FDIIS  0.10E+01    0.7     0.11390552      -579.0507816721 -1.74E-02
     5 GXTB-FDIIS  0.10E+01    0.8     0.01026451      -579.0508315143 -4.98E-05
     6 GXTB-FDIIS  0.10E+01    0.7     0.00678068      -579.0508384822 -6.97E-06
     7 GXTB-FDIIS  0.10E+01    0.7     0.00019990      -579.0508385535 -7.13E-08
     8 GXTB-FDIIS  0.10E+01    0.7     0.00002193      -579.0508385538 -2.97E-10
     9 GXTB-FDIIS  0.10E+01    0.7     0.00000243      -579.0508385538 -2.05E-12
    10 GXTB-FDIIS  0.10E+01    0.7     0.00000017      -579.0508385538  1.14E-13
    11 GXTB-FDIIS  0.10E+01    0.7     1.5519E-09      -579.0508385538  1.14E-13
    12 GXTB-FDIIS  0.10E+01    0.7     1.0825E-10      -579.0508385538 -1.14E-13
    13 GXTB-FDIIS  0.10E+01    0.7     7.3749E-13      -579.0508385538  0.00E+00

  *** SCF run converged in    13 steps ***


  Core Hamiltonian energy:                                     -2.74936445335307
  Repulsive potential energy:                                   0.28052169269639
  Electrostatic energy:                                         0.02945444009447
  Self-consistent dispersion energy:                           -0.01740534592769
  Non-self consistent dispersion energy:                        0.00476636229403
  Correction for halogen bonding:                               0.00000000000000
  Electronic entropic energy:                                  -0.00000000000000
  Fermi energy:                                                -0.20960664029527

  Total energy:                                              -579.05083855381713
  Total energy (extrapolated to T->0):                       -579.05083855381713


 MULLIKEN POPULATION ANALYSIS

  # Atom   Element   Kind        Atomic population                    Net charge
       1     Si         1                 4.000000                      0.000000
       2     Si         1                 4.000000                      0.000000
 # Total charge                           8.000000                      0.000000


 ENERGY| Total FORCE_EVAL ( QS ) energy [hartree]           -579.050838553817130

 FORCES| Atomic forces [hartree/bohr]
 FORCES|   Atom     x               y               z               |f|
 FORCES|      1  1.09010741E-16  3.17923431E-16 -3.00520980E-17   3.37434110E-16
 FORCES|      2 -1.08598132E-16 -3.17931454E-16  3.05716082E-17   3.37355283E-16
 FORCES| Sum     4.12609909E-19 -8.02348200E-21  5.19510257E-19
 FORCES| Total atomic force                                       6.63477370E-19

 STRESS| Stress tensor components (GPW/GAPW) [bar]
 STRESS|                                           1/3 Trace         Determinant
 STRESS| Overlap                           0.00000000000E+00   0.00000000000E+00
 STRESS| Kinetic energy                    0.00000000000E+00   0.00000000000E+00
 STRESS| Local pseudopotential/core        0.00000000000E+00   0.00000000000E+00
 STRESS| Nonlocal pseudopotential          0.00000000000E+00   0.00000000000E+00
 STRESS| Core charge overlap               0.00000000000E+00   0.00000000000E+00
 STRESS| Hartree                           0.00000000000E+00   0.00000000000E+00
 STRESS| Exchange-correlation              0.00000000000E+00   0.00000000000E+00
 STRESS| Exact exchange (EXX)              0.00000000000E+00   0.00000000000E+00
 STRESS| vdW correction                    0.00000000000E+00   0.00000000000E+00
 STRESS| Moller-Plesset (MP2)              0.00000000000E+00   0.00000000000E+00
 STRESS| Nonlinear core correction (NLCC)  0.00000000000E+00   0.00000000000E+00
 STRESS| Local atomic parts (GAPW)         0.00000000000E+00   0.00000000000E+00
 STRESS| Resolution-of-the-identity (LRI)  0.00000000000E+00   0.00000000000E+00
 STRESS| Sum of components                 0.00000000000E+00   0.00000000000E+00
 STRESS| Total                            -1.12723753999E+05  -1.43234069306E+15

 STRESS| Analytical stress tensor [bar]
 STRESS|                        x                   y                   z
 STRESS|      x       -1.12723753999E+05  -3.54934117281E-10   2.64863490354E-10
 STRESS|      y       -3.54934117281E-10  -1.12723753999E+05   1.09085329955E-11
 STRESS|      z        2.64863490354E-10   1.09085329955E-11  -1.12723753999E+05
 STRESS| 1/3 Trace                                            -1.12723753999E+05
 STRESS| Determinant                                          -1.43234069306E+15

 STRESS| Eigenvectors and eigenvalues of the analytical stress tensor [bar]
 STRESS|                        1                   2                   3
 STRESS| Eigenvalues  -1.12723753999E+05  -1.12723753999E+05  -1.12723753999E+05
 STRESS|      x           1.000000000000      0.000000000000      0.000000000000
 STRESS|      y           0.000000000000      1.000000000000      0.000000000000
 STRESS|      z           0.000000000000      0.000000000000      1.000000000000

 **************************** NUMERICAL STRESS ********************************


 *******************************************************************************
  **                     Special K-Point Generation by SPGLIB                 **
 *******************************************************************************
 *******************************************************************************
  **                              Finished SPGLIB                             **
 *******************************************************************************

 Crystal Symmetry Information
       International Symbol:                                                C2/m
       Point Group Symbol:                                                   2/m
       Schoenflies Symbol:                                                 C2h^3
       Number of Symmetry Operations:                                          4

 K-point Symmetry Information
       Number of Special K-points:                                             6
                   Wavevector Basis                                       Weight
          1   0.00000   0.00000   0.00000                                      1
          2   0.00000   0.00000   0.50000                                      2
          3   0.00000   0.50000   0.50000                                      1
          4   0.50000   0.00000   0.00000                                      1
          5   0.50000   0.00000   0.50000                                      2
          6   0.50000   0.50000   0.50000                                      1

       K-point Mesh:                                               2     2     2
                   Wavevector Basis                   Special Points    Rotation
          1   0.00000   0.00000   0.00000              1           1           1
          2   0.00000   0.00000   0.50000              2           2           1
          3   0.00000   0.50000   0.00000              2           2           2
          4   0.00000   0.50000   0.50000              4           3           1
          5   0.50000   0.00000   0.00000              5           4           1
          6   0.50000   0.00000   0.50000              6           5           1
          7   0.50000   0.50000   0.00000              6           5           2
          8   0.50000   0.50000   0.50000              8           6           1

       Atom Transformation Table
          Rot=    1     1    2
          Rot=    2     1    2
          Rot=    3     2    1
          Rot=    4     2    1

 -------------------------------------------------------------------------------
 ----                             MULTIGRID INFO                            ----
 -------------------------------------------------------------------------------
 total grid count     :           132              cutoff [a.u.]            1.00

 PW_GRID| Information for grid number                                          2
 PW_GRID| Cutoff [a.u.]                                                      1.0
 PW_GRID| spherical cutoff:                                                   NO
 PW_GRID|   Bounds   1             -2       1                Points:           4
 PW_GRID|   Bounds   2             -2       1                Points:           4
 PW_GRID|   Bounds   3             -2       1                Points:           4
 PW_GRID| Volume element (a.u.^3)   4.223         Volume (a.u.^3)       270.2601
 PW_GRID| Grid span                                                    FULLSPACE

 POISSON| Solver                                                        PERIODIC
 POISSON| Periodicity                                                        XYZ

 RS_GRID| Information for grid number                                          2
 RS_GRID|   Bounds   1             -2       1                Points:           4
 RS_GRID|   Bounds   2             -2       1                Points:           4
 RS_GRID|   Bounds   3             -2       1                Points:           4

 Extrapolation method: initial_guess

 Number of electrons:                                                          8
 Number of occupied orbitals:                                                  4
 Number of molecular orbitals:                                                18

 Number of orbital functions:                                                 18
 Number of independent orbital functions:                                     18


 SCF WAVEFUNCTION OPTIMIZATION

  Step     Update method      Time    Convergence         Total energy    Change
  ------------------------------------------------------------------------------
     1 GXTB-Raw    0.10E+01    0.7     0.63708957      -579.0056156995 -5.79E+02
     2 GXTB-Simple 0.20E+00    0.8     0.02308991      -579.0230913039 -1.75E-02
     3 GXTB-Simple 0.20E+00    0.8     0.02025257      -579.0333659646 -1.03E-02
     4 GXTB-FDIIS  0.10E+01    0.8     0.11390757      -579.0507802422 -1.74E-02
     5 GXTB-FDIIS  0.10E+01    0.8     0.01026493      -579.0508300868 -4.98E-05
     6 GXTB-FDIIS  0.10E+01    0.8     0.00678091      -579.0508370551 -6.97E-06
     7 GXTB-FDIIS  0.10E+01    0.8     0.00019990      -579.0508371264 -7.13E-08
     8 GXTB-FDIIS  0.10E+01    0.8     0.00002193      -579.0508371267 -2.97E-10
     9 GXTB-FDIIS  0.10E+01    0.8     0.00000243      -579.0508371267 -1.93E-12
    10 GXTB-FDIIS  0.10E+01    0.8     0.00000017      -579.0508371267  0.00E+00
    11 GXTB-FDIIS  0.10E+01    0.8     1.5522E-09      -579.0508371267  0.00E+00
    12 GXTB-FDIIS  0.10E+01    0.8     1.0849E-10      -579.0508371267  0.00E+00
    13 GXTB-FDIIS  0.10E+01    0.8     6.4982E-12      -579.0508371267  0.00E+00

  *** SCF run converged in    13 steps ***


  Core Hamiltonian energy:                                     -2.74936256726536
  Repulsive potential energy:                                   0.28051247953146
  Electrostatic energy:                                         0.02945379592250
  Self-consistent dispersion energy:                           -0.01740519117967
  Non-self consistent dispersion energy:                        0.00476627294029
  Correction for halogen bonding:                               0.00000000000000
  Electronic entropic energy:                                  -0.00000000000000
  Fermi energy:                                                -0.20960316735668

  Total energy:                                              -579.05083712670694
  Total energy (extrapolated to T->0):                       -579.05083712670694


 MULLIKEN POPULATION ANALYSIS

  # Atom   Element   Kind        Atomic population                    Net charge
       1     Si         1                 4.000000                      0.000000
       2     Si         1                 4.000000                      0.000000
 # Total charge                           8.000000                      0.000000


 ENERGY| Total FORCE_EVAL ( QS ) energy [hartree]           -579.050837126706938

 *******************************************************************************
  **                     Special K-Point Generation by SPGLIB                 **
 *******************************************************************************
 *******************************************************************************
  **                              Finished SPGLIB                             **
 *******************************************************************************

 Crystal Symmetry Information
       International Symbol:                                                C2/m
       Point Group Symbol:                                                   2/m
       Schoenflies Symbol:                                                 C2h^3
       Number of Symmetry Operations:                                          4

 K-point Symmetry Information
       Number of Special K-points:                                             6
                   Wavevector Basis                                       Weight
          1   0.00000   0.00000   0.00000                                      1
          2   0.00000   0.00000   0.50000                                      2
          3   0.00000   0.50000   0.50000                                      1
          4   0.50000   0.00000   0.00000                                      1
          5   0.50000   0.00000   0.50000                                      2
          6   0.50000   0.50000   0.50000                                      1

       K-point Mesh:                                               2     2     2
                   Wavevector Basis                   Special Points    Rotation
          1   0.00000   0.00000   0.00000              1           1           1
          2   0.00000   0.00000   0.50000              2           2           1
          3   0.00000   0.50000   0.00000              2           2           2
          4   0.00000   0.50000   0.50000              4           3           1
          5   0.50000   0.00000   0.00000              5           4           1
          6   0.50000   0.00000   0.50000              6           5           1
          7   0.50000   0.50000   0.00000              6           5           2
          8   0.50000   0.50000   0.50000              8           6           1

       Atom Transformation Table
          Rot=    1     1    2
          Rot=    2     1    2
          Rot=    3     2    1
          Rot=    4     2    1

 -------------------------------------------------------------------------------
 ----                             MULTIGRID INFO                            ----
 -------------------------------------------------------------------------------
 total grid count     :           132              cutoff [a.u.]            1.00

 PW_GRID| Information for grid number                                          3
 PW_GRID| Cutoff [a.u.]                                                      1.0
 PW_GRID| spherical cutoff:                                                   NO
 PW_GRID|   Bounds   1             -2       1                Points:           4
 PW_GRID|   Bounds   2             -2       1                Points:           4
 PW_GRID|   Bounds   3             -2       1                Points:           4
 PW_GRID| Volume element (a.u.^3)   4.223         Volume (a.u.^3)       270.2527
 PW_GRID| Grid span                                                    FULLSPACE

 POISSON| Solver                                                        PERIODIC
 POISSON| Periodicity                                                        XYZ

 RS_GRID| Information for grid number                                          3
 RS_GRID|   Bounds   1             -2       1                Points:           4
 RS_GRID|   Bounds   2             -2       1                Points:           4
 RS_GRID|   Bounds   3             -2       1                Points:           4

 Extrapolation method: initial_guess

 Number of electrons:                                                          8
 Number of occupied orbitals:                                                  4
 Number of molecular orbitals:                                                18

 Number of orbital functions:                                                 18
 Number of independent orbital functions:                                     18


 SCF WAVEFUNCTION OPTIMIZATION

  Step     Update method      Time    Convergence         Total energy    Change
  ------------------------------------------------------------------------------
     1 GXTB-Raw    0.10E+01    0.7     0.63709095      -579.0056180772 -5.79E+02
     2 GXTB-Simple 0.20E+00    0.8     0.02308922      -579.0230938296 -1.75E-02
     3 GXTB-Simple 0.20E+00    0.8     0.02025195      -579.0333686077 -1.03E-02
     4 GXTB-FDIIS  0.10E+01    0.8     0.11390347      -579.0507831016 -1.74E-02
     5 GXTB-FDIIS  0.10E+01    0.8     0.01026410      -579.0508329412 -4.98E-05
     6 GXTB-FDIIS  0.10E+01    0.8     0.00678044      -579.0508399088 -6.97E-06
     7 GXTB-FDIIS  0.10E+01    0.8     0.00019989      -579.0508399801 -7.13E-08
     8 GXTB-FDIIS  0.10E+01    0.8     0.00002192      -579.0508399804 -2.97E-10
     9 GXTB-FDIIS  0.10E+01    0.8     0.00000243      -579.0508399804 -1.82E-12
    10 GXTB-FDIIS  0.10E+01    0.8     0.00000017      -579.0508399804  0.00E+00
    11 GXTB-FDIIS  0.10E+01    0.8     1.5518E-09      -579.0508399804 -1.14E-13
    12 GXTB-FDIIS  0.10E+01    0.8     1.0847E-10      -579.0508399804  1.14E-13
    13 GXTB-FDIIS  0.10E+01    0.8     5.6853E-12      -579.0508399804 -1.14E-13

  *** SCF run converged in    13 steps ***


  Core Hamiltonian energy:                                     -2.74936633919659
  Repulsive potential energy:                                   0.28053090650591
  Electrostatic energy:                                         0.02945508425191
  Self-consistent dispersion energy:                           -0.01740550068180
  Non-self consistent dispersion energy:                        0.00476645165318
  Correction for halogen bonding:                               0.00000000000000
  Electronic entropic energy:                                  -0.00000000000000
  Fermi energy:                                                -0.20958248696441

  Total energy:                                              -579.05083998035366
  Total energy (extrapolated to T->0):                       -579.05083998035366


 MULLIKEN POPULATION ANALYSIS

  # Atom   Element   Kind        Atomic population                    Net charge
       1     Si         1                 4.000000                     -0.000000
       2     Si         1                 4.000000                     -0.000000
 # Total charge                           8.000000                     -0.000000


 ENERGY| Total FORCE_EVAL ( QS ) energy [hartree]           -579.050839980353658

 DEBUG|           E(xx + 0.0001)           E(xx - 0.0001)           f(numerical)
 DEBUG|            -579.05083713            -579.05083998             0.01426823

 *******************************************************************************
  **                     Special K-Point Generation by SPGLIB                 **
 *******************************************************************************
 *******************************************************************************
  **                              Finished SPGLIB                             **
 *******************************************************************************

 Crystal Symmetry Information
       International Symbol:                                                 P-1
       Point Group Symbol:                                                    -1
       Schoenflies Symbol:                                                  Ci^1
       Number of Symmetry Operations:                                          2

 K-point Symmetry Information
       Number of Special K-points:                                             8
                   Wavevector Basis                                       Weight
          1   0.00000   0.00000   0.00000                                      1
          2   0.00000   0.00000   0.50000                                      1
          3   0.00000   0.50000   0.00000                                      1
          4   0.00000   0.50000   0.50000                                      1
          5   0.50000   0.00000   0.00000                                      1
          6   0.50000   0.00000   0.50000                                      1
          7   0.50000   0.50000   0.00000                                      1
          8   0.50000   0.50000   0.50000                                      1

       K-point Mesh:                                               2     2     2
                   Wavevector Basis                   Special Points    Rotation
          1   0.00000   0.00000   0.00000              1           1           1
          2   0.00000   0.00000   0.50000              2           2           1
          3   0.00000   0.50000   0.00000              3           3           1
          4   0.00000   0.50000   0.50000              4           4           1
          5   0.50000   0.00000   0.00000              5           5           1
          6   0.50000   0.00000   0.50000              6           6           1
          7   0.50000   0.50000   0.00000              7           7           1
          8   0.50000   0.50000   0.50000              8           8           1

       Atom Transformation Table
          Rot=    1     1    2
          Rot=    2     2    1

 -------------------------------------------------------------------------------
 ----                             MULTIGRID INFO                            ----
 -------------------------------------------------------------------------------
 total grid count     :           132              cutoff [a.u.]            1.00

 PW_GRID| Information for grid number                                          4
 PW_GRID| Cutoff [a.u.]                                                      1.0
 PW_GRID| spherical cutoff:                                                   NO
 PW_GRID|   Bounds   1             -2       1                Points:           4
 PW_GRID|   Bounds   2             -2       1                Points:           4
 PW_GRID|   Bounds   3             -2       1                Points:           4
 PW_GRID| Volume element (a.u.^3)   4.223         Volume (a.u.^3)       270.2564
 PW_GRID| Grid span                                                    FULLSPACE

 POISSON| Solver                                                        PERIODIC
 POISSON| Periodicity                                                        XYZ

 RS_GRID| Information for grid number                                          4
 RS_GRID|   Bounds   1             -2       1                Points:           4
 RS_GRID|   Bounds   2             -2       1                Points:           4
 RS_GRID|   Bounds   3             -2       1                Points:           4

 Extrapolation method: initial_guess

 Number of electrons:                                                          8
 Number of occupied orbitals:                                                  4
 Number of molecular orbitals:                                                18

 Number of orbital functions:                                                 18
 Number of independent orbital functions:                                     18


 SCF WAVEFUNCTION OPTIMIZATION

  Step     Update method      Time    Convergence         Total energy    Change
  ------------------------------------------------------------------------------
     1 GXTB-Raw    0.10E+01    0.8     0.63708787      -579.0056168885 -5.79E+02
     2 GXTB-Simple 0.20E+00    0.9     0.02308957      -579.0230925669 -1.75E-02
     3 GXTB-Simple 0.20E+00    0.8     0.02025226      -579.0333672863 -1.03E-02
     4 GXTB-FDIIS  0.10E+01    0.8     0.11390552      -579.0507816720 -1.74E-02
     5 GXTB-FDIIS  0.10E+01    0.8     0.01026451      -579.0508315142 -4.98E-05
     6 GXTB-FDIIS  0.10E+01    0.9     0.00678068      -579.0508384821 -6.97E-06
     7 GXTB-FDIIS  0.10E+01    0.8     0.00019990      -579.0508385534 -7.13E-08
     8 GXTB-FDIIS  0.10E+01    0.8     0.00002193      -579.0508385537 -2.96E-10
     9 GXTB-FDIIS  0.10E+01    0.8     0.00000243      -579.0508385537 -1.82E-12
    10 GXTB-FDIIS  0.10E+01    0.9     0.00000017      -579.0508385537  0.00E+00
    11 GXTB-FDIIS  0.10E+01    0.9     1.5519E-09      -579.0508385537 -1.14E-13
    12 GXTB-FDIIS  0.10E+01    0.9     1.0833E-10      -579.0508385537  0.00E+00
    13 GXTB-FDIIS  0.10E+01    0.9     4.4847E-12      -579.0508385537  0.00E+00

  *** SCF run converged in    13 steps ***


  Core Hamiltonian energy:                                     -2.74936445323754
  Repulsive potential energy:                                   0.28052169268997
  Electrostatic energy:                                         0.02945444008974
  Self-consistent dispersion energy:                           -0.01740534592788
  Non-self consistent dispersion energy:                        0.00476636229421
  Correction for halogen bonding:                               0.00000000000000
  Electronic entropic energy:                                  -0.00000000000000
  Fermi energy:                                                -0.20959814090367

  Total energy:                                              -579.05083855367491
  Total energy (extrapolated to T->0):                       -579.05083855367491


 MULLIKEN POPULATION ANALYSIS

  # Atom   Element   Kind        Atomic population                    Net charge
       1     Si         1                 4.000000                     -0.000000
       2     Si         1                 4.000000                     -0.000000
 # Total charge                           8.000000                     -0.000000


 ENERGY| Total FORCE_EVAL ( QS ) energy [hartree]           -579.050838553674907

 *******************************************************************************
  **                     Special K-Point Generation by SPGLIB                 **
 *******************************************************************************
 *******************************************************************************
  **                              Finished SPGLIB                             **
 *******************************************************************************

 Crystal Symmetry Information
       International Symbol:                                                 P-1
       Point Group Symbol:                                                    -1
       Schoenflies Symbol:                                                  Ci^1
       Number of Symmetry Operations:                                          2

 K-point Symmetry Information
       Number of Special K-points:                                             8
                   Wavevector Basis                                       Weight
          1   0.00000   0.00000   0.00000                                      1
          2   0.00000   0.00000   0.50000                                      1
          3   0.00000   0.50000   0.00000                                      1
          4   0.00000   0.50000   0.50000                                      1
          5   0.50000   0.00000   0.00000                                      1
          6   0.50000   0.00000   0.50000                                      1
          7   0.50000   0.50000   0.00000                                      1
          8   0.50000   0.50000   0.50000                                      1

       K-point Mesh:                                               2     2     2
                   Wavevector Basis                   Special Points    Rotation
          1   0.00000   0.00000   0.00000              1           1           1
          2   0.00000   0.00000   0.50000              2           2           1
          3   0.00000   0.50000   0.00000              3           3           1
          4   0.00000   0.50000   0.50000              4           4           1
          5   0.50000   0.00000   0.00000              5           5           1
          6   0.50000   0.00000   0.50000              6           6           1
          7   0.50000   0.50000   0.00000              7           7           1
          8   0.50000   0.50000   0.50000              8           8           1

       Atom Transformation Table
          Rot=    1     1    2
          Rot=    2     2    1

 -------------------------------------------------------------------------------
 ----                             MULTIGRID INFO                            ----
 -------------------------------------------------------------------------------
 total grid count     :           132              cutoff [a.u.]            1.00

 PW_GRID| Information for grid number                                          5
 PW_GRID| Cutoff [a.u.]                                                      1.0
 PW_GRID| spherical cutoff:                                                   NO
 PW_GRID|   Bounds   1             -2       1                Points:           4
 PW_GRID|   Bounds   2             -2       1                Points:           4
 PW_GRID|   Bounds   3             -2       1                Points:           4
 PW_GRID| Volume element (a.u.^3)   4.223         Volume (a.u.^3)       270.2564
 PW_GRID| Grid span                                                    FULLSPACE

 POISSON| Solver                                                        PERIODIC
 POISSON| Periodicity                                                        XYZ

 RS_GRID| Information for grid number                                          5
 RS_GRID|   Bounds   1             -2       1                Points:           4
 RS_GRID|   Bounds   2             -2       1                Points:           4
 RS_GRID|   Bounds   3             -2       1                Points:           4

 Extrapolation method: initial_guess

 Number of electrons:                                                          8
 Number of occupied orbitals:                                                  4
 Number of molecular orbitals:                                                18

 Number of orbital functions:                                                 18
 Number of independent orbital functions:                                     18


 SCF WAVEFUNCTION OPTIMIZATION

  Step     Update method      Time    Convergence         Total energy    Change
  ------------------------------------------------------------------------------
     1 GXTB-Raw    0.10E+01    0.8     0.63708787      -579.0056168885 -5.79E+02
     2 GXTB-Simple 0.20E+00    0.9     0.02308957      -579.0230925669 -1.75E-02
     3 GXTB-Simple 0.20E+00    0.9     0.02025226      -579.0333672863 -1.03E-02
     4 GXTB-FDIIS  0.10E+01    0.9     0.11390552      -579.0507816720 -1.74E-02
     5 GXTB-FDIIS  0.10E+01    0.9     0.01026451      -579.0508315142 -4.98E-05
     6 GXTB-FDIIS  0.10E+01    0.9     0.00678068      -579.0508384821 -6.97E-06
     7 GXTB-FDIIS  0.10E+01    0.9     0.00019990      -579.0508385534 -7.13E-08
     8 GXTB-FDIIS  0.10E+01    0.9     0.00002193      -579.0508385537 -2.96E-10
     9 GXTB-FDIIS  0.10E+01    0.9     0.00000243      -579.0508385537 -1.82E-12
    10 GXTB-FDIIS  0.10E+01    0.9     0.00000017      -579.0508385537  0.00E+00
    11 GXTB-FDIIS  0.10E+01    0.8     1.5519E-09      -579.0508385537 -1.14E-13
    12 GXTB-FDIIS  0.10E+01    0.8     1.0833E-10      -579.0508385537  0.00E+00
    13 GXTB-FDIIS  0.10E+01    0.9     4.4848E-12      -579.0508385537  0.00E+00

  *** SCF run converged in    13 steps ***


  Core Hamiltonian energy:                                     -2.74936445323754
  Repulsive potential energy:                                   0.28052169268997
  Electrostatic energy:                                         0.02945444008974
  Self-consistent dispersion energy:                           -0.01740534592788
  Non-self consistent dispersion energy:                        0.00476636229421
  Correction for halogen bonding:                               0.00000000000000
  Electronic entropic energy:                                  -0.00000000000000
  Fermi energy:                                                -0.20959814090367

  Total energy:                                              -579.05083855367491
  Total energy (extrapolated to T->0):                       -579.05083855367491


 MULLIKEN POPULATION ANALYSIS

  # Atom   Element   Kind        Atomic population                    Net charge
       1     Si         1                 4.000000                      0.000000
       2     Si         1                 4.000000                      0.000000
 # Total charge                           8.000000                      0.000000


 ENERGY| Total FORCE_EVAL ( QS ) energy [hartree]           -579.050838553674907

 DEBUG|           E(xy + 0.0001)           E(xy - 0.0001)           f(numerical)
 DEBUG|            -579.05083855            -579.05083855             0.00000000

 *******************************************************************************
  **                     Special K-Point Generation by SPGLIB                 **
 *******************************************************************************
 *******************************************************************************
  **                              Finished SPGLIB                             **
 *******************************************************************************

 Crystal Symmetry Information
       International Symbol:                                                 P-1
       Point Group Symbol:                                                    -1
       Schoenflies Symbol:                                                  Ci^1
       Number of Symmetry Operations:                                          2

 K-point Symmetry Information
       Number of Special K-points:                                             8
                   Wavevector Basis                                       Weight
          1   0.00000   0.00000   0.00000                                      1
          2   0.00000   0.00000   0.50000                                      1
          3   0.00000   0.50000   0.00000                                      1
          4   0.00000   0.50000   0.50000                                      1
          5   0.50000   0.00000   0.00000                                      1
          6   0.50000   0.00000   0.50000                                      1
          7   0.50000   0.50000   0.00000                                      1
          8   0.50000   0.50000   0.50000                                      1

       K-point Mesh:                                               2     2     2
                   Wavevector Basis                   Special Points    Rotation
          1   0.00000   0.00000   0.00000              1           1           1
          2   0.00000   0.00000   0.50000              2           2           1
          3   0.00000   0.50000   0.00000              3           3           1
          4   0.00000   0.50000   0.50000              4           4           1
          5   0.50000   0.00000   0.00000              5           5           1
          6   0.50000   0.00000   0.50000              6           6           1
          7   0.50000   0.50000   0.00000              7           7           1
          8   0.50000   0.50000   0.50000              8           8           1

       Atom Transformation Table
          Rot=    1     1    2
          Rot=    2     2    1

 -------------------------------------------------------------------------------
 ----                             MULTIGRID INFO                            ----
 -------------------------------------------------------------------------------
 total grid count     :           132              cutoff [a.u.]            1.00

 PW_GRID| Information for grid number                                          6
 PW_GRID| Cutoff [a.u.]                                                      1.0
 PW_GRID| spherical cutoff:                                                   NO
 PW_GRID|   Bounds   1             -2       1                Points:           4
 PW_GRID|   Bounds   2             -2       1                Points:           4
 PW_GRID|   Bounds   3             -2       1                Points:           4
 PW_GRID| Volume element (a.u.^3)   4.223         Volume (a.u.^3)       270.2564
 PW_GRID| Grid span                                                    FULLSPACE

 POISSON| Solver                                                        PERIODIC
 POISSON| Periodicity                                                        XYZ

 RS_GRID| Information for grid number                                          6
 RS_GRID|   Bounds   1             -2       1                Points:           4
 RS_GRID|   Bounds   2             -2       1                Points:           4
 RS_GRID|   Bounds   3             -2       1                Points:           4

 Extrapolation method: initial_guess

 Number of electrons:                                                          8
 Number of occupied orbitals:                                                  4
 Number of molecular orbitals:                                                18

 Number of orbital functions:                                                 18
 Number of independent orbital functions:                                     18


 SCF WAVEFUNCTION OPTIMIZATION

  Step     Update method      Time    Convergence         Total energy    Change
  ------------------------------------------------------------------------------
     1 GXTB-Raw    0.10E+01    0.8     0.63708787      -579.0056168885 -5.79E+02
     2 GXTB-Simple 0.20E+00    0.9     0.02308957      -579.0230925669 -1.75E-02
     3 GXTB-Simple 0.20E+00    0.9     0.02025226      -579.0333672863 -1.03E-02
     4 GXTB-FDIIS  0.10E+01    0.8     0.11390552      -579.0507816720 -1.74E-02
     5 GXTB-FDIIS  0.10E+01    0.8     0.01026451      -579.0508315142 -4.98E-05
     6 GXTB-FDIIS  0.10E+01    0.8     0.00678068      -579.0508384821 -6.97E-06
     7 GXTB-FDIIS  0.10E+01    0.9     0.00019990      -579.0508385534 -7.13E-08
     8 GXTB-FDIIS  0.10E+01    0.8     0.00002193      -579.0508385537 -2.96E-10
     9 GXTB-FDIIS  0.10E+01    0.8     0.00000243      -579.0508385537 -1.82E-12
    10 GXTB-FDIIS  0.10E+01    0.8     0.00000017      -579.0508385537  0.00E+00
    11 GXTB-FDIIS  0.10E+01    0.9     1.5519E-09      -579.0508385537 -1.14E-13
    12 GXTB-FDIIS  0.10E+01    0.8     1.0833E-10      -579.0508385537  0.00E+00
    13 GXTB-FDIIS  0.10E+01    0.8     4.4852E-12      -579.0508385537  0.00E+00

  *** SCF run converged in    13 steps ***


  Core Hamiltonian energy:                                     -2.74936445323754
  Repulsive potential energy:                                   0.28052169268997
  Electrostatic energy:                                         0.02945444008974
  Self-consistent dispersion energy:                           -0.01740534592788
  Non-self consistent dispersion energy:                        0.00476636229421
  Correction for halogen bonding:                               0.00000000000000
  Electronic entropic energy:                                  -0.00000000000000
  Fermi energy:                                                -0.20959814090367

  Total energy:                                              -579.05083855367491
  Total energy (extrapolated to T->0):                       -579.05083855367491


 MULLIKEN POPULATION ANALYSIS

  # Atom   Element   Kind        Atomic population                    Net charge
       1     Si         1                 4.000000                      0.000000
       2     Si         1                 4.000000                      0.000000
 # Total charge                           8.000000                      0.000000


 ENERGY| Total FORCE_EVAL ( QS ) energy [hartree]           -579.050838553674907

 *******************************************************************************
  **                     Special K-Point Generation by SPGLIB                 **
 *******************************************************************************
 *******************************************************************************
  **                              Finished SPGLIB                             **
 *******************************************************************************

 Crystal Symmetry Information
       International Symbol:                                                 P-1
       Point Group Symbol:                                                    -1
       Schoenflies Symbol:                                                  Ci^1
       Number of Symmetry Operations:                                          2

 K-point Symmetry Information
       Number of Special K-points:                                             8
                   Wavevector Basis                                       Weight
          1   0.00000   0.00000   0.00000                                      1
          2   0.00000   0.00000   0.50000                                      1
          3   0.00000   0.50000   0.00000                                      1
          4   0.00000   0.50000   0.50000                                      1
          5   0.50000   0.00000   0.00000                                      1
          6   0.50000   0.00000   0.50000                                      1
          7   0.50000   0.50000   0.00000                                      1
          8   0.50000   0.50000   0.50000                                      1

       K-point Mesh:                                               2     2     2
                   Wavevector Basis                   Special Points    Rotation
          1   0.00000   0.00000   0.00000              1           1           1
          2   0.00000   0.00000   0.50000              2           2           1
          3   0.00000   0.50000   0.00000              3           3           1
          4   0.00000   0.50000   0.50000              4           4           1
          5   0.50000   0.00000   0.00000              5           5           1
          6   0.50000   0.00000   0.50000              6           6           1
          7   0.50000   0.50000   0.00000              7           7           1
          8   0.50000   0.50000   0.50000              8           8           1

       Atom Transformation Table
          Rot=    1     1    2
          Rot=    2     2    1

 -------------------------------------------------------------------------------
 ----                             MULTIGRID INFO                            ----
 -------------------------------------------------------------------------------
 total grid count     :           132              cutoff [a.u.]            1.00

 PW_GRID| Information for grid number                                          7
 PW_GRID| Cutoff [a.u.]                                                      1.0
 PW_GRID| spherical cutoff:                                                   NO
 PW_GRID|   Bounds   1             -2       1                Points:           4
 PW_GRID|   Bounds   2             -2       1                Points:           4
 PW_GRID|   Bounds   3             -2       1                Points:           4
 PW_GRID| Volume element (a.u.^3)   4.223         Volume (a.u.^3)       270.2564
 PW_GRID| Grid span                                                    FULLSPACE

 POISSON| Solver                                                        PERIODIC
 POISSON| Periodicity                                                        XYZ

 RS_GRID| Information for grid number                                          7
 RS_GRID|   Bounds   1             -2       1                Points:           4
 RS_GRID|   Bounds   2             -2       1                Points:           4
 RS_GRID|   Bounds   3             -2       1                Points:           4

 Extrapolation method: initial_guess

 Number of electrons:                                                          8
 Number of occupied orbitals:                                                  4
 Number of molecular orbitals:                                                18

 Number of orbital functions:                                                 18
 Number of independent orbital functions:                                     18


 SCF WAVEFUNCTION OPTIMIZATION

  Step     Update method      Time    Convergence         Total energy    Change
  ------------------------------------------------------------------------------
     1 GXTB-Raw    0.10E+01    0.8     0.63708787      -579.0056168885 -5.79E+02
     2 GXTB-Simple 0.20E+00    0.9     0.02308957      -579.0230925669 -1.75E-02
     3 GXTB-Simple 0.20E+00    0.8     0.02025226      -579.0333672863 -1.03E-02
     4 GXTB-FDIIS  0.10E+01    0.8     0.11390552      -579.0507816720 -1.74E-02
     5 GXTB-FDIIS  0.10E+01    0.8     0.01026451      -579.0508315142 -4.98E-05
     6 GXTB-FDIIS  0.10E+01    0.8     0.00678068      -579.0508384821 -6.97E-06
     7 GXTB-FDIIS  0.10E+01    0.8     0.00019990      -579.0508385534 -7.13E-08
     8 GXTB-FDIIS  0.10E+01    0.8     0.00002193      -579.0508385537 -2.96E-10
     9 GXTB-FDIIS  0.10E+01    0.8     0.00000243      -579.0508385537 -1.82E-12
    10 GXTB-FDIIS  0.10E+01    0.8     0.00000017      -579.0508385537  0.00E+00
    11 GXTB-FDIIS  0.10E+01    0.8     1.5519E-09      -579.0508385537 -1.14E-13
    12 GXTB-FDIIS  0.10E+01    0.8     1.0833E-10      -579.0508385537  0.00E+00
    13 GXTB-FDIIS  0.10E+01    0.8     4.4850E-12      -579.0508385537  0.00E+00

  *** SCF run converged in    13 steps ***


  Core Hamiltonian energy:                                     -2.74936445323754
  Repulsive potential energy:                                   0.28052169268997
  Electrostatic energy:                                         0.02945444008974
  Self-consistent dispersion energy:                           -0.01740534592788
  Non-self consistent dispersion energy:                        0.00476636229421
  Correction for halogen bonding:                               0.00000000000000
  Electronic entropic energy:                                  -0.00000000000000
  Fermi energy:                                                -0.20959814090368

  Total energy:                                              -579.05083855367491
  Total energy (extrapolated to T->0):                       -579.05083855367491


 MULLIKEN POPULATION ANALYSIS

  # Atom   Element   Kind        Atomic population                    Net charge
       1     Si         1                 4.000000                      0.000000
       2     Si         1                 4.000000                      0.000000
 # Total charge                           8.000000                      0.000000


 ENERGY| Total FORCE_EVAL ( QS ) energy [hartree]           -579.050838553674907

 DEBUG|           E(xz + 0.0001)           E(xz - 0.0001)           f(numerical)
 DEBUG|            -579.05083855            -579.05083855             0.00000000

 *** WARNING in cryssym.F:210 :: Symmetry Library SPGLIB failed ***


 *******************************************************************************
 *   ___                                                                       *
 *  /   \                                                                      *
 * [ABORT]                                                                     *
 *  \___/   SPGLIB k-point symmetry was requested, but SPGLIB is not available *
 *    |                                                                        *
 *  O/|                                                                        *
 * /| |                                                                        *
 * / \                                                           cryssym.F:324 *
 *******************************************************************************


 ===== Routine Calling Stack ===== 

            3 kpoint_gen
            2 kpoint_initialize
            1 CP2K
