 DBCSR| CPU Multiplication driver                                           XSMM (U)
 DBCSR| Multrec recursion limit                                              512 (U)
 DBCSR| Multiplication stack size                                           1000 (D)
 DBCSR| Maximum elements for images                                    UNLIMITED (U)
 DBCSR| Multiplicative factor virtual images                                   1 (U)
 DBCSR| Use multiplication densification                                       T (D)
 DBCSR| Multiplication size stacks                                             3 (U)
 DBCSR| Use memory pool for CPU allocation                                     F (U)
 DBCSR| Number of 3D layers                                               SINGLE (U)
 DBCSR| Use MPI memory allocation                                              F (U)
 DBCSR| Use RMA algorithm                                                      F (U)
 DBCSR| Use Communication thread                                               T (U)
 DBCSR| Communication thread load                                             87 (D)
 DBCSR| MPI: My process id                                                     0
 DBCSR| MPI: Number of processes                                               1
 DBCSR| OMP: Current number of threads                                         1
 DBCSR| OMP: Max number of threads                                             1
 DBCSR| Split modifier for TAS multiplication algorithm                  1.0E+00 (U)


  **** **** ******  **  PROGRAM STARTED AT               2026-05-23 22:46:19.793
 ***** ** ***  *** **   PROGRAM STARTED ON                            spark-c86c
 **    ****   ******    PROGRAM STARTED BY                              kuehne88
 ***** **    ** ** **   PROGRAM PROCESS ID                               2226027
  **** **  *******  **  PROGRAM STARTED IN /home/kuehne88/periodic-gfn2-benchmar
                                           ks/X23b/runs/molecule_geoopt/GFN1/ure
                                           a_GFN1_mol_geoopt

 CP2K| version string:                 CP2K version 2026.1 (Development Version)
 CP2K| source code revision number:                                   0622d442e4
 CP2K| cp2kflags: omp fftw3 libxc parallel scalapack mpi_f08 xsmm spglib libdftd
 CP2K|            4 dftd4_v3 mctc-lib tblite
 CP2K| is freely available from                            https://www.cp2k.org/
 CP2K| Program compiled at                                   2026-05-23 22:05:08
 CP2K| Program compiled on                                            spark-c86c
 CP2K| Program compiled for                                              aarch64
 CP2K| Data directory path    /home/kuehne88/cp2k-master-tblite-20260523/install
 CP2K| Input file name                                  urea_GFN1_mol_geoopt.inp

 GLOBAL| Force Environment number                                              1
 GLOBAL| Basis set file name                                           BASIS_SET
 GLOBAL| Potential file name                                           POTENTIAL
 GLOBAL| MM Potential file name                                     MM_POTENTIAL
 GLOBAL| Coordinate file name                                      __STD_INPUT__
 GLOBAL| Method name                                                        CP2K
 GLOBAL| Project name                                       urea_GFN1_mol_geoopt
 GLOBAL| Run type                                                        GEO_OPT
 GLOBAL| FFT library                                                       FFTW3
 GLOBAL| Diagonalization library                                       ScaLAPACK
 GLOBAL| Cholesky decomposition library                                ScaLAPACK
 GLOBAL| DGEMM library                                                      BLAS
 GLOBAL| Direct generalized diagonalization requested                          F
 GLOBAL| Orthonormality check for eigenvectors                          DISABLED
 GLOBAL| Matrix multiplication library                                 ScaLAPACK
 GLOBAL| All-to-all communication in single precision                          F
 GLOBAL| FFTs using library dependent lengths                                  F
 GLOBAL| Grid backend                                                       AUTO
 GLOBAL| Global print level                                                  LOW
 GLOBAL| MPI I/O enabled                                                       T
 GLOBAL| Total number of message passing processes                             1
 GLOBAL| Number of distributed systems (nodes)                                 1
 GLOBAL| Number of threads for this process                                    1
 GLOBAL| This output is from process                                           0
 GLOBAL| OpenMP stack size per thread (OMP_STACKSIZE)                    default
 GLOBAL| CPU model name                                                  UNKNOWN
 GLOBAL| CPUID                                                              2200
 GLOBAL| Compiled for CPUID                                                 2000

 *** HINT in environment.F:970 :: The compiler target flags (arm_arch64)   ***
 *** used to build this binary cannot exploit all extensions of this CPU   ***
 *** model (arm_sve256). Consider compiler target flags as part of FCFLAGS ***
 *** and CFLAGS (ARCH file).                                               ***


 MEMORY| system memory details [Kb]
 MEMORY|                        rank 0           min           max       average
 MEMORY| MemTotal            125508532     125508532     125508532     125508532
 MEMORY| MemFree             106212388     106212388     106212388     106212388
 MEMORY| Buffers                866064        866064        866064        866064
 MEMORY| Cached               13217048      13217048      13217048      13217048
 MEMORY| Slab                  1564884       1564884       1564884       1564884
 MEMORY| SReclaimable           888692        888692        888692        888692
 MEMORY| MemLikelyFree       121184192     121184192     121184192     121184192


 GENERATE|  Preliminary Number of Bonds generated:                             0
 GENERATE|  Achieved consistency in connectivity generation.


                  #####   #####        #     #   #     #       #          
                 #     # #     #      #    ##### #     #   # #####  ####  
                 #     # #           #       #   ###   #       #   #    # 
                 #     #  #####     #        #   #  #  #   #   #   ###### 
                 #   # #       #   #         #   #   # #   #   #   #      
                 #    #  #     #  #          #   #  #  # # #   #    #   # 
                  #### #  #####  #           #   ###   ##  #   #     ###  

                                   GFN1-xTB  
                                 Version 0.0                       
                            Johann V. Pototschnig                  



 TOTAL NUMBERS AND MAXIMUM NUMBERS

  Total number of            - Atomic kinds:                                   4
                             - Atoms:                                          8
                             - Shell sets:                                    16
                             - Shells:                                        16
                             - Primitive Cartesian functions:                 92
                             - Cartesian basis functions:                     24
                             - Spherical basis functions:                     24

  Maximum angular momentum of the orbital basis functions:                     1


 SCF PARAMETERS         Density guess:                                     MOPAC
                        --------------------------------------------------------
                        max_scf:                                             300
                        max_scf_history:                                       0
                        max_diis:                                              4
                        --------------------------------------------------------
                        eps_scf:                                        1.00E-09
                        eps_scf_history:                                0.00E+00
                        eps_diis:                                       1.00E-01
                        eps_eigval:                                     1.00E-05
                        --------------------------------------------------------
                        level_shift [a.u.]:                             0.000000
                        added MOs                                        12    0
                        --------------------------------------------------------
                        Mixing method:                           DIRECT_P_MIXING
                        --------------------------------------------------------
                        Smear method:                                FERMI_DIRAC
                        Electronic temperature [K]:                        300.0
                        Electronic temperature [a.u.]:                  9.50E-04
                        Accuracy threshold:                             1.00E-06
                        --------------------------------------------------------
                        No outer SCF

 BFGS| Use rational function optimization for step estimation:                NO
 BFGS| Use model Hessian for initial guess:                                  YES
 BFGS| Restart Hessian:                                                       NO
 BFGS| Trust radius:                                                       0.472

 *******************************************************************************
 ***                     STARTING GEOMETRY OPTIMIZATION                      ***
 ***                                   BFGS                                  ***
 *******************************************************************************

 Extrapolation method: initial_guess

 Number of electrons:                                                         24
 Number of occupied orbitals:                                                 12
 Number of molecular orbitals:                                                24

 Number of orbital functions:                                                 24
 Number of independent orbital functions:                                     24


 SCF WAVEFUNCTION OPTIMIZATION

  Step     Update method      Time    Convergence         Total energy    Change
  ------------------------------------------------------------------------------
     1 TBLite/Diag 0.40E+00    0.0     1.60808134       -15.1192906433 -1.51E+01
     2 TBLite/Diag 0.40E+00    0.0     0.31327037       -15.4010709262 -2.82E-01
     3 TBLite/Diag 0.40E+00    0.0     0.04708590       -15.4074351870 -6.36E-03
     4 TBLite/Diag 0.40E+00    0.0     0.02341565       -15.4079283251 -4.93E-04
     5 TBLite/Diag 0.40E+00    0.0     0.01303067       -15.4081737600 -2.45E-04
     6 TBLite/Diag 0.40E+00    0.0     0.00847722       -15.4081838584 -1.01E-05
     7 TBLite/Diag 0.40E+00    0.0     0.00443754       -15.4082092449 -2.54E-05
     8 TBLite/Diag 0.40E+00    0.0     0.00024701       -15.4082093246 -7.96E-08
     9 TBLite/Diag 0.40E+00    0.0     0.00004207       -15.4082093242  3.79E-10
    10 TBLite/Diag 0.40E+00    0.0     0.00002422       -15.4082093249 -6.99E-10
    11 TBLite/Diag 0.40E+00    0.0     0.00000012       -15.4082093249 -2.13E-14
    12 TBLite/Diag 0.40E+00    0.0     0.00000003       -15.4082093249 -5.33E-15
    13 TBLite/Diag 0.40E+00    0.0     3.6624E-09       -15.4082093249  1.07E-14
    14 TBLite/Diag 0.40E+00    0.0     4.5660E-09       -15.4082093249  7.11E-15
    15 TBLite/Diag 0.40E+00    0.0     1.0703E-10       -15.4082093249 -1.07E-14

  *** SCF run converged in    15 steps ***


  Core Hamiltonian energy:                                    -15.64030678765861
  Repulsive potential energy:                                   0.14313152923126
  Electrostatic energy:                                         0.09078506843101
  Self-consistent dispersion energy:                            0.00000000000000
  Non-self consistent dispersion energy:                       -0.00181913488323
  Correction for halogen bonding:                               0.00000000000000
  Electronic entropic energy:                                  -0.00000000000000
  Fermi energy:                                                -0.25521160887304

  Total energy:                                               -15.40820932487958
  Total energy (extrapolated to T->0):                        -15.40820932487958

 ENERGY| Total FORCE_EVAL ( QS ) energy [hartree]            -15.408209324879575

 OPT| **************************************************************************
 OPT| Step number                                                              0
 OPT| Optimization method                                                   BFGS
 OPT| Total energy [hartree]                                      -15.4082093249
 OPT| Used time [s]                                                        0.011
 OPT| **************************************************************************
 OPT| Estimated peak process memory [MiB]                                    166

 --------------------------
 OPTIMIZATION STEP:      1
 --------------------------

 Extrapolation method: ASPC

 Number of electrons:                                                         24
 Number of occupied orbitals:                                                 12
 Number of molecular orbitals:                                                24

 Number of orbital functions:                                                 24
 Number of independent orbital functions:                                     24


 SCF WAVEFUNCTION OPTIMIZATION

  Step     Update method      Time    Convergence         Total energy    Change
  ------------------------------------------------------------------------------
     1 TBLite/Diag 0.40E+00    0.0     0.02024453       -15.4089927619 -1.54E+01
     2 TBLite/Diag 0.40E+00    0.0     0.00296001       -15.4090118353 -1.91E-05
     3 TBLite/Diag 0.40E+00    0.0     0.00078254       -15.4090125600 -7.25E-07
     4 TBLite/Diag 0.40E+00    0.0     0.00025412       -15.4090125600  5.85E-11
     5 TBLite/Diag 0.40E+00    0.0     0.00013846       -15.4090125866 -2.66E-08
     6 TBLite/Diag 0.40E+00    0.0     0.00000252       -15.4090125866 -8.15E-12
     7 TBLite/Diag 0.40E+00    0.0     0.00000010       -15.4090125866 -4.62E-14
     8 TBLite/Diag 0.40E+00    0.0     0.00000004       -15.4090125866  1.60E-14
     9 TBLite/Diag 0.40E+00    0.0     3.1630E-09       -15.4090125866  8.88E-15
    10 TBLite/Diag 0.40E+00    0.0     8.0348E-10       -15.4090125866 -1.07E-14

  *** SCF run converged in    10 steps ***


  Core Hamiltonian energy:                                    -15.64781775561433
  Repulsive potential energy:                                   0.15047903184403
  Electrostatic energy:                                         0.09014874645655
  Self-consistent dispersion energy:                            0.00000000000000
  Non-self consistent dispersion energy:                       -0.00182260929255
  Correction for halogen bonding:                               0.00000000000000
  Electronic entropic energy:                                  -0.00000000000000
  Fermi energy:                                                -0.24983689783655

  Total energy:                                               -15.40901258660630
  Total energy (extrapolated to T->0):                        -15.40901258660630

 ENERGY| Total FORCE_EVAL ( QS ) energy [hartree]            -15.409012586606302

 OPT| **************************************************************************
 OPT| Step number                                                              1
 OPT| Optimization method                                                   BFGS
 OPT| Total energy [hartree]                                      -15.4090125866
 OPT| Effective energy change [hartree]                            -0.0008032617
 OPT| Predicted energy change [hartree]                            -0.0006175500
 OPT| Scaling factor                                                0.0000000000
 OPT| Step size                                                     0.0311747455
 OPT| Trust radius                                                  0.4724315332
 OPT| Decrease in energy                                                     YES
 OPT| Used time [s]                                                        0.008
 OPT|
 OPT| Maximum step size                                             0.0311747455
 OPT| Convergence limit for maximum step size                       0.0030000000
 OPT| Maximum step size is converged                                          NO
 OPT|
 OPT| RMS step size                                                 0.0141376924
 OPT| Convergence limit for RMS step size                           0.0015000000
 OPT| RMS step size is converged                                              NO
 OPT|
 OPT| Maximum gradient                                              0.0040314338
 OPT| Convergence limit for maximum gradient                        0.0004500000
 OPT| Maximum gradient is converged                                           NO
 OPT|
 OPT| RMS gradient                                                  0.0015937988
 OPT| Convergence limit for RMS gradient                            0.0003000000
 OPT| RMS gradient is converged                                               NO
 OPT| **************************************************************************
 OPT| Estimated peak process memory after this step [MiB]                    166

 --------------------------
 OPTIMIZATION STEP:      2
 --------------------------

 Extrapolation method: ASPC

 Number of electrons:                                                         24
 Number of occupied orbitals:                                                 12
 Number of molecular orbitals:                                                24

 Number of orbital functions:                                                 24
 Number of independent orbital functions:                                     24


 SCF WAVEFUNCTION OPTIMIZATION

  Step     Update method      Time    Convergence         Total energy    Change
  ------------------------------------------------------------------------------
     1 TBLite/Diag 0.40E+00    0.0     0.01553082       -15.4091490781 -1.54E+01
     2 TBLite/Diag 0.40E+00    0.0     0.00134943       -15.4091553331 -6.26E-06
     3 TBLite/Diag 0.40E+00    0.0     0.00025203       -15.4091554457 -1.13E-07
     4 TBLite/Diag 0.40E+00    0.0     0.00007234       -15.4091554449  8.09E-10
     5 TBLite/Diag 0.40E+00    0.0     0.00006310       -15.4091554509 -6.02E-09
     6 TBLite/Diag 0.40E+00    0.0     0.00001044       -15.4091554510 -1.53E-10
     7 TBLite/Diag 0.40E+00    0.0     0.00000027       -15.4091554510 -1.08E-13
     8 TBLite/Diag 0.40E+00    0.0     0.00000006       -15.4091554510 -1.78E-15
     9 TBLite/Diag 0.40E+00    0.0     2.9470E-09       -15.4091554510 -1.24E-14
    10 TBLite/Diag 0.40E+00    0.0     2.5813E-10       -15.4091554510  8.88E-15

  *** SCF run converged in    10 steps ***


  Core Hamiltonian energy:                                    -15.65095780842198
  Repulsive potential energy:                                   0.15390851981098
  Electrostatic energy:                                         0.08971910330450
  Self-consistent dispersion energy:                            0.00000000000000
  Non-self consistent dispersion energy:                       -0.00182526573758
  Correction for halogen bonding:                               0.00000000000000
  Electronic entropic energy:                                  -0.00000000000000
  Fermi energy:                                                -0.24812997192897

  Total energy:                                               -15.40915545104408
  Total energy (extrapolated to T->0):                        -15.40915545104408

 ENERGY| Total FORCE_EVAL ( QS ) energy [hartree]            -15.409155451044080

 OPT| **************************************************************************
 OPT| Step number                                                              2
 OPT| Optimization method                                                   BFGS
 OPT| Total energy [hartree]                                      -15.4091554510
 OPT| Effective energy change [hartree]                            -0.0001428644
 OPT| Predicted energy change [hartree]                            -0.0001437205
 OPT| Scaling factor                                                0.0000000000
 OPT| Step size                                                     0.0216503905
 OPT| Trust radius                                                  0.4724315332
 OPT| Decrease in energy                                                     YES
 OPT| Used time [s]                                                        0.009
 OPT|
 OPT| Maximum step size                                             0.0216503905
 OPT| Convergence limit for maximum step size                       0.0030000000
 OPT| Maximum step size is converged                                          NO
 OPT|
 OPT| RMS step size                                                 0.0118801395
 OPT| Convergence limit for RMS step size                           0.0015000000
 OPT| RMS step size is converged                                              NO
 OPT|
 OPT| Maximum gradient                                              0.0023422396
 OPT| Convergence limit for maximum gradient                        0.0004500000
 OPT| Maximum gradient is converged                                           NO
 OPT|
 OPT| RMS gradient                                                  0.0009984270
 OPT| Convergence limit for RMS gradient                            0.0003000000
 OPT| RMS gradient is converged                                               NO
 OPT| **************************************************************************
 OPT| Estimated peak process memory after this step [MiB]                    166

 --------------------------
 OPTIMIZATION STEP:      3
 --------------------------

 Extrapolation method: ASPC

 Number of electrons:                                                         24
 Number of occupied orbitals:                                                 12
 Number of molecular orbitals:                                                24

 Number of orbital functions:                                                 24
 Number of independent orbital functions:                                     24


 SCF WAVEFUNCTION OPTIMIZATION

  Step     Update method      Time    Convergence         Total energy    Change
  ------------------------------------------------------------------------------
     1 TBLite/Diag 0.40E+00    0.0     0.01014069       -15.4091991247 -1.54E+01
     2 TBLite/Diag 0.40E+00    0.0     0.00040474       -15.4091993236 -1.99E-07
     3 TBLite/Diag 0.40E+00    0.0     0.00015051       -15.4091993406 -1.70E-08
     4 TBLite/Diag 0.40E+00    0.0     0.00005820       -15.4091993466 -6.00E-09
     5 TBLite/Diag 0.40E+00    0.0     0.00000583       -15.4091993468 -1.27E-10
     6 TBLite/Diag 0.40E+00    0.0     0.00000376       -15.4091993468 -2.50E-11
     7 TBLite/Diag 0.40E+00    0.0     0.00000015       -15.4091993468 -3.38E-14
     8 TBLite/Diag 0.40E+00    0.0     9.7600E-09       -15.4091993468 -1.07E-14
     9 TBLite/Diag 0.40E+00    0.0     1.4316E-09       -15.4091993468  1.78E-14
    10 TBLite/Diag 0.40E+00    0.0     8.4261E-11       -15.4091993468 -5.33E-15

  *** SCF run converged in    10 steps ***


  Core Hamiltonian energy:                                    -15.65102970989055
  Repulsive potential energy:                                   0.15393202131689
  Electrostatic energy:                                         0.08972427127068
  Self-consistent dispersion energy:                            0.00000000000000
  Non-self consistent dispersion energy:                       -0.00182592949074
  Correction for halogen bonding:                               0.00000000000000
  Electronic entropic energy:                                  -0.00000000000000
  Fermi energy:                                                -0.24832728068859

  Total energy:                                               -15.40919934679372
  Total energy (extrapolated to T->0):                        -15.40919934679372

 ENERGY| Total FORCE_EVAL ( QS ) energy [hartree]            -15.409199346793722

 OPT| **************************************************************************
 OPT| Step number                                                              3
 OPT| Optimization method                                                   BFGS
 OPT| Total energy [hartree]                                      -15.4091993468
 OPT| Effective energy change [hartree]                            -0.0000438957
 OPT| Predicted energy change [hartree]                            -0.0000334016
 OPT| Scaling factor                                                0.0000000000
 OPT| Step size                                                     0.0170365460
 OPT| Trust radius                                                  0.4724315332
 OPT| Decrease in energy                                                     YES
 OPT| Used time [s]                                                        0.009
 OPT|
 OPT| Maximum step size                                             0.0170365460
 OPT| Convergence limit for maximum step size                       0.0030000000
 OPT| Maximum step size is converged                                          NO
 OPT|
 OPT| RMS step size                                                 0.0060168925
 OPT| Convergence limit for RMS step size                           0.0015000000
 OPT| RMS step size is converged                                              NO
 OPT|
 OPT| Maximum gradient                                              0.0025248524
 OPT| Convergence limit for maximum gradient                        0.0004500000
 OPT| Maximum gradient is converged                                           NO
 OPT|
 OPT| RMS gradient                                                  0.0006825414
 OPT| Convergence limit for RMS gradient                            0.0003000000
 OPT| RMS gradient is converged                                               NO
 OPT| **************************************************************************
 OPT| Estimated peak process memory after this step [MiB]                    166

 --------------------------
 OPTIMIZATION STEP:      4
 --------------------------

 Extrapolation method: ASPC

 Number of electrons:                                                         24
 Number of occupied orbitals:                                                 12
 Number of molecular orbitals:                                                24

 Number of orbital functions:                                                 24
 Number of independent orbital functions:                                     24


 SCF WAVEFUNCTION OPTIMIZATION

  Step     Update method      Time    Convergence         Total energy    Change
  ------------------------------------------------------------------------------
     1 TBLite/Diag 0.40E+00    0.0     0.00965383       -15.4092344182 -1.54E+01
     2 TBLite/Diag 0.40E+00    0.0     0.00077675       -15.4092349127 -4.94E-07
     3 TBLite/Diag 0.40E+00    0.0     0.00023710       -15.4092349579 -4.52E-08
     4 TBLite/Diag 0.40E+00    0.0     0.00007479       -15.4092349669 -9.00E-09
     5 TBLite/Diag 0.40E+00    0.0     0.00001173       -15.4092349671 -2.33E-10
     6 TBLite/Diag 0.40E+00    0.0     0.00000278       -15.4092349671 -1.04E-11
     7 TBLite/Diag 0.40E+00    0.0     0.00000016       -15.4092349671 -6.57E-14
     8 TBLite/Diag 0.40E+00    0.0     0.00000005       -15.4092349671 -1.24E-14
     9 TBLite/Diag 0.40E+00    0.0     2.8415E-10       -15.4092349671  1.60E-14

  *** SCF run converged in     9 steps ***


  Core Hamiltonian energy:                                    -15.65030727690095
  Repulsive potential energy:                                   0.15319535069664
  Electrostatic energy:                                         0.08970348487443
  Self-consistent dispersion energy:                            0.00000000000000
  Non-self consistent dispersion energy:                       -0.00182652578647
  Correction for halogen bonding:                               0.00000000000000
  Electronic entropic energy:                                  -0.00000000000000
  Fermi energy:                                                -0.24925345707272

  Total energy:                                               -15.40923496711635
  Total energy (extrapolated to T->0):                        -15.40923496711635

 ENERGY| Total FORCE_EVAL ( QS ) energy [hartree]            -15.409234967116348

 OPT| **************************************************************************
 OPT| Step number                                                              4
 OPT| Optimization method                                                   BFGS
 OPT| Total energy [hartree]                                      -15.4092349671
 OPT| Effective energy change [hartree]                            -0.0000356203
 OPT| Predicted energy change [hartree]                            -0.0000256778
 OPT| Scaling factor                                                0.0000000000
 OPT| Step size                                                     0.0176333126
 OPT| Trust radius                                                  0.4724315332
 OPT| Decrease in energy                                                     YES
 OPT| Used time [s]                                                        0.008
 OPT|
 OPT| Maximum step size                                             0.0176333126
 OPT| Convergence limit for maximum step size                       0.0030000000
 OPT| Maximum step size is converged                                          NO
 OPT|
 OPT| RMS step size                                                 0.0073678646
 OPT| Convergence limit for RMS step size                           0.0015000000
 OPT| RMS step size is converged                                              NO
 OPT|
 OPT| Maximum gradient                                              0.0009744158
 OPT| Convergence limit for maximum gradient                        0.0004500000
 OPT| Maximum gradient is converged                                           NO
 OPT|
 OPT| RMS gradient                                                  0.0003141322
 OPT| Convergence limit for RMS gradient                            0.0003000000
 OPT| RMS gradient is converged                                               NO
 OPT| **************************************************************************
 OPT| Estimated peak process memory after this step [MiB]                    166

 --------------------------
 OPTIMIZATION STEP:      5
 --------------------------

 Extrapolation method: ASPC

 Number of electrons:                                                         24
 Number of occupied orbitals:                                                 12
 Number of molecular orbitals:                                                24

 Number of orbital functions:                                                 24
 Number of independent orbital functions:                                     24


 SCF WAVEFUNCTION OPTIMIZATION

  Step     Update method      Time    Convergence         Total energy    Change
  ------------------------------------------------------------------------------
     1 TBLite/Diag 0.40E+00    0.0     0.00825079       -15.4092524583 -1.54E+01
     2 TBLite/Diag 0.40E+00    0.0     0.00088183       -15.4092529220 -4.64E-07
     3 TBLite/Diag 0.40E+00    0.0     0.00013329       -15.4092529420 -2.00E-08
     4 TBLite/Diag 0.40E+00    0.0     0.00003899       -15.4092529432 -1.21E-09
     5 TBLite/Diag 0.40E+00    0.0     0.00001254       -15.4092529435 -3.18E-10
     6 TBLite/Diag 0.40E+00    0.0     0.00000432       -15.4092529436 -2.37E-11
     7 TBLite/Diag 0.40E+00    0.0     0.00000009       -15.4092529436 -1.42E-14
     8 TBLite/Diag 0.40E+00    0.0     6.6060E-09       -15.4092529436  0.00E+00
     9 TBLite/Diag 0.40E+00    0.0     8.4502E-10       -15.4092529436  0.00E+00

  *** SCF run converged in     9 steps ***


  Core Hamiltonian energy:                                    -15.64983726870130
  Repulsive potential energy:                                   0.15276011230755
  Electrostatic energy:                                         0.08965105435916
  Self-consistent dispersion energy:                            0.00000000000000
  Non-self consistent dispersion energy:                       -0.00182684152215
  Correction for halogen bonding:                               0.00000000000000
  Electronic entropic energy:                                  -0.00000000000000
  Fermi energy:                                                -0.24970990931984

  Total energy:                                               -15.40925294355674
  Total energy (extrapolated to T->0):                        -15.40925294355674

 ENERGY| Total FORCE_EVAL ( QS ) energy [hartree]            -15.409252943556739

 OPT| **************************************************************************
 OPT| Step number                                                              5
 OPT| Optimization method                                                   BFGS
 OPT| Total energy [hartree]                                      -15.4092529436
 OPT| Effective energy change [hartree]                            -0.0000179764
 OPT| Predicted energy change [hartree]                            -0.0000140238
 OPT| Scaling factor                                                0.0000000000
 OPT| Step size                                                     0.0146676509
 OPT| Trust radius                                                  0.4724315332
 OPT| Decrease in energy                                                     YES
 OPT| Used time [s]                                                        0.008
 OPT|
 OPT| Maximum step size                                             0.0146676509
 OPT| Convergence limit for maximum step size                       0.0030000000
 OPT| Maximum step size is converged                                          NO
 OPT|
 OPT| RMS step size                                                 0.0067501625
 OPT| Convergence limit for RMS step size                           0.0015000000
 OPT| RMS step size is converged                                              NO
 OPT|
 OPT| Maximum gradient                                              0.0009998927
 OPT| Convergence limit for maximum gradient                        0.0004500000
 OPT| Maximum gradient is converged                                           NO
 OPT|
 OPT| RMS gradient                                                  0.0003663520
 OPT| Convergence limit for RMS gradient                            0.0003000000
 OPT| RMS gradient is converged                                               NO
 OPT| **************************************************************************
 OPT| Estimated peak process memory after this step [MiB]                    166

 --------------------------
 OPTIMIZATION STEP:      6
 --------------------------

 Extrapolation method: ASPC

 Number of electrons:                                                         24
 Number of occupied orbitals:                                                 12
 Number of molecular orbitals:                                                24

 Number of orbital functions:                                                 24
 Number of independent orbital functions:                                     24


 SCF WAVEFUNCTION OPTIMIZATION

  Step     Update method      Time    Convergence         Total energy    Change
  ------------------------------------------------------------------------------
     1 TBLite/Diag 0.40E+00    0.0     0.00664582       -15.4092605639 -1.54E+01
     2 TBLite/Diag 0.40E+00    0.0     0.00048873       -15.4092608012 -2.37E-07
     3 TBLite/Diag 0.40E+00    0.0     0.00004075       -15.4092608027 -1.52E-09
     4 TBLite/Diag 0.40E+00    0.0     0.00001586       -15.4092608028 -9.05E-11
     5 TBLite/Diag 0.40E+00    0.0     0.00000701       -15.4092608029 -6.98E-11
     6 TBLite/Diag 0.40E+00    0.0     0.00000233       -15.4092608029 -6.77E-12
     7 TBLite/Diag 0.40E+00    0.0     0.00000024       -15.4092608029 -9.77E-14
     8 TBLite/Diag 0.40E+00    0.0     0.00000006       -15.4092608029 -5.33E-15
     9 TBLite/Diag 0.40E+00    0.0     7.7580E-10       -15.4092608029 -1.95E-14

  *** SCF run converged in     9 steps ***


  Core Hamiltonian energy:                                    -15.64981835827844
  Repulsive potential energy:                                   0.15276387338526
  Electrostatic energy:                                         0.08962058674961
  Self-consistent dispersion energy:                            0.00000000000000
  Non-self consistent dispersion energy:                       -0.00182690474659
  Correction for halogen bonding:                               0.00000000000000
  Electronic entropic energy:                                  -0.00000000000000
  Fermi energy:                                                -0.24958328651189

  Total energy:                                               -15.40926080289016
  Total energy (extrapolated to T->0):                        -15.40926080289016

 ENERGY| Total FORCE_EVAL ( QS ) energy [hartree]            -15.409260802890161

 OPT| **************************************************************************
 OPT| Step number                                                              6
 OPT| Optimization method                                                   BFGS
 OPT| Total energy [hartree]                                      -15.4092608029
 OPT| Effective energy change [hartree]                            -0.0000078593
 OPT| Predicted energy change [hartree]                            -0.0000075974
 OPT| Scaling factor                                                0.0000000000
 OPT| Step size                                                     0.0105001967
 OPT| Trust radius                                                  0.4724315332
 OPT| Decrease in energy                                                     YES
 OPT| Used time [s]                                                        0.008
 OPT|
 OPT| Maximum step size                                             0.0105001967
 OPT| Convergence limit for maximum step size                       0.0030000000
 OPT| Maximum step size is converged                                          NO
 OPT|
 OPT| RMS step size                                                 0.0051415211
 OPT| Convergence limit for RMS step size                           0.0015000000
 OPT| RMS step size is converged                                              NO
 OPT|
 OPT| Maximum gradient                                              0.0007732709
 OPT| Convergence limit for maximum gradient                        0.0004500000
 OPT| Maximum gradient is converged                                           NO
 OPT|
 OPT| RMS gradient                                                  0.0002964852
 OPT| Convergence limit for RMS gradient                            0.0003000000
 OPT| RMS gradient is converged                                              YES
 OPT| **************************************************************************
 OPT| Estimated peak process memory after this step [MiB]                    166

 --------------------------
 OPTIMIZATION STEP:      7
 --------------------------

 Extrapolation method: ASPC

 Number of electrons:                                                         24
 Number of occupied orbitals:                                                 12
 Number of molecular orbitals:                                                24

 Number of orbital functions:                                                 24
 Number of independent orbital functions:                                     24


 SCF WAVEFUNCTION OPTIMIZATION

  Step     Update method      Time    Convergence         Total energy    Change
  ------------------------------------------------------------------------------
     1 TBLite/Diag 0.40E+00    0.0     0.00747042       -15.4092660809 -1.54E+01
     2 TBLite/Diag 0.40E+00    0.0     0.00020796       -15.4092661564 -7.54E-08
     3 TBLite/Diag 0.40E+00    0.0     0.00008342       -15.4092661579 -1.58E-09
     4 TBLite/Diag 0.40E+00    0.0     0.00004333       -15.4092661602 -2.31E-09
     5 TBLite/Diag 0.40E+00    0.0     0.00000798       -15.4092661603 -8.00E-11
     6 TBLite/Diag 0.40E+00    0.0     0.00000092       -15.4092661603 -1.24E-12
     7 TBLite/Diag 0.40E+00    0.0     0.00000017       -15.4092661603 -4.26E-14
     8 TBLite/Diag 0.40E+00    0.0     0.00000002       -15.4092661603 -1.24E-14
     9 TBLite/Diag 0.40E+00    0.0     6.1663E-10       -15.4092661603  8.88E-15

  *** SCF run converged in     9 steps ***


  Core Hamiltonian energy:                                    -15.65009309029923
  Repulsive potential energy:                                   0.15302667023182
  Electrostatic energy:                                         0.08962708615730
  Self-consistent dispersion energy:                            0.00000000000000
  Non-self consistent dispersion energy:                       -0.00182682641108
  Correction for halogen bonding:                               0.00000000000000
  Electronic entropic energy:                                  -0.00000000000000
  Fermi energy:                                                -0.24915301709030

  Total energy:                                               -15.40926616032119
  Total energy (extrapolated to T->0):                        -15.40926616032119

 ENERGY| Total FORCE_EVAL ( QS ) energy [hartree]            -15.409266160321193

 OPT| **************************************************************************
 OPT| Step number                                                              7
 OPT| Optimization method                                                   BFGS
 OPT| Total energy [hartree]                                      -15.4092661603
 OPT| Effective energy change [hartree]                            -0.0000053574
 OPT| Predicted energy change [hartree]                            -0.0000047950
 OPT| Scaling factor                                                0.0000000000
 OPT| Step size                                                     0.0065863612
 OPT| Trust radius                                                  0.4724315332
 OPT| Decrease in energy                                                     YES
 OPT| Used time [s]                                                        0.008
 OPT|
 OPT| Maximum step size                                             0.0065863612
 OPT| Convergence limit for maximum step size                       0.0030000000
 OPT| Maximum step size is converged                                          NO
 OPT|
 OPT| RMS step size                                                 0.0032608550
 OPT| Convergence limit for RMS step size                           0.0015000000
 OPT| RMS step size is converged                                              NO
 OPT|
 OPT| Maximum gradient                                              0.0004138646
 OPT| Convergence limit for maximum gradient                        0.0004500000
 OPT| Maximum gradient is converged                                          YES
 OPT|
 OPT| RMS gradient                                                  0.0001604043
 OPT| Convergence limit for RMS gradient                            0.0003000000
 OPT| RMS gradient is converged                                              YES
 OPT| **************************************************************************
 OPT| Estimated peak process memory after this step [MiB]                    166

 --------------------------
 OPTIMIZATION STEP:      8
 --------------------------

 Extrapolation method: ASPC

 Number of electrons:                                                         24
 Number of occupied orbitals:                                                 12
 Number of molecular orbitals:                                                24

 Number of orbital functions:                                                 24
 Number of independent orbital functions:                                     24


 SCF WAVEFUNCTION OPTIMIZATION

  Step     Update method      Time    Convergence         Total energy    Change
  ------------------------------------------------------------------------------
     1 TBLite/Diag 0.40E+00    0.0     0.00445586       -15.4092689351 -1.54E+01
     2 TBLite/Diag 0.40E+00    0.0     0.00039159       -15.4092690234 -8.83E-08
     3 TBLite/Diag 0.40E+00    0.0     0.00007474       -15.4092690281 -4.73E-09
     4 TBLite/Diag 0.40E+00    0.0     0.00002769       -15.4092690289 -7.91E-10
     5 TBLite/Diag 0.40E+00    0.0     0.00000526       -15.4092690290 -7.39E-11
     6 TBLite/Diag 0.40E+00    0.0     0.00000181       -15.4092690290 -5.69E-12
     7 TBLite/Diag 0.40E+00    0.0     0.00000006       -15.4092690290 -7.11E-15
     8 TBLite/Diag 0.40E+00    0.0     3.0390E-09       -15.4092690290  7.11E-15
     9 TBLite/Diag 0.40E+00    0.0     5.0703E-10       -15.4092690290  3.55E-15

  *** SCF run converged in     9 steps ***


  Core Hamiltonian energy:                                    -15.65038351346162
  Repulsive potential energy:                                   0.15326913800674
  Electrostatic energy:                                         0.08967207991900
  Self-consistent dispersion energy:                            0.00000000000000
  Non-self consistent dispersion energy:                       -0.00182673344013
  Correction for halogen bonding:                               0.00000000000000
  Electronic entropic energy:                                  -0.00000000000000
  Fermi energy:                                                -0.24880046465549

  Total energy:                                               -15.40926902897601
  Total energy (extrapolated to T->0):                        -15.40926902897601

 ENERGY| Total FORCE_EVAL ( QS ) energy [hartree]            -15.409269028976011

 OPT| **************************************************************************
 OPT| Step number                                                              8
 OPT| Optimization method                                                   BFGS
 OPT| Total energy [hartree]                                      -15.4092690290
 OPT| Effective energy change [hartree]                            -0.0000028687
 OPT| Predicted energy change [hartree]                            -0.0000018336
 OPT| Scaling factor                                                0.0000000000
 OPT| Step size                                                     0.0042120156
 OPT| Trust radius                                                  0.4724315332
 OPT| Decrease in energy                                                     YES
 OPT| Used time [s]                                                        0.008
 OPT|
 OPT| Maximum step size                                             0.0042120156
 OPT| Convergence limit for maximum step size                       0.0030000000
 OPT| Maximum step size is converged                                          NO
 OPT|
 OPT| RMS step size                                                 0.0015976630
 OPT| Convergence limit for RMS step size                           0.0015000000
 OPT| RMS step size is converged                                              NO
 OPT|
 OPT| Maximum gradient                                              0.0005406310
 OPT| Convergence limit for maximum gradient                        0.0004500000
 OPT| Maximum gradient is converged                                           NO
 OPT|
 OPT| RMS gradient                                                  0.0001588878
 OPT| Convergence limit for RMS gradient                            0.0003000000
 OPT| RMS gradient is converged                                              YES
 OPT| **************************************************************************
 OPT| Estimated peak process memory after this step [MiB]                    166

 --------------------------
 OPTIMIZATION STEP:      9
 --------------------------

 Extrapolation method: ASPC

 Number of electrons:                                                         24
 Number of occupied orbitals:                                                 12
 Number of molecular orbitals:                                                24

 Number of orbital functions:                                                 24
 Number of independent orbital functions:                                     24


 SCF WAVEFUNCTION OPTIMIZATION

  Step     Update method      Time    Convergence         Total energy    Change
  ------------------------------------------------------------------------------
     1 TBLite/Diag 0.40E+00    0.0     0.00820909       -15.4092722242 -1.54E+01
     2 TBLite/Diag 0.40E+00    0.0     0.00074047       -15.4092725607 -3.36E-07
     3 TBLite/Diag 0.40E+00    0.0     0.00010091       -15.4092725716 -1.09E-08
     4 TBLite/Diag 0.40E+00    0.0     0.00003492       -15.4092725720 -3.36E-10
     5 TBLite/Diag 0.40E+00    0.0     0.00001525       -15.4092725724 -4.50E-10
     6 TBLite/Diag 0.40E+00    0.0     0.00000318       -15.4092725724 -1.37E-11
     7 TBLite/Diag 0.40E+00    0.0     0.00000013       -15.4092725724 -7.11E-15
     8 TBLite/Diag 0.40E+00    0.0     4.3409E-09       -15.4092725724  7.11E-15
     9 TBLite/Diag 0.40E+00    0.0     7.4268E-10       -15.4092725724 -7.11E-15

  *** SCF run converged in     9 steps ***


  Core Hamiltonian energy:                                    -15.65072906466253
  Repulsive potential energy:                                   0.15351403108687
  Electrostatic energy:                                         0.08976908476510
  Self-consistent dispersion energy:                            0.00000000000000
  Non-self consistent dispersion energy:                       -0.00182662361875
  Correction for halogen bonding:                               0.00000000000000
  Electronic entropic energy:                                  -0.00000000000000
  Fermi energy:                                                -0.24834429031709

  Total energy:                                               -15.40927257242931
  Total energy (extrapolated to T->0):                        -15.40927257242931

 ENERGY| Total FORCE_EVAL ( QS ) energy [hartree]            -15.409272572429311

 OPT| **************************************************************************
 OPT| Step number                                                              9
 OPT| Optimization method                                                   BFGS
 OPT| Total energy [hartree]                                      -15.4092725724
 OPT| Effective energy change [hartree]                            -0.0000035435
 OPT| Predicted energy change [hartree]                            -0.0000025830
 OPT| Scaling factor                                                0.0000000000
 OPT| Step size                                                     0.0094210754
 OPT| Trust radius                                                  0.4724315332
 OPT| Decrease in energy                                                     YES
 OPT| Used time [s]                                                        0.009
 OPT|
 OPT| Maximum step size                                             0.0094210754
 OPT| Convergence limit for maximum step size                       0.0030000000
 OPT| Maximum step size is converged                                          NO
 OPT|
 OPT| RMS step size                                                 0.0032691017
 OPT| Convergence limit for RMS step size                           0.0015000000
 OPT| RMS step size is converged                                              NO
 OPT|
 OPT| Maximum gradient                                              0.0004581931
 OPT| Convergence limit for maximum gradient                        0.0004500000
 OPT| Maximum gradient is converged                                           NO
 OPT|
 OPT| RMS gradient                                                  0.0001591146
 OPT| Convergence limit for RMS gradient                            0.0003000000
 OPT| RMS gradient is converged                                              YES
 OPT| **************************************************************************
 OPT| Estimated peak process memory after this step [MiB]                    166

 --------------------------
 OPTIMIZATION STEP:     10
 --------------------------

 Extrapolation method: ASPC

 Number of electrons:                                                         24
 Number of occupied orbitals:                                                 12
 Number of molecular orbitals:                                                24

 Number of orbital functions:                                                 24
 Number of independent orbital functions:                                     24


 SCF WAVEFUNCTION OPTIMIZATION

  Step     Update method      Time    Convergence         Total energy    Change
  ------------------------------------------------------------------------------
     1 TBLite/Diag 0.40E+00    0.0     0.00633714       -15.4092745650 -1.54E+01
     2 TBLite/Diag 0.40E+00    0.0     0.00046765       -15.4092747220 -1.57E-07
     3 TBLite/Diag 0.40E+00    0.0     0.00004773       -15.4092747245 -2.57E-09
     4 TBLite/Diag 0.40E+00    0.0     0.00001566       -15.4092747245  2.76E-12
     5 TBLite/Diag 0.40E+00    0.0     0.00000929       -15.4092747247 -1.58E-10
     6 TBLite/Diag 0.40E+00    0.0     0.00000179       -15.4092747247 -3.79E-12
     7 TBLite/Diag 0.40E+00    0.0     0.00000007       -15.4092747247  3.55E-15
     8 TBLite/Diag 0.40E+00    0.0     4.8957E-09       -15.4092747247 -1.42E-14
     9 TBLite/Diag 0.40E+00    0.0     3.6277E-10       -15.4092747247  0.00E+00

  *** SCF run converged in     9 steps ***


  Core Hamiltonian energy:                                    -15.65084150634804
  Repulsive potential energy:                                   0.15355421731818
  Electrostatic energy:                                         0.08983914344696
  Self-consistent dispersion energy:                            0.00000000000000
  Non-self consistent dispersion energy:                       -0.00182657909505
  Correction for halogen bonding:                               0.00000000000000
  Electronic entropic energy:                                  -0.00000000000000
  Fermi energy:                                                -0.24816220221741

  Total energy:                                               -15.40927472467795
  Total energy (extrapolated to T->0):                        -15.40927472467795

 ENERGY| Total FORCE_EVAL ( QS ) energy [hartree]            -15.409274724677953

 OPT| **************************************************************************
 OPT| Step number                                                             10
 OPT| Optimization method                                                   BFGS
 OPT| Total energy [hartree]                                      -15.4092747247
 OPT| Effective energy change [hartree]                            -0.0000021522
 OPT| Predicted energy change [hartree]                            -0.0000015128
 OPT| Scaling factor                                                0.0000000000
 OPT| Step size                                                     0.0088803639
 OPT| Trust radius                                                  0.4724315332
 OPT| Decrease in energy                                                     YES
 OPT| Used time [s]                                                        0.009
 OPT|
 OPT| Maximum step size                                             0.0088803639
 OPT| Convergence limit for maximum step size                       0.0030000000
 OPT| Maximum step size is converged                                          NO
 OPT|
 OPT| RMS step size                                                 0.0030814762
 OPT| Convergence limit for RMS step size                           0.0015000000
 OPT| RMS step size is converged                                              NO
 OPT|
 OPT| Maximum gradient                                              0.0003091676
 OPT| Convergence limit for maximum gradient                        0.0004500000
 OPT| Maximum gradient is converged                                          YES
 OPT|
 OPT| RMS gradient                                                  0.0001170473
 OPT| Convergence limit for RMS gradient                            0.0003000000
 OPT| RMS gradient is converged                                              YES
 OPT| **************************************************************************
 OPT| Estimated peak process memory after this step [MiB]                    166

 --------------------------
 OPTIMIZATION STEP:     11
 --------------------------

 Extrapolation method: ASPC

 Number of electrons:                                                         24
 Number of occupied orbitals:                                                 12
 Number of molecular orbitals:                                                24

 Number of orbital functions:                                                 24
 Number of independent orbital functions:                                     24


 SCF WAVEFUNCTION OPTIMIZATION

  Step     Update method      Time    Convergence         Total energy    Change
  ------------------------------------------------------------------------------
     1 TBLite/Diag 0.40E+00    0.0     0.00407138       -15.4092759320 -1.54E+01
     2 TBLite/Diag 0.40E+00    0.0     0.00012309       -15.4092759582 -2.61E-08
     3 TBLite/Diag 0.40E+00    0.0     0.00000825       -15.4092759584 -2.32E-10
     4 TBLite/Diag 0.40E+00    0.0     0.00000438       -15.4092759584 -2.33E-11
     5 TBLite/Diag 0.40E+00    0.0     0.00000236       -15.4092759584 -7.22E-12
     6 TBLite/Diag 0.40E+00    0.0     0.00000058       -15.4092759584 -6.50E-13
     7 TBLite/Diag 0.40E+00    0.0     0.00000003       -15.4092759584  1.78E-14
     8 TBLite/Diag 0.40E+00    0.0     4.6459E-09       -15.4092759584  1.42E-14
     9 TBLite/Diag 0.40E+00    0.0     7.8075E-11       -15.4092759584 -2.13E-14

  *** SCF run converged in     9 steps ***


  Core Hamiltonian energy:                                    -15.65078509304360
  Repulsive potential energy:                                   0.15346903542526
  Electrostatic energy:                                         0.08986667641557
  Self-consistent dispersion energy:                            0.00000000000000
  Non-self consistent dispersion energy:                       -0.00182657723202
  Correction for halogen bonding:                               0.00000000000000
  Electronic entropic energy:                                  -0.00000000000000
  Fermi energy:                                                -0.24820187212495

  Total energy:                                               -15.40927595843479
  Total energy (extrapolated to T->0):                        -15.40927595843479

 ENERGY| Total FORCE_EVAL ( QS ) energy [hartree]            -15.409275958434788

 OPT| **************************************************************************
 OPT| Step number                                                             11
 OPT| Optimization method                                                   BFGS
 OPT| Total energy [hartree]                                      -15.4092759584
 OPT| Effective energy change [hartree]                            -0.0000012338
 OPT| Predicted energy change [hartree]                            -0.0000009756
 OPT| Scaling factor                                                0.0000000000
 OPT| Step size                                                     0.0069292942
 OPT| Trust radius                                                  0.4724315332
 OPT| Decrease in energy                                                     YES
 OPT| Used time [s]                                                        0.008
 OPT|
 OPT| Maximum step size                                             0.0069292942
 OPT| Convergence limit for maximum step size                       0.0030000000
 OPT| Maximum step size is converged                                          NO
 OPT|
 OPT| RMS step size                                                 0.0025541518
 OPT| Convergence limit for RMS step size                           0.0015000000
 OPT| RMS step size is converged                                              NO
 OPT|
 OPT| Maximum gradient                                              0.0001998815
 OPT| Convergence limit for maximum gradient                        0.0004500000
 OPT| Maximum gradient is converged                                          YES
 OPT|
 OPT| RMS gradient                                                  0.0000790191
 OPT| Convergence limit for RMS gradient                            0.0003000000
 OPT| RMS gradient is converged                                              YES
 OPT| **************************************************************************
 OPT| Estimated peak process memory after this step [MiB]                    166

 --------------------------
 OPTIMIZATION STEP:     12
 --------------------------

 Extrapolation method: ASPC

 Number of electrons:                                                         24
 Number of occupied orbitals:                                                 12
 Number of molecular orbitals:                                                24

 Number of orbital functions:                                                 24
 Number of independent orbital functions:                                     24


 SCF WAVEFUNCTION OPTIMIZATION

  Step     Update method      Time    Convergence         Total energy    Change
  ------------------------------------------------------------------------------
     1 TBLite/Diag 0.40E+00    0.0     0.00176337       -15.4092762177 -1.54E+01
     2 TBLite/Diag 0.40E+00    0.0     0.00016719       -15.4092762339 -1.62E-08
     3 TBLite/Diag 0.40E+00    0.0     0.00002885       -15.4092762348 -9.15E-10
     4 TBLite/Diag 0.40E+00    0.0     0.00000878       -15.4092762349 -6.39E-11
     5 TBLite/Diag 0.40E+00    0.0     0.00000226       -15.4092762349 -1.31E-11
     6 TBLite/Diag 0.40E+00    0.0     0.00000074       -15.4092762349 -9.45E-13
     7 TBLite/Diag 0.40E+00    0.0     6.7630E-09       -15.4092762349 -1.78E-14
     8 TBLite/Diag 0.40E+00    0.0     4.4088E-10       -15.4092762349  1.78E-15

  *** SCF run converged in     8 steps ***


  Core Hamiltonian energy:                                    -15.65069077120012
  Repulsive potential energy:                                   0.15339236082725
  Electrostatic energy:                                         0.08984876647653
  Self-consistent dispersion energy:                            0.00000000000000
  Non-self consistent dispersion energy:                       -0.00182659100468
  Correction for halogen bonding:                               0.00000000000000
  Electronic entropic energy:                                  -0.00000000000000
  Fermi energy:                                                -0.24831868909949

  Total energy:                                               -15.40927623490103
  Total energy (extrapolated to T->0):                        -15.40927623490103

 ENERGY| Total FORCE_EVAL ( QS ) energy [hartree]            -15.409276234901025

 OPT| **************************************************************************
 OPT| Step number                                                             12
 OPT| Optimization method                                                   BFGS
 OPT| Total energy [hartree]                                      -15.4092762349
 OPT| Effective energy change [hartree]                            -0.0000002765
 OPT| Predicted energy change [hartree]                            -0.0000002243
 OPT| Scaling factor                                                0.0000000000
 OPT| Step size                                                     0.0014948818
 OPT| Trust radius                                                  0.4724315332
 OPT| Decrease in energy                                                     YES
 OPT| Used time [s]                                                        0.008
 OPT|
 OPT| Maximum step size                                             0.0014948818
 OPT| Convergence limit for maximum step size                       0.0030000000
 OPT| Maximum step size is converged                                         YES
 OPT|
 OPT| RMS step size                                                 0.0006974701
 OPT| Convergence limit for RMS step size                           0.0015000000
 OPT| RMS step size is converged                                             YES
 OPT|
 OPT| Maximum gradient                                              0.0001540124
 OPT| Convergence limit for maximum gradient                        0.0004500000
 OPT| Maximum gradient is converged                                          YES
 OPT|
 OPT| RMS gradient                                                  0.0000470924
 OPT| Convergence limit for RMS gradient                            0.0003000000
 OPT| RMS gradient is converged                                              YES
 OPT| **************************************************************************
 OPT| Estimated peak process memory after this step [MiB]                    166

 *******************************************************************************
 ***                    GEOMETRY OPTIMIZATION COMPLETED                      ***
 *******************************************************************************

 write_final_structure: Optimization converged, writing XYZ file gladly:
  urea_GFN1_mol_geoopt-FINAL-1_12.xyz

 write_final_structure: Optimization converged, writing CIF file gladly:
  urea_GFN1_mol_geoopt-FINAL-1_12.cif

 write_final_structure: Done!

                    Reevaluating energy at the minimum

 Extrapolation method: ASPC

 Number of electrons:                                                         24
 Number of occupied orbitals:                                                 12
 Number of molecular orbitals:                                                24

 Number of orbital functions:                                                 24
 Number of independent orbital functions:                                     24


 SCF WAVEFUNCTION OPTIMIZATION

  Step     Update method      Time    Convergence         Total energy    Change
  ------------------------------------------------------------------------------
     1 TBLite/Diag 0.40E+00    0.0     1.2701E-10       -15.4092762349 -1.54E+01

  *** SCF run converged in     1 steps ***


  Core Hamiltonian energy:                                    -15.65069077123138
  Repulsive potential energy:                                   0.15339236082725
  Electrostatic energy:                                         0.08984876650779
  Self-consistent dispersion energy:                            0.00000000000000
  Non-self consistent dispersion energy:                       -0.00182659100468
  Correction for halogen bonding:                               0.00000000000000
  Electronic entropic energy:                                  -0.00000000000000
  Fermi energy:                                                -0.24831868909751

  Total energy:                                               -15.40927623490102
  Total energy (extrapolated to T->0):                        -15.40927623490102

 ENERGY| Total FORCE_EVAL ( QS ) energy [hartree]            -15.409276234901021

 -------------------------------------------------------------------------------
 -                                                                             -
 -                                DBCSR STATISTICS                             -
 -                                                                             -
 -------------------------------------------------------------------------------
 COUNTER                                    TOTAL       BLAS       SMM       ACC
 flops     2 x    24 x     2               168960       0.0%    100.0%      0.0%     
 flops     2 x     2 x    24               291840       0.0%    100.0%      0.0%     
 flops     4 x    24 x     2               337920       0.0%    100.0%      0.0%     
 flops     2 x    24 x     4               337920       0.0%    100.0%      0.0%     
 flops     4 x     2 x    24               466944       0.0%    100.0%      0.0%     
 flops     2 x     4 x    24               466944       0.0%    100.0%      0.0%     
 flops     4 x    24 x     4               675840       0.0%    100.0%      0.0%     
 flops     4 x     4 x    24              1167360       0.0%    100.0%      0.0%     
 flops inhomo. stacks                           0       0.0%      0.0%      0.0%
 flops total                         3.913728E+06       0.0%    100.0%      0.0%
 flops max/rank                      3.913728E+06       0.0%    100.0%      0.0%
 matmuls inhomo. stacks                         0       0.0%      0.0%      0.0%
 matmuls total                               8992       0.0%    100.0%      0.0%
 number of processed stacks                   828       0.0%    100.0%      0.0%
 average stack size                                     0.0      10.9       0.0
 marketing flops                     3.621888E+06
 -------------------------------------------------------------------------------
 # multiplications                            207
 max memory usage/rank              13.670998E+09
 # max total images/rank                        1
 # max 3D layers                                1
 # MPI messages exchanged                       0
 -------------------------------------------------------------------------------
 -                                                                             -
 -                      DBCSR MESSAGE PASSING PERFORMANCE                      -
 -                                                                             -
 -------------------------------------------------------------------------------
 ROUTINE             CALLS      AVE VOLUME [Bytes]
 MP_Bcast                9                     12.
 MP_Allreduce          960                      9.
 MP_Alltoall          6611                   3106.
 MP_ISend              828                    309.
 MP_IRecv              828                    309.
 -------------------------------------------------------------------------------

 -------------------------------------------------------------------------------
 -                                                                             -
 -                          OFFLOAD MEMPOOL STATISTICS                         -
 -                                                                             -
 -------------------------------------------------------------------------------
 Memory consumption                Number of allocations  Used [MiB]  Size [MiB]
 Device                                                1           0           0
 Host                                                  1           0           0
 -------------------------------------------------------------------------------

 MEMORY| Estimated peak process memory [MiB]                                 167

 -------------------------------------------------------------------------------
 -                                                                             -
 -                         MESSAGE PASSING PERFORMANCE                         -
 -                                                                             -
 -------------------------------------------------------------------------------

 ROUTINE             CALLS      AVE VOLUME [Bytes]
 MP_Group                1
 MP_Bcast              290                    103.
 MP_Allreduce         2590                     55.
 MP_Sync               153
 MP_comm_split         152
 -------------------------------------------------------------------------------


 -------------------------------------------------------------------------------
 -                                                                             -
 -                           R E F E R E N C E S                               -
 -                                                                             -
 -------------------------------------------------------------------------------
 
 CP2K version 2026.1 (Development Version), the CP2K developers group (2026).
 CP2K is freely available from https://www.cp2k.org/ .
 
 M. Iannuzzi, J. Wilhelm, F. Stein, A. Bussy, H. Elgabarty, D. Golze, A. Hehn, 
 M. Graml, S. Marek, B. Sertcan Gökmen, C. Schran, H. Forbert, R. Z. 
 Khaliullin, A. Kozhevnikov, M. Taillefumier, R. Meli, V. V. Rybkin, M. Brehm, 
 R. Schade, O. Schütt, J. V. Pototschnig, H. Mirhosseini, A. Knüpfer, D. Marx, 
 M. Krack, J. Hutter, T. D. Kühne.
 J. Phys. Chem. B 130, 1237-1310 (2026).
 The CP2K Program Package Made Simple.
 https://doi.org/10.1021/acs.jpcb.5c05851

 A. Katbashev, M. Stahn, T. Rose, V. Alizadeh, M. Friede, C. Plett, P. 
 Steinbach, S. Ehlert.
 J. Phys. Chem. A 129, 2667-2682 (2025).
 Overview on Building Blocks and Applications of Efficient and Robust Extended 
 Tight Binding.
 https://doi.org/10.1021/acs.jpca.4c08263

 T. D. Kühne, M. Iannuzzi, M. Del Ben, V. V. Rybkin, P. Seewald, F. Stein, T. 
 Laino, R. Z. Khaliullin, O. Schütt, F. Schiffmann, D. Golze, J. Wilhelm, S. 
 Chulkov, M. H. Bani-Hashemian, V. Weber, U. Borstnik, M. Taillefumier, A. S. 
 Jakobovits, A. Lazzaro, H. Pabst, T. Müller, R. Schade, M. Guidon, S. 
 Andermatt, N. Holmberg, G. K. Schenter, A. Hehn, A. Bussy, F. Belleflamme, G. 
 Tabacchi, A. Glöß, M. Lass, I. Bethune, C. J. Mundy, C. Plessl, M. Watkins, 
 J. VandeVondele, M. Krack, J. Hutter.
 J. Chem. Phys. 152, 194103 (2020).
 CP2K: An electronic structure and molecular dynamics software package - 
 Quickstep: Efficient and accurate electronic structure calculations.
 https://doi.org/10.1063/5.0007045

 P. Pracht, E. Caldeweyher, S. Ehlert, S. Grimme.
 ChemRxiv, (2019).
 A Robust Non-Self-Consistent Tight-Binding Quantum Chemistry Method for large 
 Molecules.
 https://doi.org/10.26434/chemrxiv.8326202.v1

 S. Grimme, C. Bannwarth, P. Shushkov.
 J. Chem. Theory Comput. 13, 1989 (2017).
 A Robust and Accurate Tight-Binding Quantum Chemical Method for Structures, 
 Vibrational Frequencies, and Noncovalent Interactions of Large Molecular 
 Systems Parametrized for All spd-Block Elements (Z = 1-86).
 https://doi.org/10.1021/acs.jctc.7b00118

 O. Schuett, P. Messmer, J. Hutter, J. VandeVondele.
 Electronic Structure Calculations on Graphics Processing Units, 173-190 (2016).
 GPU-Accelerated Sparse Matrix-Matrix Multiplication for Linear Scaling Density 
 Functional Theory.
 https://doi.org/10.1002/9781118670712.ch8

 A. Heinecke, G. Henry, M. Hutchinson, H. Pabst.
 Proceedings of Intl. Supercomputing Conference, 981-991 (2016).
 LIBXSMM: Accelerating Small Matrix Multiplications by Runtime Code Generation.
 https://doi.org/10.1109/SC.2016.83

 U. Borstnik, J. VandeVondele, V. Weber, J. Hutter.
 Parallel Comput. 40, 47-58 (2014).
 Sparse matrix multiplication: The distributed block-compressed sparse row 
 library.
 https://doi.org/10.1016/j.parco.2014.03.012

 T. D. Kühne, M. Krack, F. R. Mohamed, M. Parrinello.
 Phys. Rev. Lett. 98, 066401 (2007).
 Efficient and accurate Car-Parrinello-like approach to Born-Oppenheimer 
 molecular dynamics.
 https://doi.org/10.1103/PhysRevLett.98.066401

 M. Frigo, S. G. Johnson.
 Proc. IEEE 93, 216-231 (2005).
 The design and implementation of FFTW3.
 https://doi.org/10.1109/JPROC.2004.840301

 J. Kolafa.
 J. Comput. Chem. 25, 335-342 (2004).
 Time-reversible always stable predictor-corrector method for molecular dynamics 
 of polarizable molecules.
 https://doi.org/10.1002/jcc.10385

 N. D. Mermin.
 Phys. Rev. 137, A1441-A1443 (1965).
 Thermal Properties of the Inhomogeneous Electron Gas.
 https://doi.org/10.1103/PhysRev.137.A1441


 -------------------------------------------------------------------------------
 -                                                                             -
 -                                T I M I N G                                  -
 -                                                                             -
 -------------------------------------------------------------------------------
 SUBROUTINE                       CALLS  ASD         SELF TIME        TOTAL TIME
                                MAXIMUM       AVERAGE  MAXIMUM  AVERAGE  MAXIMUM
 CP2K                                 1  1.0    0.001    0.001    0.121    0.121
 cp_geo_opt                           1  2.0    0.000    0.000    0.115    0.115
 geoopt_bfgs                          1  3.0    0.001    0.001    0.115    0.115
 cp_eval_at                          14  4.0    0.000    0.000    0.109    0.109
 qs_forces                           13  5.0    0.000    0.000    0.106    0.106
 qs_energies                         14  5.9    0.000    0.000    0.095    0.095
 scf_env_do_scf                      14  6.9    0.000    0.000    0.068    0.068
 scf_env_do_scf_inner_loop          126  8.0    0.002    0.002    0.068    0.068
 qs_scf_new_mos                     126  9.0    0.000    0.000    0.059    0.059
 cp_dbcsr_plus_fm_fm_t              152 10.8    0.000    0.000    0.035    0.035
 calculate_dm_sparse                139 10.0    0.000    0.000    0.032    0.032
 dbcsr_multiply_generic             207 12.0    0.002    0.002    0.031    0.031
 make_m2s                           414 13.0    0.001    0.001    0.018    0.018
 copy_dbcsr_to_fm                   307 10.5    0.001    0.001    0.018    0.018
 init_scf_run                        14  6.9    0.000    0.000    0.017    0.017
 dbcsr_complete_redistribute        666 12.2    0.007    0.007    0.016    0.016
 scf_env_initial_rho_setup           14  7.9    0.000    0.000    0.016    0.016
 wfi_extrapolate                     14  8.9    0.000    0.000    0.016    0.016
 eigensolver                        126 10.0    0.001    0.001    0.011    0.011
 rebuild_ks_matrix                  139  9.7    0.000    0.000    0.011    0.011
 cp_fm_syevd                        152 10.6    0.000    0.000    0.011    0.011
 build_tblite_ks_matrix             139 10.7    0.010    0.010    0.011    0.011
 cp_dbcsr_sm_fm_multiply             55 10.4    0.000    0.000    0.010    0.010
 qs_diis_b_step                     112 10.0    0.000    0.000    0.010    0.010
 copy_fm_to_dbcsr                   359 11.7    0.000    0.000    0.009    0.009
 build_tblite_matrices               27  7.0    0.008    0.008    0.009    0.009
 qs_ks_update_qs_env_forces          13  6.0    0.000    0.000    0.008    0.008
 make_images                        414 14.0    0.002    0.002    0.008    0.008
 dbcsr_finalize                    2455 13.3    0.002    0.002    0.006    0.006
 cp_fm_syevd_base                   152 11.6    0.006    0.006    0.006    0.006
 multiply_cannon                    207 13.0    0.003    0.003    0.006    0.006
 qs_energies_init_hamiltonians       14  6.9    0.000    0.000    0.006    0.006
 cp_dbcsr_sm_fm_multiply_core        55 11.4    0.000    0.000    0.006    0.006
 dbcsr_create_new                  4732 13.4    0.004    0.004    0.005    0.005
 dbcsr_crop_matrix                  304 13.8    0.001    0.001    0.005    0.005
 dbcsr_desymmetrize_deep            307 11.5    0.002    0.002    0.005    0.005
 reorthogonalize_vectors             13  9.9    0.000    0.000    0.004    0.004
 make_basis_lowdin                   13 10.9    0.000    0.000    0.004    0.004
 dbcsr_copy_submatrix               304 14.8    0.001    0.001    0.004    0.004
 qs_init_subsys                       1  2.0    0.001    0.001    0.004    0.004
 dbcsr_merge_all                   1122 14.8    0.002    0.002    0.003    0.003
 parallel_gemm_fm_gemm              347 10.5    0.000    0.000    0.003    0.003
 compute_matrix_w                    14  6.9    0.000    0.000    0.003    0.003
 qs_ks_update_qs_env                126  9.0    0.000    0.000    0.003    0.003
 calculate_w_matrix_1                13  8.0    0.000    0.000    0.003    0.003
 cp_fm_gemm                         347 11.5    0.003    0.003    0.003    0.003
 make_images_data                   414 15.0    0.001    0.001    0.003    0.003
 cp_fm_redistribute_start           152 11.6    0.002    0.002    0.003    0.003
 write_restart                       13  4.0    0.002    0.002    0.003    0.003
 dbcsr_destroy                     4467 12.8    0.002    0.002    0.003    0.003
 dbcsr_make_images_dense            304 13.8    0.000    0.000    0.003    0.003
 -------------------------------------------------------------------------------

 The number of warnings for this run is : 0
 
 -------------------------------------------------------------------------------
  **** **** ******  **  PROGRAM ENDED AT                 2026-05-23 22:46:20.634
 ***** ** ***  *** **   PROGRAM RAN ON                                spark-c86c
 **    ****   ******    PROGRAM RAN BY                                  kuehne88
 ***** **    ** ** **   PROGRAM PROCESS ID                               2226027
  **** **  *******  **  PROGRAM STOPPED IN /home/kuehne88/periodic-gfn2-benchmar
                                           ks/X23b/runs/molecule_geoopt/GFN1/ure
                                           a_GFN1_mol_geoopt
