 DBCSR| CPU Multiplication driver                                           BLAS (U)
 DBCSR| Multrec recursion limit                                              512 (U)
 DBCSR| Multiplication stack size                                           1000 (D)
 DBCSR| Maximum elements for images                                    UNLIMITED (U)
 DBCSR| Multiplicative factor virtual images                                   1 (U)
 DBCSR| Use multiplication densification                                       T (D)
 DBCSR| Multiplication size stacks                                             3 (U)
 DBCSR| Use memory pool for CPU allocation                                     F (U)
 DBCSR| Number of 3D layers                                               SINGLE (U)
 DBCSR| Use MPI memory allocation                                              F (U)
 DBCSR| Use RMA algorithm                                                      F (U)
 DBCSR| Use Communication thread                                               T (U)
 DBCSR| Communication thread load                                             87 (D)
 DBCSR| MPI: My process id                                                     0
 DBCSR| MPI: Number of processes                                               1
 DBCSR| OMP: Current number of threads                                         1
 DBCSR| OMP: Max number of threads                                             1
 DBCSR| Split modifier for TAS multiplication algorithm                  1.0E+00 (U)


  **** **** ******  **  PROGRAM STARTED AT               2026-07-21 16:08:52.745
 ***** ** ***  *** **   PROGRAM STARTED ON                                 terok
 **    ****   ******    PROGRAM STARTED BY                              kuehne88
 ***** **    ** ** **   PROGRAM PROCESS ID                               1012179
  **** **  *******  **  PROGRAM STARTED IN /home/kuehne88/work/h2o-molecular-lim
                                           it-20260721/stress_debug_8_50/raw/H2O
                                           _stress_L08

 CP2K| version string:                 CP2K version 2026.2 (Development Version)
 CP2K| source code revision number:                                    8520b2e59
 CP2K| cp2kflags: omp parallel scalapack spglib s_dftd3 mctc-lib tblite tblite_g
 CP2K|            xtb
 CP2K| is freely available from                            https://www.cp2k.org/
 CP2K| Program compiled at                                   2026-07-18 23:48:15
 CP2K| Program compiled on                                                 terok
 CP2K| Program compiled for                                               x86_64
 CP2K| Data directory path                            /usr/local/share/cp2k/data
 CP2K| Input file name        /home/kuehne88/work/h2o-molecular-limit-20260721/s

 GLOBAL| Force Environment number                                              1
 GLOBAL| Basis set file name                                           BASIS_SET
 GLOBAL| Potential file name                                           POTENTIAL
 GLOBAL| MM Potential file name                                     MM_POTENTIAL
 GLOBAL| Coordinate file name                                      __STD_INPUT__
 GLOBAL| Method name                                                        CP2K
 GLOBAL| Project name                                             H2O_stress_L08
 GLOBAL| Run type                                                          DEBUG
 GLOBAL| FFT library                                                       FFTW3
 GLOBAL| Diagonalization library                                       ScaLAPACK
 GLOBAL| Cholesky decomposition library                                ScaLAPACK
 GLOBAL| DGEMM library                                                      BLAS
 GLOBAL| Direct generalized diagonalization requested                          F
 GLOBAL| Orthonormality check for eigenvectors                          DISABLED
 GLOBAL| Matrix multiplication library                                 ScaLAPACK
 GLOBAL| All-to-all communication in single precision                          F
 GLOBAL| FFTs using library dependent lengths                                  F
 GLOBAL| Grid backend                                                       AUTO
 GLOBAL| Global print level                                               MEDIUM
 GLOBAL| MPI I/O enabled                                                       T
 GLOBAL| Total number of message passing processes                             1
 GLOBAL| Number of distributed systems (nodes)                                 1
 GLOBAL| Number of threads for this process                                    1
 GLOBAL| This output is from process                                           0
 GLOBAL| OpenMP stack size per thread (OMP_STACKSIZE)                    default
 GLOBAL| CPU model name                                       AMD EPYC Processor
 GLOBAL| CPUID                                                              1002

 MEMORY| system memory details [Kb]
 MEMORY|                        rank 0           min           max       average
 MEMORY| MemTotal            528104804     528104804     528104804     528104804
 MEMORY| MemFree             511845136     511845136     511845136     511845136
 MEMORY| Buffers                    20            20            20            20
 MEMORY| Cached               12271200      12271200      12271200      12271200
 MEMORY| Slab                  2373876       2373876       2373876       2373876
 MEMORY| SReclaimable          1020380       1020380       1020380       1020380
 MEMORY| MemLikelyFree       525136736     525136736     525136736     525136736


 *** WARNING in environment.F:1098 :: FFT library FFTW3 is not available. ***
 *** Trying FFT library FFTSG.                                            ***


 *** Fundamental physical constants (SI units) ***

 *** Literature: B. J. Mohr and B. N. Taylor,
 ***             CODATA recommended values of the fundamental physical
 ***             constants: 2006, Web Version 5.1
 ***             http://physics.nist.gov/constants

 Speed of light in vacuum [m/s]                             2.99792458000000E+08
 Magnetic constant or permeability of vacuum [N/A**2]       1.25663706143592E-06
 Electric constant or permittivity of vacuum [F/m]          8.85418781762039E-12
 Planck constant (h) [J*s]                                  6.62606896000000E-34
 Planck constant (h-bar) [J*s]                              1.05457162825177E-34
 Elementary charge [C]                                      1.60217648700000E-19
 Electron mass [kg]                                         9.10938215000000E-31
 Electron g factor [ ]                                     -2.00231930436220E+00
 Proton mass [kg]                                           1.67262163700000E-27
 Fine-structure constant                                    7.29735253760000E-03
 Rydberg constant [1/m]                                     1.09737315685270E+07
 Avogadro constant [1/mol]                                  6.02214179000000E+23
 Boltzmann constant [J/K]                                   1.38065040000000E-23
 Atomic mass unit [kg]                                      1.66053878200000E-27
 Bohr radius [m]                                            5.29177208590000E-11

 *** Conversion factors ***

 [u] -> [a.u.]                                              1.82288848426455E+03
 [Angstrom] -> [Bohr] = [a.u.]                              1.88972613288564E+00
 [a.u.] = [Bohr] -> [Angstrom]                              5.29177208590000E-01
 [a.u.] -> [s]                                              2.41888432650478E-17
 [a.u.] -> [fs]                                             2.41888432650478E-02
 [a.u.] -> [J]                                              4.35974393937059E-18
 [a.u.] -> [N]                                              8.23872205491840E-08
 [a.u.] -> [K]                                              3.15774647902944E+05
 [a.u.] -> [kJ/mol]                                         2.62549961709828E+03
 [a.u.] -> [kcal/mol]                                       6.27509468713739E+02
 [a.u.] -> [Pa]                                             2.94210107994716E+13
 [a.u.] -> [bar]                                            2.94210107994716E+08
 [a.u.] -> [atm]                                            2.90362800883016E+08
 [a.u.] -> [eV]                                             2.72113838565563E+01
 [a.u.] -> [Hz]                                             6.57968392072181E+15
 [a.u.] -> [1/cm] (wave numbers)                            2.19474631370540E+05
 [a.u./Bohr**2] -> [1/cm]                                   5.14048714338585E+03
 

 CELL| Volume [angstrom^3]:                                           512.000000
 CELL| Vector a [angstrom]:       8.000     0.000     0.000   |a| =     8.000000
 CELL| Vector b [angstrom]:       0.000     8.000     0.000   |b| =     8.000000
 CELL| Vector c [angstrom]:       0.000     0.000     8.000   |c| =     8.000000
 CELL| Angle (b,c), alpha [degree]:                                    90.000000
 CELL| Angle (a,c), beta  [degree]:                                    90.000000
 CELL| Angle (a,b), gamma [degree]:                                    90.000000
 CELL| Numerically orthorhombic:                                             YES
 CELL| Periodicity                                                           XYZ

 CELL_REF| Volume [angstrom^3]:                                       512.000000
 CELL_REF| Vector a [angstrom     8.000     0.000     0.000   |a| =     8.000000
 CELL_REF| Vector b [angstrom     0.000     8.000     0.000   |b| =     8.000000
 CELL_REF| Vector c [angstrom     0.000     0.000     8.000   |c| =     8.000000
 CELL_REF| Angle (b,c), alpha [degree]:                                90.000000
 CELL_REF| Angle (a,c), beta  [degree]:                                90.000000
 CELL_REF| Angle (a,b), gamma [degree]:                                90.000000
 CELL_REF| Numerically orthorhombic:                                         YES
 CELL_REF| Periodicity                                                       XYZ

 GENERATE|  Preliminary Number of Bonds generated:                             0
 GENERATE|  Achieved consistency in connectivity generation.


                  #####   #####        #     #   #     #       #          
                 #     # #     #      #    ##### #     #   # #####  ####  
                 #     # #           #       #   ###   #       #   #    # 
                 #     #  #####     #        #   #  #  #   #   #   ###### 
                 #   # #       #   #         #   #   # #   #   #   #      
                 #    #  #     #  #          #   #  #  # # #   #    #   # 
                  #### #  #####  #           #   ###   ##  #   #     ###  

                                     g-xTB   
                                 Version 0.0                       
                            Johann V. Pototschnig                  

                tblite provider: SAVE
                tblite source revision: 15915c9435644eb257178ca8f8bf7220c38b1a84
                g-xTB support: enabled

 xTB| Parameter file                                             xTB1_parameters
 xTB| Basis expansion STO-NG                                                   6
 xTB| Basis expansion STO-NG for Hydrogen                                      4
 xTB| Repulsive pair potential accuracy                               0.1000E-09
 xTB| Repulsive enhancement factor                                      0.000000
 xTB| Halogen interaction potential                                            T
 xTB| Halogen interaction potential cutoff radius                         20.000
 xTB| Nonbonded interactions                                                   F
 xTB| vdW potential type:                                              DFTD3(BJ)
 xTB| D3 Dispersion: Parameter                                         dftd3.dat
 xTB| Huckel constants ks kp kd                        1.850     2.250     2.000
 xTB| Huckel constants ksp k2sh                                  2.080     2.850
 xTB| Mataga-Nishimoto exponent                                            2.000
 xTB| Repulsion potential exponent                                         1.500
 xTB| Coordination number scaling kcn(s) kcn(p) kc     0.006    -0.003    -0.005
 xTB| Electronegativity scaling                                           -0.007
 xTB| Halogen potential scaling kxr kx2                          1.300     0.440
 xTB| SCC mixer:                                                       TBLITE
 xTB| tblite accuracy:                                                 1.000E-01
 xTB| tblite SCC mixer damping:                                            0.400
 xTB| tblite SCC mixer iterations:                                           300
 xTB| tblite SCC mixer memory:                                               300
 xTB| tblite SCC mixer solver:                                         GVD
 xTB| tblite SCC mixer omega0:                                         1.000E-02
 xTB| tblite SCC mixer min weight:                                     1.000E+00
 xTB| tblite SCC mixer max weight:                                     1.000E+05
 xTB| tblite SCC mixer weight factor:                                  1.000E-02




 ATOMIC KIND INFORMATION

  1. Atomic kind: O                                     Number of atoms:       1

     Orbital Basis Set                                                 O _STO-6G

       Number of orbital shell sets:                                           2
       Number of orbital shells:                                               2
       Number of primitive Cartesian functions:                               12
       Number of Cartesian basis functions:                                    4
       Number of spherical basis functions:                                    4
       Norm type:                                                              3

       Normalised Cartesian orbitals:

                        Set   Shell   Orbital            Exponent    Coefficient

                          1       1    1s                3.483595      -1.313024
                                                         2.859866       1.114872
                                                         0.740681       0.294550
                                                         0.344927       0.081390
                                                         0.261979       0.039458
                                                         0.094616       0.012363

                          2       1    2px              37.641471       1.474721
                                                         9.713089       1.794175
                                                         3.137177       1.303626
                                                         1.121381       0.633327
                                                         0.398078       0.183090
                                                         0.123048       0.019124
                          2       1    2py              37.641471       1.474721
                                                         9.713089       1.794175
                                                         3.137177       1.303626
                                                         1.121381       0.633327
                                                         0.398078       0.183090
                                                         0.123048       0.019124
                          2       1    2pz              37.641471       1.474721
                                                         9.713089       1.794175
                                                         3.137177       1.303626
                                                         1.121381       0.633327
                                                         0.398078       0.183090
                                                         0.123048       0.019124

     AE Potential information for                                         Oxygen

       Description:                                       Bare Coulomb Potential
                                                             Valence charge only

       Gaussian exponent of the core charge distribution:               3.753049
       Electronic configuration (s p d ...):                       2   4   0   0

  2. Atomic kind: H                                     Number of atoms:       2

     Orbital Basis Set                                                 H _STO-8G

       Number of orbital shell sets:                                           1
       Number of orbital shells:                                               1
       Number of primitive Cartesian functions:                                8
       Number of Cartesian basis functions:                                    1
       Number of spherical basis functions:                                    1
       Norm type:                                                              3

       Normalised Cartesian orbitals:

                        Set   Shell   Orbital            Exponent    Coefficient

                          1       1    1s              337.005012       0.038636
                                                        53.310531       0.064369
                                                        12.208253       0.119184
                                                         3.418827       0.179125
                                                         1.108790       0.225727
                                                         0.478718       0.127521
                                                         0.212137       0.089380
                                                         0.069058      -0.000553

     AE Potential information for                                       Hydrogen

       Description:                                       Bare Coulomb Potential
                                                              Full atomic charge

       Gaussian exponent of the core charge distribution:              12.500000
       Electronic configuration (s p d ...):                       1   0   0   0


 MOLECULE KIND INFORMATION


 All atoms are their own molecule, skipping detailed information


 TOTAL NUMBERS AND MAXIMUM NUMBERS

  Total number of            - Atomic kinds:                                   2
                             - Atoms:                                          3
                             - Shell sets:                                     4
                             - Shells:                                         4
                             - Primitive Cartesian functions:                 28
                             - Cartesian basis functions:                      6
                             - Spherical basis functions:                      6

  Maximum angular momentum of the orbital basis functions:                     1


 MODULE QUICKSTEP: ATOMIC COORDINATES IN ANGSTROM

   Atom Kind Element         X             Y             Z       Z(eff)     Mass
      1    1 O     8      0.000000      0.000000      0.000000   6.0000  15.9994
      2    2 H     1      0.758602      0.000000      0.504284   1.0000   1.0079
      3    2 H     1     -0.758602      0.000000      0.504284   1.0000   1.0079



 SCF PARAMETERS         Density guess:                                     MOPAC
                        --------------------------------------------------------
                        max_scf:                                             300
                        max_scf_history:                                       0
                        max_diis:                                              4
                        --------------------------------------------------------
                        eps_scf:                                        1.00E-10
                        eps_scf_history:                                0.00E+00
                        eps_diis:                                       1.00E-01
                        eps_eigval:                                     1.00E-05
                        --------------------------------------------------------
                        level_shift [a.u.]:                             0.000000
                        added MOs                                         2    0
                        --------------------------------------------------------
                        Mixing method:                           DIRECT_P_MIXING
                        --------------------------------------------------------
                        No outer SCF

 PW_GRID| Information for grid number                                          1
 PW_GRID| Cutoff [a.u.]                                                      1.0
 PW_GRID| spherical cutoff:                                                   NO
 PW_GRID|   Bounds   1             -4       3                Points:           8
 PW_GRID|   Bounds   2             -4       3                Points:           8
 PW_GRID|   Bounds   3             -4       3                Points:           8
 PW_GRID| Volume element (a.u.^3)   6.748         Volume (a.u.^3)      3455.1473
 PW_GRID| Grid span                                                    FULLSPACE

 POISSON| Solver                                                        PERIODIC
 POISSON| Periodicity                                                        XYZ

 RS_GRID| Information for grid number                                          1
 RS_GRID|   Bounds   1             -4       3                Points:           8
 RS_GRID|   Bounds   2             -4       3                Points:           8
 RS_GRID|   Bounds   3             -4       3                Points:           8

 Extrapolation method: initial_guess

 Number of electrons:                                                          8
 Number of occupied orbitals:                                                  4
 Number of molecular orbitals:                                                 6

 Number of orbital functions:                                                  6
 Number of independent orbital functions:                                      6


 SCF WAVEFUNCTION OPTIMIZATION

  Step     Update method      Time    Convergence         Total energy    Change
  ------------------------------------------------------------------------------
     1 GXTB-Raw    0.10E+01    0.0     0.77507450       -76.4962180941 -7.65E+01
     2 GXTB-Simple 0.20E+00    0.0     0.06691123       -76.5121412745 -1.59E-02
     3 GXTB-Simple 0.20E+00    0.0     0.04677697       -76.5202987750 -8.16E-03
     4 GXTB-FDIIS  0.10E+01    0.0     0.11013537       -76.5289804429 -8.68E-03
     5 GXTB-FDIIS  0.10E+01    0.0     0.01100020       -76.5290749934 -9.46E-05
     6 GXTB-FDIIS  0.10E+01    0.0     0.00161467       -76.5290763600 -1.37E-06
     7 GXTB-FDIIS  0.10E+01    0.0     0.00013779       -76.5290763647 -4.77E-09
     8 GXTB-FDIIS  0.10E+01    0.0     0.00000938       -76.5290763647 -1.24E-11
     9 GXTB-FDIIS  0.10E+01    0.0     0.00000111       -76.5290763647 -3.41E-13
    10 GXTB-FDIIS  0.10E+01    0.0     0.00000019       -76.5290763647 -1.42E-14
    11 GXTB-FDIIS  0.10E+01    0.0     1.3604E-10       -76.5290763647  1.42E-14
    12 GXTB-FDIIS  0.10E+01    0.0     3.1308E-14       -76.5290763647 -1.42E-14

  *** SCF run converged in    12 steps ***


  Core Hamiltonian energy:                                     -6.34170157182990
  Repulsive potential energy:                                   0.41001433873555
  Electrostatic energy:                                         0.15879306619861
  Self-consistent dispersion energy:                           -0.00005182460857
  Non-self consistent dispersion energy:                        0.00000019346743
  Correction for halogen bonding:                               0.00000000000000

  Total energy:                                               -76.52907636474212


 MULLIKEN POPULATION ANALYSIS

  # Atom   Element   Kind        Atomic population                    Net charge
       1     O          1                 6.694867                     -0.694867
       2     H          2                 0.652566                      0.347434
       3     H          2                 0.652566                      0.347434
 # Total charge                           8.000000                     -0.000000


 tblite reference CLI check
 Executable: tblite
 Method:     gxtb
 Guess:      auto
 Solver:     gvd
 Spin-pol.:  F
 Grad file:  H2O_stress_L08_cli.grad
 JSON file:  H2O_stress_L08_cli.json
 Log file:   H2O_stress_L08_cli.log
 Energy CP2K/CLI/absdiff:   -7.652907636474E+01   -7.652907636490E+01    1.613216227270E-10
 Gradient diff sum/max:    5.839357842693E-08    1.526422171300E-08
 Virial diff sum/max:    5.610930386280E-08    4.316894336442E-08

 ENERGY| Total FORCE_EVAL ( QS ) energy [hartree]            -76.529076364742124

 -------------------------------------------------------------------------------
 ----                             MULTIGRID INFO                            ----
 -------------------------------------------------------------------------------
 total grid count     :           420              cutoff [a.u.]            1.00

 PW_GRID| Information for grid number                                          2
 PW_GRID| Cutoff [a.u.]                                                      1.0
 PW_GRID| spherical cutoff:                                                   NO
 PW_GRID|   Bounds   1             -4       3                Points:           8
 PW_GRID|   Bounds   2             -4       3                Points:           8
 PW_GRID|   Bounds   3             -4       3                Points:           8
 PW_GRID| Volume element (a.u.^3)   6.748         Volume (a.u.^3)      3455.1702
 PW_GRID| Grid span                                                    FULLSPACE

 POISSON| Solver                                                        PERIODIC
 POISSON| Periodicity                                                        XYZ

 RS_GRID| Information for grid number                                          2
 RS_GRID|   Bounds   1             -4       3                Points:           8
 RS_GRID|   Bounds   2             -4       3                Points:           8
 RS_GRID|   Bounds   3             -4       3                Points:           8

 Parameters for the always stable predictor-corrector (ASPC) method:

  ASPC order: 0

  B(1) =   1.000000

 Extrapolation method: ASPC

 Number of electrons:                                                          8
 Number of occupied orbitals:                                                  4
 Number of molecular orbitals:                                                 6

 Number of orbital functions:                                                  6
 Number of independent orbital functions:                                      6


 SCF WAVEFUNCTION OPTIMIZATION

  Step     Update method      Time    Convergence         Total energy    Change
  ------------------------------------------------------------------------------
     1 GXTB-Raw    0.10E+01    0.0     0.00000518       -76.5290766776 -7.65E+01
     2 GXTB-Simple 0.20E+00    0.0     0.00000058       -76.5290766776 -8.38E-13
     3 GXTB-Simple 0.20E+00    0.0     0.00000047       -76.5290766776 -5.26E-13
     4 GXTB-FDIIS  0.10E+01    0.0     0.00000210       -76.5290766776 -1.02E-12
     5 GXTB-FDIIS  0.10E+01    0.0     0.00000011       -76.5290766776 -1.42E-14
     6 GXTB-FDIIS  0.10E+01    0.0     0.00000004       -76.5290766776  1.42E-14
     7 GXTB-FDIIS  0.10E+01    0.0     8.9244E-10       -76.5290766776 -1.42E-14
     8 GXTB-FDIIS  0.10E+01    0.0     1.1102E-14       -76.5290766776  0.00E+00

  *** SCF run converged in     8 steps ***


  Core Hamiltonian energy:                                     -6.34169582892173
  Repulsive potential energy:                                   0.41000711582022
  Electrostatic energy:                                         0.15879339930039
  Self-consistent dispersion energy:                           -0.00005182491836
  Non-self consistent dispersion energy:                        0.00000019346637
  Correction for halogen bonding:                               0.00000000000000

  Total energy:                                               -76.52907667762457


 MULLIKEN POPULATION ANALYSIS

  # Atom   Element   Kind        Atomic population                    Net charge
       1     O          1                 6.694867                     -0.694867
       2     H          2                 0.652567                      0.347433
       3     H          2                 0.652567                      0.347433
 # Total charge                           8.000000                     -0.000000


 tblite reference CLI check
 Executable: tblite
 Method:     gxtb
 Guess:      auto
 Solver:     gvd
 Spin-pol.:  F
 Grad file:  H2O_stress_L08_cli.grad
 JSON file:  H2O_stress_L08_cli.json
 Log file:   H2O_stress_L08_cli.log
 Energy CP2K/CLI/absdiff:   -7.652907667762E+01   -7.652907667779E+01    1.613642552911E-10
 Gradient diff sum/max:    1.879239264704E-05    4.799453399769E-06
 Virial diff sum/max:    1.175897460400E-01    6.234118274203E-02
 tblite reference CLI deviation exceeded ERROR_LIMIT =   1.0000E-05

 ENERGY| Total FORCE_EVAL ( QS ) energy [hartree]            -76.529076677624573

 -------------------------------------------------------------------------------
 ----                             MULTIGRID INFO                            ----
 -------------------------------------------------------------------------------
 total grid count     :           420              cutoff [a.u.]            1.00

 PW_GRID| Information for grid number                                          3
 PW_GRID| Cutoff [a.u.]                                                      1.0
 PW_GRID| spherical cutoff:                                                   NO
 PW_GRID|   Bounds   1             -4       3                Points:           8
 PW_GRID|   Bounds   2             -4       3                Points:           8
 PW_GRID|   Bounds   3             -4       3                Points:           8
 PW_GRID| Volume element (a.u.^3)   6.748         Volume (a.u.^3)      3455.1245
 PW_GRID| Grid span                                                    FULLSPACE

 POISSON| Solver                                                        PERIODIC
 POISSON| Periodicity                                                        XYZ

 RS_GRID| Information for grid number                                          3
 RS_GRID|   Bounds   1             -4       3                Points:           8
 RS_GRID|   Bounds   2             -4       3                Points:           8
 RS_GRID|   Bounds   3             -4       3                Points:           8

 Parameters for the always stable predictor-corrector (ASPC) method:

  ASPC order: 0

  B(1) =   2.000000
  B(2) =  -1.000000

 Extrapolation method: ASPC

 Number of electrons:                                                          8
 Number of occupied orbitals:                                                  4
 Number of molecular orbitals:                                                 6

 Number of orbital functions:                                                  6
 Number of independent orbital functions:                                      6


 SCF WAVEFUNCTION OPTIMIZATION

  Step     Update method      Time    Convergence         Total energy    Change
  ------------------------------------------------------------------------------
     1 GXTB-Raw    0.10E+01    0.0     0.00001036       -76.5290760518 -7.65E+01
     2 GXTB-Simple 0.20E+00    0.0     0.00000115       -76.5290760518 -3.35E-12
     3 GXTB-Simple 0.20E+00    0.0     0.00000095       -76.5290760518 -2.13E-12
     4 GXTB-FDIIS  0.10E+01    0.0     0.00000421       -76.5290760518 -4.06E-12
     5 GXTB-FDIIS  0.10E+01    0.0     0.00000021       -76.5290760518 -2.84E-14
     6 GXTB-FDIIS  0.10E+01    0.0     0.00000009       -76.5290760518  0.00E+00
     7 GXTB-FDIIS  0.10E+01    0.0     1.7850E-09       -76.5290760518  0.00E+00
     8 GXTB-FDIIS  0.10E+01    0.0     3.5749E-14       -76.5290760518  0.00E+00

  *** SCF run converged in     8 steps ***


  Core Hamiltonian energy:                                     -6.34170731474878
  Repulsive potential energy:                                   0.41002156175943
  Electrostatic energy:                                         0.15879273310442
  Self-consistent dispersion energy:                           -0.00005182429880
  Non-self consistent dispersion energy:                        0.00000019346850
  Correction for halogen bonding:                               0.00000000000000

  Total energy:                                               -76.52907605177722


 MULLIKEN POPULATION ANALYSIS

  # Atom   Element   Kind        Atomic population                    Net charge
       1     O          1                 6.694868                     -0.694868
       2     H          2                 0.652566                      0.347434
       3     H          2                 0.652566                      0.347434
 # Total charge                           8.000000                     -0.000000


 tblite reference CLI check
 Executable: tblite
 Method:     gxtb
 Guess:      auto
 Solver:     gvd
 Spin-pol.:  F
 Grad file:  H2O_stress_L08_cli.grad
 JSON file:  H2O_stress_L08_cli.json
 Log file:   H2O_stress_L08_cli.log
 Energy CP2K/CLI/absdiff:   -7.652907605178E+01   -7.652907605194E+01    1.612647793081E-10
 Gradient diff sum/max:    1.890972649622E-05    4.827482760712E-06
 Virial diff sum/max:    1.176048640722E-01    6.234117492825E-02
 tblite reference CLI deviation exceeded ERROR_LIMIT =   1.0000E-05

 ENERGY| Total FORCE_EVAL ( QS ) energy [hartree]            -76.529076051777224

 -------------------------------------------------------------------------------
 ----                             MULTIGRID INFO                            ----
 -------------------------------------------------------------------------------
 total grid count     :           420              cutoff [a.u.]            1.00

 PW_GRID| Information for grid number                                          4
 PW_GRID| Cutoff [a.u.]                                                      1.0
 PW_GRID| spherical cutoff:                                                   NO
 PW_GRID|   Bounds   1             -4       3                Points:           8
 PW_GRID|   Bounds   2             -4       3                Points:           8
 PW_GRID|   Bounds   3             -4       3                Points:           8
 PW_GRID| Volume element (a.u.^3)   6.748         Volume (a.u.^3)      3455.1473
 PW_GRID| Grid span                                                    FULLSPACE

 POISSON| Solver                                                        PERIODIC
 POISSON| Periodicity                                                        XYZ

 RS_GRID| Information for grid number                                          4
 RS_GRID|   Bounds   1             -4       3                Points:           8
 RS_GRID|   Bounds   2             -4       3                Points:           8
 RS_GRID|   Bounds   3             -4       3                Points:           8

 Parameters for the always stable predictor-corrector (ASPC) method:

  ASPC order: 1

  B(1) =   2.500000
  B(2) =  -2.000000
  B(3) =   0.500000

 Extrapolation method: ASPC

 Number of electrons:                                                          8
 Number of occupied orbitals:                                                  4
 Number of molecular orbitals:                                                 6

 Number of orbital functions:                                                  6
 Number of independent orbital functions:                                      6


 SCF WAVEFUNCTION OPTIMIZATION

  Step     Update method      Time    Convergence         Total energy    Change
  ------------------------------------------------------------------------------
     1 GXTB-Raw    0.10E+01    0.0     0.00000518       -76.5290763647 -7.65E+01
     2 GXTB-Simple 0.20E+00    0.0     0.00000058       -76.5290763647 -8.38E-13
     3 GXTB-Simple 0.20E+00    0.0     0.00000047       -76.5290763647 -5.26E-13
     4 GXTB-FDIIS  0.10E+01    0.0     0.00000210       -76.5290763647 -1.02E-12
     5 GXTB-FDIIS  0.10E+01    0.0     0.00000011       -76.5290763647 -1.42E-14
     6 GXTB-FDIIS  0.10E+01    0.0     0.00000004       -76.5290763647  1.42E-14
     7 GXTB-FDIIS  0.10E+01    0.0     8.9244E-10       -76.5290763647  0.00E+00
     8 GXTB-FDIIS  0.10E+01    0.0     2.5629E-14       -76.5290763647 -1.42E-14

  *** SCF run converged in     8 steps ***


  Core Hamiltonian energy:                                     -6.34170157182974
  Repulsive potential energy:                                   0.41001433873555
  Electrostatic energy:                                         0.15879306619853
  Self-consistent dispersion energy:                           -0.00005182460857
  Non-self consistent dispersion energy:                        0.00000019346743
  Correction for halogen bonding:                               0.00000000000000

  Total energy:                                               -76.52907636474076


 MULLIKEN POPULATION ANALYSIS

  # Atom   Element   Kind        Atomic population                    Net charge
       1     O          1                 6.694867                     -0.694867
       2     H          2                 0.652566                      0.347434
       3     H          2                 0.652566                      0.347434
 # Total charge                           8.000000                     -0.000000


 tblite reference CLI check
 Executable: tblite
 Method:     gxtb
 Guess:      auto
 Solver:     gvd
 Spin-pol.:  F
 Grad file:  H2O_stress_L08_cli.grad
 JSON file:  H2O_stress_L08_cli.json
 Log file:   H2O_stress_L08_cli.log
 Energy CP2K/CLI/absdiff:   -7.652907636474E+01   -7.652907636490E+01    1.613074118723E-10
 Gradient diff sum/max:    5.892233411894E-08    1.526422944292E-08
 Virial diff sum/max:    1.175981283819E-01    6.234117919316E-02
 tblite reference CLI deviation exceeded ERROR_LIMIT =   1.0000E-05

 ENERGY| Total FORCE_EVAL ( QS ) energy [hartree]            -76.529076364740760

 -------------------------------------------------------------------------------
 ----                             MULTIGRID INFO                            ----
 -------------------------------------------------------------------------------
 total grid count     :           420              cutoff [a.u.]            1.00

 PW_GRID| Information for grid number                                          5
 PW_GRID| Cutoff [a.u.]                                                      1.0
 PW_GRID| spherical cutoff:                                                   NO
 PW_GRID|   Bounds   1             -4       3                Points:           8
 PW_GRID|   Bounds   2             -4       3                Points:           8
 PW_GRID|   Bounds   3             -4       3                Points:           8
 PW_GRID| Volume element (a.u.^3)   6.748         Volume (a.u.^3)      3455.1473
 PW_GRID| Grid span                                                    FULLSPACE

 POISSON| Solver                                                        PERIODIC
 POISSON| Periodicity                                                        XYZ

 RS_GRID| Information for grid number                                          5
 RS_GRID|   Bounds   1             -4       3                Points:           8
 RS_GRID|   Bounds   2             -4       3                Points:           8
 RS_GRID|   Bounds   3             -4       3                Points:           8

 Parameters for the always stable predictor-corrector (ASPC) method:

  ASPC order: 2

  B(1) =   2.800000
  B(2) =  -2.800000
  B(3) =   1.200000
  B(4) =  -0.200000

 Extrapolation method: ASPC

 Number of electrons:                                                          8
 Number of occupied orbitals:                                                  4
 Number of molecular orbitals:                                                 6

 Number of orbital functions:                                                  6
 Number of independent orbital functions:                                      6


 SCF WAVEFUNCTION OPTIMIZATION

  Step     Update method      Time    Convergence         Total energy    Change
  ------------------------------------------------------------------------------
     1 GXTB-Raw    0.10E+01    0.0     1.6344E-09       -76.5290763647 -7.65E+01
     2 GXTB-Simple 0.20E+00    0.0     7.0559E-11       -76.5290763647  0.00E+00

  *** SCF run converged in     2 steps ***


  Core Hamiltonian energy:                                     -6.34170157182974
  Repulsive potential energy:                                   0.41001433873555
  Electrostatic energy:                                         0.15879306619853
  Self-consistent dispersion energy:                           -0.00005182460857
  Non-self consistent dispersion energy:                        0.00000019346743
  Correction for halogen bonding:                               0.00000000000000

  Total energy:                                               -76.52907636474076


 MULLIKEN POPULATION ANALYSIS

  # Atom   Element   Kind        Atomic population                    Net charge
       1     O          1                 6.694867                     -0.694867
       2     H          2                 0.652566                      0.347434
       3     H          2                 0.652566                      0.347434
 # Total charge                           8.000000                     -0.000000


 tblite reference CLI check
 Executable: tblite
 Method:     gxtb
 Guess:      auto
 Solver:     gvd
 Spin-pol.:  F
 Grad file:  H2O_stress_L08_cli.grad
 JSON file:  H2O_stress_L08_cli.json
 Log file:   H2O_stress_L08_cli.log
 Energy CP2K/CLI/absdiff:   -7.652907636474E+01   -7.652907636490E+01    1.613074118723E-10
 Gradient diff sum/max:    5.892233412870E-08    1.526422944292E-08
 Virial diff sum/max:    1.175981283819E-01    6.234117919316E-02
 tblite reference CLI deviation exceeded ERROR_LIMIT =   1.0000E-05

 ENERGY| Total FORCE_EVAL ( QS ) energy [hartree]            -76.529076364740760

 -------------------------------------------------------------------------------
 ----                             MULTIGRID INFO                            ----
 -------------------------------------------------------------------------------
 total grid count     :           420              cutoff [a.u.]            1.00

 PW_GRID| Information for grid number                                          6
 PW_GRID| Cutoff [a.u.]                                                      1.0
 PW_GRID| spherical cutoff:                                                   NO
 PW_GRID|   Bounds   1             -4       3                Points:           8
 PW_GRID|   Bounds   2             -4       3                Points:           8
 PW_GRID|   Bounds   3             -4       3                Points:           8
 PW_GRID| Volume element (a.u.^3)   6.748         Volume (a.u.^3)      3455.1473
 PW_GRID| Grid span                                                    FULLSPACE

 POISSON| Solver                                                        PERIODIC
 POISSON| Periodicity                                                        XYZ

 RS_GRID| Information for grid number                                          6
 RS_GRID|   Bounds   1             -4       3                Points:           8
 RS_GRID|   Bounds   2             -4       3                Points:           8
 RS_GRID|   Bounds   3             -4       3                Points:           8

 Parameters for the always stable predictor-corrector (ASPC) method:

  ASPC order: 3

  B(1) =   3.000000
  B(2) =  -3.428571
  B(3) =   1.928571
  B(4) =  -0.571429
  B(5) =   0.071429

 Extrapolation method: ASPC

 Number of electrons:                                                          8
 Number of occupied orbitals:                                                  4
 Number of molecular orbitals:                                                 6

 Number of orbital functions:                                                  6
 Number of independent orbital functions:                                      6


 SCF WAVEFUNCTION OPTIMIZATION

  Step     Update method      Time    Convergence         Total energy    Change
  ------------------------------------------------------------------------------
     1 GXTB-Raw    0.10E+01    0.0     0.00000155       -76.5290763647 -7.65E+01
     2 GXTB-Simple 0.20E+00    0.0     0.00000017       -76.5290763647 -3.98E-13
     3 GXTB-Simple 0.20E+00    0.0     0.00000014       -76.5290763647 -2.56E-13
     4 GXTB-FDIIS  0.10E+01    0.0     0.00000064       -76.5290763647 -5.68E-13
     5 GXTB-FDIIS  0.10E+01    0.0     0.00000003       -76.5290763647  0.00E+00
     6 GXTB-FDIIS  0.10E+01    0.0     2.4092E-09       -76.5290763647  0.00E+00
     7 GXTB-FDIIS  0.10E+01    0.0     3.6526E-10       -76.5290763647  0.00E+00
     8 GXTB-FDIIS  0.10E+01    0.0     4.6185E-14       -76.5290763647  1.42E-14

  *** SCF run converged in     8 steps ***


  Core Hamiltonian energy:                                     -6.34170157183216
  Repulsive potential energy:                                   0.41001433875744
  Electrostatic energy:                                         0.15879306619994
  Self-consistent dispersion energy:                           -0.00005182460857
  Non-self consistent dispersion energy:                        0.00000019346743
  Correction for halogen bonding:                               0.00000000000000

  Total energy:                                               -76.52907636472347


 MULLIKEN POPULATION ANALYSIS

  # Atom   Element   Kind        Atomic population                    Net charge
       1     O          1                 6.694867                     -0.694867
       2     H          2                 0.652566                      0.347434
       3     H          2                 0.652566                      0.347434
 # Total charge                           8.000000                      0.000000


 tblite reference CLI check
 Executable: tblite
 Method:     gxtb
 Guess:      auto
 Solver:     gvd
 Spin-pol.:  F
 Grad file:  H2O_stress_L08_cli.grad
 JSON file:  H2O_stress_L08_cli.json
 Log file:   H2O_stress_L08_cli.log
 Energy CP2K/CLI/absdiff:   -7.652907636472E+01   -7.652907636488E+01    1.613216227270E-10
 Gradient diff sum/max:    1.487006288376E-05    5.478236988366E-06
 Virial diff sum/max:    1.176085773079E-01    6.234117919712E-02
 tblite reference CLI deviation exceeded ERROR_LIMIT =   1.0000E-05

 ENERGY| Total FORCE_EVAL ( QS ) energy [hartree]            -76.529076364723466

 -------------------------------------------------------------------------------
 ----                             MULTIGRID INFO                            ----
 -------------------------------------------------------------------------------
 total grid count     :           420              cutoff [a.u.]            1.00

 PW_GRID| Information for grid number                                          7
 PW_GRID| Cutoff [a.u.]                                                      1.0
 PW_GRID| spherical cutoff:                                                   NO
 PW_GRID|   Bounds   1             -4       3                Points:           8
 PW_GRID|   Bounds   2             -4       3                Points:           8
 PW_GRID|   Bounds   3             -4       3                Points:           8
 PW_GRID| Volume element (a.u.^3)   6.748         Volume (a.u.^3)      3455.1473
 PW_GRID| Grid span                                                    FULLSPACE

 POISSON| Solver                                                        PERIODIC
 POISSON| Periodicity                                                        XYZ

 RS_GRID| Information for grid number                                          7
 RS_GRID|   Bounds   1             -4       3                Points:           8
 RS_GRID|   Bounds   2             -4       3                Points:           8
 RS_GRID|   Bounds   3             -4       3                Points:           8

 Parameters for the always stable predictor-corrector (ASPC) method:

  ASPC order: 3

  B(1) =   3.000000
  B(2) =  -3.428571
  B(3) =   1.928571
  B(4) =  -0.571429
  B(5) =   0.071429

 Extrapolation method: ASPC

 Number of electrons:                                                          8
 Number of occupied orbitals:                                                  4
 Number of molecular orbitals:                                                 6

 Number of orbital functions:                                                  6
 Number of independent orbital functions:                                      6


 SCF WAVEFUNCTION OPTIMIZATION

  Step     Update method      Time    Convergence         Total energy    Change
  ------------------------------------------------------------------------------
     1 GXTB-Raw    0.10E+01    0.0     0.00000310       -76.5290763647 -7.65E+01
     2 GXTB-Simple 0.20E+00    0.0     0.00000033       -76.5290763647 -1.56E-12
     3 GXTB-Simple 0.20E+00    0.0     0.00000027       -76.5290763647 -1.05E-12
     4 GXTB-FDIIS  0.10E+01    0.0     0.00000128       -76.5290763647 -2.26E-12
     5 GXTB-FDIIS  0.10E+01    0.0     0.00000005       -76.5290763647  0.00E+00
     6 GXTB-FDIIS  0.10E+01    0.0     4.8184E-09       -76.5290763647  0.00E+00
     7 GXTB-FDIIS  0.10E+01    0.0     7.3053E-10       -76.5290763647  1.42E-14
     8 GXTB-FDIIS  0.10E+01    0.0     1.8541E-14       -76.5290763647 -1.42E-14

  *** SCF run converged in     8 steps ***


  Core Hamiltonian energy:                                     -6.34170157183217
  Repulsive potential energy:                                   0.41001433875744
  Electrostatic energy:                                         0.15879306619994
  Self-consistent dispersion energy:                           -0.00005182460857
  Non-self consistent dispersion energy:                        0.00000019346743
  Correction for halogen bonding:                               0.00000000000000

  Total energy:                                               -76.52907636472348


 MULLIKEN POPULATION ANALYSIS

  # Atom   Element   Kind        Atomic population                    Net charge
       1     O          1                 6.694867                     -0.694867
       2     H          2                 0.652566                      0.347434
       3     H          2                 0.652566                      0.347434
 # Total charge                           8.000000                     -0.000000


 tblite reference CLI check
 Executable: tblite
 Method:     gxtb
 Guess:      auto
 Solver:     gvd
 Spin-pol.:  F
 Grad file:  H2O_stress_L08_cli.grad
 JSON file:  H2O_stress_L08_cli.json
 Log file:   H2O_stress_L08_cli.log
 Energy CP2K/CLI/absdiff:   -7.652907636472E+01   -7.652907636488E+01    1.613074118723E-10
 Gradient diff sum/max:    1.487006290781E-05    5.478236988616E-06
 Virial diff sum/max:    1.176085773079E-01    6.234117919712E-02
 tblite reference CLI deviation exceeded ERROR_LIMIT =   1.0000E-05

 ENERGY| Total FORCE_EVAL ( QS ) energy [hartree]            -76.529076364723480

 -------------------------------------------------------------------------------
 ----                             MULTIGRID INFO                            ----
 -------------------------------------------------------------------------------
 total grid count     :           420              cutoff [a.u.]            1.00

 PW_GRID| Information for grid number                                          8
 PW_GRID| Cutoff [a.u.]                                                      1.0
 PW_GRID| spherical cutoff:                                                   NO
 PW_GRID|   Bounds   1             -4       3                Points:           8
 PW_GRID|   Bounds   2             -4       3                Points:           8
 PW_GRID|   Bounds   3             -4       3                Points:           8
 PW_GRID| Volume element (a.u.^3)   6.748         Volume (a.u.^3)      3455.1473
 PW_GRID| Grid span                                                    FULLSPACE

 POISSON| Solver                                                        PERIODIC
 POISSON| Periodicity                                                        XYZ

 RS_GRID| Information for grid number                                          8
 RS_GRID|   Bounds   1             -4       3                Points:           8
 RS_GRID|   Bounds   2             -4       3                Points:           8
 RS_GRID|   Bounds   3             -4       3                Points:           8

 Parameters for the always stable predictor-corrector (ASPC) method:

  ASPC order: 3

  B(1) =   3.000000
  B(2) =  -3.428571
  B(3) =   1.928571
  B(4) =  -0.571429
  B(5) =   0.071429

 Extrapolation method: ASPC

 Number of electrons:                                                          8
 Number of occupied orbitals:                                                  4
 Number of molecular orbitals:                                                 6

 Number of orbital functions:                                                  6
 Number of independent orbital functions:                                      6


 SCF WAVEFUNCTION OPTIMIZATION

  Step     Update method      Time    Convergence         Total energy    Change
  ------------------------------------------------------------------------------
     1 GXTB-Raw    0.10E+01    0.0     0.00000155       -76.5290763647 -7.65E+01
     2 GXTB-Simple 0.20E+00    0.0     0.00000062       -76.5290763647 -1.69E-12
     3 GXTB-Simple 0.20E+00    0.0     0.00000052       -76.5290763647 -1.19E-12
     4 GXTB-FDIIS  0.10E+01    0.0     0.00000268       -76.5290763647 -2.90E-12
     5 GXTB-FDIIS  0.10E+01    0.0     0.00000019       -76.5290763647  0.00E+00
     6 GXTB-FDIIS  0.10E+01    0.0     3.8641E-09       -76.5290763647  0.00E+00
     7 GXTB-FDIIS  0.10E+01    0.0     1.1498E-09       -76.5290763647 -1.42E-14
     8 GXTB-FDIIS  0.10E+01    0.0     1.9915E-11       -76.5290763647  0.00E+00

  *** SCF run converged in     8 steps ***


  Core Hamiltonian energy:                                     -6.34170157181079
  Repulsive potential energy:                                   0.41001433871166
  Electrostatic energy:                                         0.15879306619954
  Self-consistent dispersion energy:                           -0.00005182460857
  Non-self consistent dispersion energy:                        0.00000019346743
  Correction for halogen bonding:                               0.00000000000000

  Total energy:                                               -76.52907636474316


 MULLIKEN POPULATION ANALYSIS

  # Atom   Element   Kind        Atomic population                    Net charge
       1     O          1                 6.694867                     -0.694867
       2     H          2                 0.652566                      0.347434
       3     H          2                 0.652566                      0.347434
 # Total charge                           8.000000                      0.000000


 tblite reference CLI check
 Executable: tblite
 Method:     gxtb
 Guess:      auto
 Solver:     gvd
 Spin-pol.:  F
 Grad file:  H2O_stress_L08_cli.grad
 JSON file:  H2O_stress_L08_cli.json
 Log file:   H2O_stress_L08_cli.log
 Energy CP2K/CLI/absdiff:   -7.652907636474E+01   -7.652907636490E+01    1.613074118723E-10
 Gradient diff sum/max:    5.628009070077E-07    2.522356591502E-07
 Virial diff sum/max:    1.175979322822E-01    6.234117919509E-02
 tblite reference CLI deviation exceeded ERROR_LIMIT =   1.0000E-05

 ENERGY| Total FORCE_EVAL ( QS ) energy [hartree]            -76.529076364743162

 -------------------------------------------------------------------------------
 ----                             MULTIGRID INFO                            ----
 -------------------------------------------------------------------------------
 total grid count     :           420              cutoff [a.u.]            1.00

 PW_GRID| Information for grid number                                          9
 PW_GRID| Cutoff [a.u.]                                                      1.0
 PW_GRID| spherical cutoff:                                                   NO
 PW_GRID|   Bounds   1             -4       3                Points:           8
 PW_GRID|   Bounds   2             -4       3                Points:           8
 PW_GRID|   Bounds   3             -4       3                Points:           8
 PW_GRID| Volume element (a.u.^3)   6.748         Volume (a.u.^3)      3455.1473
 PW_GRID| Grid span                                                    FULLSPACE

 POISSON| Solver                                                        PERIODIC
 POISSON| Periodicity                                                        XYZ

 RS_GRID| Information for grid number                                          9
 RS_GRID|   Bounds   1             -4       3                Points:           8
 RS_GRID|   Bounds   2             -4       3                Points:           8
 RS_GRID|   Bounds   3             -4       3                Points:           8

 Parameters for the always stable predictor-corrector (ASPC) method:

  ASPC order: 3

  B(1) =   3.000000
  B(2) =  -3.428571
  B(3) =   1.928571
  B(4) =  -0.571429
  B(5) =   0.071429

 Extrapolation method: ASPC

 Number of electrons:                                                          8
 Number of occupied orbitals:                                                  4
 Number of molecular orbitals:                                                 6

 Number of orbital functions:                                                  6
 Number of independent orbital functions:                                      6


 SCF WAVEFUNCTION OPTIMIZATION

  Step     Update method      Time    Convergence         Total energy    Change
  ------------------------------------------------------------------------------
     1 GXTB-Raw    0.10E+01    0.0     0.00000170       -76.5290763647 -7.65E+01
     2 GXTB-Simple 0.20E+00    0.0     0.00000124       -76.5290763647 -5.20E-12
     3 GXTB-Simple 0.20E+00    0.0     0.00000105       -76.5290763647 -3.74E-12
     4 GXTB-FDIIS  0.10E+01    0.0     0.00000545       -76.5290763647 -9.34E-12
     5 GXTB-FDIIS  0.10E+01    0.0     0.00000030       -76.5290763647 -1.42E-14
     6 GXTB-FDIIS  0.10E+01    0.0     3.6277E-12       -76.5290763647 -1.42E-14

  *** SCF run converged in     6 steps ***


  Core Hamiltonian energy:                                     -6.34170157181095
  Repulsive potential energy:                                   0.41001433871166
  Electrostatic energy:                                         0.15879306619978
  Self-consistent dispersion energy:                           -0.00005182460857
  Non-self consistent dispersion energy:                        0.00000019346743
  Correction for halogen bonding:                               0.00000000000000

  Total energy:                                               -76.52907636474316


 MULLIKEN POPULATION ANALYSIS

  # Atom   Element   Kind        Atomic population                    Net charge
       1     O          1                 6.694867                     -0.694867
       2     H          2                 0.652566                      0.347434
       3     H          2                 0.652566                      0.347434
 # Total charge                           8.000000                     -0.000000


 tblite reference CLI check
 Executable: tblite
 Method:     gxtb
 Guess:      auto
 Solver:     gvd
 Spin-pol.:  F
 Grad file:  H2O_stress_L08_cli.grad
 JSON file:  H2O_stress_L08_cli.json
 Log file:   H2O_stress_L08_cli.log
 Energy CP2K/CLI/absdiff:   -7.652907636474E+01   -7.652907636490E+01    1.613074118723E-10
 Gradient diff sum/max:    5.628009069548E-07    2.522356591237E-07
 Virial diff sum/max:    1.175979322822E-01    6.234117919509E-02
 tblite reference CLI deviation exceeded ERROR_LIMIT =   1.0000E-05

 ENERGY| Total FORCE_EVAL ( QS ) energy [hartree]            -76.529076364743162

 -------------------------------------------------------------------------------
 ----                             MULTIGRID INFO                            ----
 -------------------------------------------------------------------------------
 total grid count     :           420              cutoff [a.u.]            1.00

 PW_GRID| Information for grid number                                         10
 PW_GRID| Cutoff [a.u.]                                                      1.0
 PW_GRID| spherical cutoff:                                                   NO
 PW_GRID|   Bounds   1             -4       3                Points:           8
 PW_GRID|   Bounds   2             -4       3                Points:           8
 PW_GRID|   Bounds   3             -4       3                Points:           8
 PW_GRID| Volume element (a.u.^3)   6.748         Volume (a.u.^3)      3455.1702
 PW_GRID| Grid span                                                    FULLSPACE

 POISSON| Solver                                                        PERIODIC
 POISSON| Periodicity                                                        XYZ

 RS_GRID| Information for grid number                                         10
 RS_GRID|   Bounds   1             -4       3                Points:           8
 RS_GRID|   Bounds   2             -4       3                Points:           8
 RS_GRID|   Bounds   3             -4       3                Points:           8

 Parameters for the always stable predictor-corrector (ASPC) method:

  ASPC order: 3

  B(1) =   3.000000
  B(2) =  -3.428571
  B(3) =   1.928571
  B(4) =  -0.571429
  B(5) =   0.071429

 Extrapolation method: ASPC

 Number of electrons:                                                          8
 Number of occupied orbitals:                                                  4
 Number of molecular orbitals:                                                 6

 Number of orbital functions:                                                  6
 Number of independent orbital functions:                                      6


 SCF WAVEFUNCTION OPTIMIZATION

  Step     Update method      Time    Convergence         Total energy    Change
  ------------------------------------------------------------------------------
     1 GXTB-Raw    0.10E+01    0.0     0.00000085       -76.5290759524 -7.65E+01
     2 GXTB-Simple 0.20E+00    0.0     0.00000062       -76.5290759524 -1.29E-12
     3 GXTB-Simple 0.20E+00    0.0     0.00000052       -76.5290759524 -9.38E-13
     4 GXTB-FDIIS  0.10E+01    0.0     0.00000272       -76.5290759524 -2.34E-12
     5 GXTB-FDIIS  0.10E+01    0.0     0.00000016       -76.5290759524  0.00E+00
     6 GXTB-FDIIS  0.10E+01    0.0     9.2509E-09       -76.5290759524  0.00E+00
     7 GXTB-FDIIS  0.10E+01    0.0     1.1688E-10       -76.5290759524  0.00E+00
     8 GXTB-FDIIS  0.10E+01    0.0     3.3389E-12       -76.5290759524  0.00E+00

  *** SCF run converged in     8 steps ***


  Core Hamiltonian energy:                                     -6.34170152106120
  Repulsive potential energy:                                   0.41001433905405
  Electrostatic energy:                                         0.15879304165435
  Self-consistent dispersion energy:                           -0.00005182441443
  Non-self consistent dispersion energy:                        0.00000019346083
  Correction for halogen bonding:                               0.00000000000000

  Total energy:                                               -76.52907595237562


 MULLIKEN POPULATION ANALYSIS

  # Atom   Element   Kind        Atomic population                    Net charge
       1     O          1                 6.694867                     -0.694867
       2     H          2                 0.652566                      0.347434
       3     H          2                 0.652566                      0.347434
 # Total charge                           8.000000                      0.000000


 tblite reference CLI check
 Executable: tblite
 Method:     gxtb
 Guess:      auto
 Solver:     gvd
 Spin-pol.:  F
 Grad file:  H2O_stress_L08_cli.grad
 JSON file:  H2O_stress_L08_cli.json
 Log file:   H2O_stress_L08_cli.log
 Energy CP2K/CLI/absdiff:   -7.652907595238E+01   -7.652907595254E+01    1.613074118723E-10
 Gradient diff sum/max:    1.051500833018E-07    3.884142291827E-08
 Virial diff sum/max:    1.175968891360E-01    6.234079381281E-02
 tblite reference CLI deviation exceeded ERROR_LIMIT =   1.0000E-05

 ENERGY| Total FORCE_EVAL ( QS ) energy [hartree]            -76.529075952375621

 -------------------------------------------------------------------------------
 ----                             MULTIGRID INFO                            ----
 -------------------------------------------------------------------------------
 total grid count     :           420              cutoff [a.u.]            1.00

 PW_GRID| Information for grid number                                         11
 PW_GRID| Cutoff [a.u.]                                                      1.0
 PW_GRID| spherical cutoff:                                                   NO
 PW_GRID|   Bounds   1             -4       3                Points:           8
 PW_GRID|   Bounds   2             -4       3                Points:           8
 PW_GRID|   Bounds   3             -4       3                Points:           8
 PW_GRID| Volume element (a.u.^3)   6.748         Volume (a.u.^3)      3455.1245
 PW_GRID| Grid span                                                    FULLSPACE

 POISSON| Solver                                                        PERIODIC
 POISSON| Periodicity                                                        XYZ

 RS_GRID| Information for grid number                                         11
 RS_GRID|   Bounds   1             -4       3                Points:           8
 RS_GRID|   Bounds   2             -4       3                Points:           8
 RS_GRID|   Bounds   3             -4       3                Points:           8

 Parameters for the always stable predictor-corrector (ASPC) method:

  ASPC order: 3

  B(1) =   3.000000
  B(2) =  -3.428571
  B(3) =   1.928571
  B(4) =  -0.571429
  B(5) =   0.071429

 Extrapolation method: ASPC

 Number of electrons:                                                          8
 Number of occupied orbitals:                                                  4
 Number of molecular orbitals:                                                 6

 Number of orbital functions:                                                  6
 Number of independent orbital functions:                                      6


 SCF WAVEFUNCTION OPTIMIZATION

  Step     Update method      Time    Convergence         Total energy    Change
  ------------------------------------------------------------------------------
     1 GXTB-Raw    0.10E+01    0.0     9.3594E-09       -76.5290767771 -7.65E+01
     2 GXTB-Simple 0.20E+00    0.0     0.00000004       -76.5290767771  0.00E+00
     3 GXTB-Simple 0.20E+00    0.0     0.00000003       -76.5290767771 -1.42E-14
     4 GXTB-FDIIS  0.10E+01    0.0     0.00000017       -76.5290767771  0.00E+00
     5 GXTB-FDIIS  0.10E+01    0.0     0.00000002       -76.5290767771 -1.42E-14
     6 GXTB-FDIIS  0.10E+01    0.0     3.9862E-09       -76.5290767771  1.42E-14
     7 GXTB-FDIIS  0.10E+01    0.0     7.9132E-11       -76.5290767771  0.00E+00

  *** SCF run converged in     7 steps ***


  Core Hamiltonian energy:                                     -6.34170162259870
  Repulsive potential energy:                                   0.41001433841706
  Electrostatic energy:                                         0.15879309074238
  Self-consistent dispersion energy:                           -0.00005182480271
  Non-self consistent dispersion energy:                        0.00000019347404
  Correction for halogen bonding:                               0.00000000000000

  Total energy:                                               -76.52907677711389


 MULLIKEN POPULATION ANALYSIS

  # Atom   Element   Kind        Atomic population                    Net charge
       1     O          1                 6.694867                     -0.694867
       2     H          2                 0.652566                      0.347434
       3     H          2                 0.652566                      0.347434
 # Total charge                           8.000000                      0.000000


 tblite reference CLI check
 Executable: tblite
 Method:     gxtb
 Guess:      auto
 Solver:     gvd
 Spin-pol.:  F
 Grad file:  H2O_stress_L08_cli.grad
 JSON file:  H2O_stress_L08_cli.json
 Log file:   H2O_stress_L08_cli.log
 Energy CP2K/CLI/absdiff:   -7.652907677711E+01   -7.652907677728E+01    1.613074118723E-10
 Gradient diff sum/max:    5.554252273266E-08    1.679485001765E-08
 Virial diff sum/max:    1.175977224123E-01    6.234156456748E-02
 tblite reference CLI deviation exceeded ERROR_LIMIT =   1.0000E-05

 ENERGY| Total FORCE_EVAL ( QS ) energy [hartree]            -76.529076777113886

 -------------------------------------------------------------------------------
 ----                             MULTIGRID INFO                            ----
 -------------------------------------------------------------------------------
 total grid count     :           420              cutoff [a.u.]            1.00

 PW_GRID| Information for grid number                                         12
 PW_GRID| Cutoff [a.u.]                                                      1.0
 PW_GRID| spherical cutoff:                                                   NO
 PW_GRID|   Bounds   1             -4       3                Points:           8
 PW_GRID|   Bounds   2             -4       3                Points:           8
 PW_GRID|   Bounds   3             -4       3                Points:           8
 PW_GRID| Volume element (a.u.^3)   6.748         Volume (a.u.^3)      3455.1473
 PW_GRID| Grid span                                                    FULLSPACE

 POISSON| Solver                                                        PERIODIC
 POISSON| Periodicity                                                        XYZ

 RS_GRID| Information for grid number                                         12
 RS_GRID|   Bounds   1             -4       3                Points:           8
 RS_GRID|   Bounds   2             -4       3                Points:           8
 RS_GRID|   Bounds   3             -4       3                Points:           8

 Parameters for the always stable predictor-corrector (ASPC) method:

  ASPC order: 3

  B(1) =   3.000000
  B(2) =  -3.428571
  B(3) =   1.928571
  B(4) =  -0.571429
  B(5) =   0.071429

 Extrapolation method: ASPC

 Number of electrons:                                                          8
 Number of occupied orbitals:                                                  4
 Number of molecular orbitals:                                                 6

 Number of orbital functions:                                                  6
 Number of independent orbital functions:                                      6


 SCF WAVEFUNCTION OPTIMIZATION

  Step     Update method      Time    Convergence         Total energy    Change
  ------------------------------------------------------------------------------
     1 GXTB-Raw    0.10E+01    0.0     0.00000074       -76.5290763647 -7.65E+01
     2 GXTB-Simple 0.20E+00    0.0     0.00000041       -76.5290763647 -5.68E-13
     3 GXTB-Simple 0.20E+00    0.0     0.00000034       -76.5290763647 -4.26E-13
     4 GXTB-FDIIS  0.10E+01    0.0     0.00000172       -76.5290763647 -9.52E-13
     5 GXTB-FDIIS  0.10E+01    0.0     0.00000006       -76.5290763647 -1.42E-14
     6 GXTB-FDIIS  0.10E+01    0.0     7.3048E-09       -76.5290763647  1.42E-14
     7 GXTB-FDIIS  0.10E+01    0.0     4.2359E-11       -76.5290763647 -1.42E-14

  *** SCF run converged in     7 steps ***


  Core Hamiltonian energy:                                     -6.34170157181969
  Repulsive potential energy:                                   0.41001433872520
  Electrostatic energy:                                         0.15879306619828
  Self-consistent dispersion energy:                           -0.00005182460857
  Non-self consistent dispersion energy:                        0.00000019346743
  Correction for halogen bonding:                               0.00000000000000

  Total energy:                                               -76.52907636474197


 MULLIKEN POPULATION ANALYSIS

  # Atom   Element   Kind        Atomic population                    Net charge
       1     O          1                 6.694867                     -0.694867
       2     H          2                 0.652566                      0.347434
       3     H          2                 0.652566                      0.347434
 # Total charge                           8.000000                      0.000000


 tblite reference CLI check
 Executable: tblite
 Method:     gxtb
 Guess:      auto
 Solver:     gvd
 Spin-pol.:  F
 Grad file:  H2O_stress_L08_cli.grad
 JSON file:  H2O_stress_L08_cli.json
 Log file:   H2O_stress_L08_cli.log
 Energy CP2K/CLI/absdiff:   -7.652907636474E+01   -7.652907636490E+01    1.613074118723E-10
 Gradient diff sum/max:    8.362632316222E-07    3.889503189569E-07
 Virial diff sum/max:    1.175973994204E-01    6.234117919744E-02
 tblite reference CLI deviation exceeded ERROR_LIMIT =   1.0000E-05

 ENERGY| Total FORCE_EVAL ( QS ) energy [hartree]            -76.529076364741968

 -------------------------------------------------------------------------------
 ----                             MULTIGRID INFO                            ----
 -------------------------------------------------------------------------------
 total grid count     :           420              cutoff [a.u.]            1.00

 PW_GRID| Information for grid number                                         13
 PW_GRID| Cutoff [a.u.]                                                      1.0
 PW_GRID| spherical cutoff:                                                   NO
 PW_GRID|   Bounds   1             -4       3                Points:           8
 PW_GRID|   Bounds   2             -4       3                Points:           8
 PW_GRID|   Bounds   3             -4       3                Points:           8
 PW_GRID| Volume element (a.u.^3)   6.748         Volume (a.u.^3)      3455.1473
 PW_GRID| Grid span                                                    FULLSPACE

 POISSON| Solver                                                        PERIODIC
 POISSON| Periodicity                                                        XYZ

 RS_GRID| Information for grid number                                         13
 RS_GRID|   Bounds   1             -4       3                Points:           8
 RS_GRID|   Bounds   2             -4       3                Points:           8
 RS_GRID|   Bounds   3             -4       3                Points:           8

 Parameters for the always stable predictor-corrector (ASPC) method:

  ASPC order: 3

  B(1) =   3.000000
  B(2) =  -3.428571
  B(3) =   1.928571
  B(4) =  -0.571429
  B(5) =   0.071429

 Extrapolation method: ASPC

 Number of electrons:                                                          8
 Number of occupied orbitals:                                                  4
 Number of molecular orbitals:                                                 6

 Number of orbital functions:                                                  6
 Number of independent orbital functions:                                      6


 SCF WAVEFUNCTION OPTIMIZATION

  Step     Update method      Time    Convergence         Total energy    Change
  ------------------------------------------------------------------------------
     1 GXTB-Raw    0.10E+01    0.0     0.00000149       -76.5290763647 -7.65E+01
     2 GXTB-Simple 0.20E+00    0.0     0.00000082       -76.5290763647 -2.33E-12
     3 GXTB-Simple 0.20E+00    0.0     0.00000069       -76.5290763647 -1.63E-12
     4 GXTB-FDIIS  0.10E+01    0.0     0.00000345       -76.5290763647 -3.85E-12
     5 GXTB-FDIIS  0.10E+01    0.0     0.00000011       -76.5290763647 -1.42E-14
     6 GXTB-FDIIS  0.10E+01    0.0     1.6219E-12       -76.5290763647  0.00E+00

  *** SCF run converged in     6 steps ***


  Core Hamiltonian energy:                                     -6.34170157181973
  Repulsive potential energy:                                   0.41001433872520
  Electrostatic energy:                                         0.15879306619825
  Self-consistent dispersion energy:                           -0.00005182460857
  Non-self consistent dispersion energy:                        0.00000019346743
  Correction for halogen bonding:                               0.00000000000000

  Total energy:                                               -76.52907636474197


 MULLIKEN POPULATION ANALYSIS

  # Atom   Element   Kind        Atomic population                    Net charge
       1     O          1                 6.694867                     -0.694867
       2     H          2                 0.652566                      0.347434
       3     H          2                 0.652566                      0.347434
 # Total charge                           8.000000                      0.000000


 tblite reference CLI check
 Executable: tblite
 Method:     gxtb
 Guess:      auto
 Solver:     gvd
 Spin-pol.:  F
 Grad file:  H2O_stress_L08_cli.grad
 JSON file:  H2O_stress_L08_cli.json
 Log file:   H2O_stress_L08_cli.log
 Energy CP2K/CLI/absdiff:   -7.652907636474E+01   -7.652907636490E+01    1.613074118723E-10
 Gradient diff sum/max:    8.362632314777E-07    3.889503188846E-07
 Virial diff sum/max:    1.175973994204E-01    6.234117919744E-02
 tblite reference CLI deviation exceeded ERROR_LIMIT =   1.0000E-05

 ENERGY| Total FORCE_EVAL ( QS ) energy [hartree]            -76.529076364741968

 -------------------------------------------------------------------------------
 ----                             MULTIGRID INFO                            ----
 -------------------------------------------------------------------------------
 total grid count     :           420              cutoff [a.u.]            1.00

 PW_GRID| Information for grid number                                         14
 PW_GRID| Cutoff [a.u.]                                                      1.0
 PW_GRID| spherical cutoff:                                                   NO
 PW_GRID|   Bounds   1             -4       3                Points:           8
 PW_GRID|   Bounds   2             -4       3                Points:           8
 PW_GRID|   Bounds   3             -4       3                Points:           8
 PW_GRID| Volume element (a.u.^3)   6.748         Volume (a.u.^3)      3455.1473
[...]
     4 GXTB-FDIIS  0.10E+01    0.0     0.00000386       -76.5290764173 -3.35E-12
     5 GXTB-FDIIS  0.10E+01    0.0     0.00000024       -76.5290764173 -1.42E-14
     6 GXTB-FDIIS  0.10E+01    0.0     0.00000010       -76.5290764173 -1.42E-14
     7 GXTB-FDIIS  0.10E+01    0.0     3.3249E-10       -76.5290764173  1.42E-14
     8 GXTB-FDIIS  0.10E+01    0.0     3.2641E-14       -76.5290764173 -1.42E-14

  *** SCF run converged in     8 steps ***


  Core Hamiltonian energy:                                     -6.34170465030711
  Repulsive potential energy:                                   0.41001746601238
  Electrostatic energy:                                         0.15879317355962
  Self-consistent dispersion energy:                           -0.00005182467130
  Non-self consistent dispersion energy:                        0.00000019346388
  Correction for halogen bonding:                               0.00000000000000

  Total energy:                                               -76.52907641731601


 MULLIKEN POPULATION ANALYSIS

  # Atom   Element   Kind        Atomic population                    Net charge
       1     O          1                 6.694868                     -0.694868
       2     H          2                 0.652566                      0.347434
       3     H          2                 0.652566                      0.347434
 # Total charge                           8.000000                     -0.000000


 tblite reference CLI check
 Executable: tblite
 Method:     gxtb
 Guess:      auto
 Solver:     gvd
 Spin-pol.:  F
 Grad file:  H2O_stress_L08_cli.grad
 JSON file:  H2O_stress_L08_cli.json
 Log file:   H2O_stress_L08_cli.log
 Energy CP2K/CLI/absdiff:   -7.652907641732E+01   -7.652907641748E+01    1.612932010175E-10
 Gradient diff sum/max:    8.681912976349E-06    2.715563910564E-06
 Virial diff sum/max:    1.176001181340E-01    6.234120691313E-02
 tblite reference CLI deviation exceeded ERROR_LIMIT =   1.0000E-05

 ENERGY| Total FORCE_EVAL ( QS ) energy [hartree]            -76.529076417316006

 -------------------------------------------------------------------------------
 ----                             MULTIGRID INFO                            ----
 -------------------------------------------------------------------------------
 total grid count     :           420              cutoff [a.u.]            1.00

 PW_GRID| Information for grid number                                         20
 PW_GRID| Cutoff [a.u.]                                                      1.0
 PW_GRID| spherical cutoff:                                                   NO
 PW_GRID|   Bounds   1             -4       3                Points:           8
 PW_GRID|   Bounds   2             -4       3                Points:           8
 PW_GRID|   Bounds   3             -4       3                Points:           8
 PW_GRID| Volume element (a.u.^3)   6.748         Volume (a.u.^3)      3455.1473
 PW_GRID| Grid span                                                    FULLSPACE

 POISSON| Solver                                                        PERIODIC
 POISSON| Periodicity                                                        XYZ

 RS_GRID| Information for grid number                                         20
 RS_GRID|   Bounds   1             -4       3                Points:           8
 RS_GRID|   Bounds   2             -4       3                Points:           8
 RS_GRID|   Bounds   3             -4       3                Points:           8

 Parameters for the always stable predictor-corrector (ASPC) method:

  ASPC order: 3

  B(1) =   3.000000
  B(2) =  -3.428571
  B(3) =   1.928571
  B(4) =  -0.571429
  B(5) =   0.071429

 Extrapolation method: ASPC

 Number of electrons:                                                          8
 Number of occupied orbitals:                                                  4
 Number of molecular orbitals:                                                 6

 Number of orbital functions:                                                  6
 Number of independent orbital functions:                                      6


 SCF WAVEFUNCTION OPTIMIZATION

  Step     Update method      Time    Convergence         Total energy    Change
  ------------------------------------------------------------------------------
     1 GXTB-Raw    0.10E+01    0.0     0.00000185       -76.5290763647 -7.65E+01
     2 GXTB-Simple 0.20E+00    0.0     0.00000050       -76.5290763647 -5.26E-13
     3 GXTB-Simple 0.20E+00    0.0     0.00000041       -76.5290763647 -3.69E-13
     4 GXTB-FDIIS  0.10E+01    0.0     0.00000193       -76.5290763647 -8.38E-13
     5 GXTB-FDIIS  0.10E+01    0.0     0.00000012       -76.5290763647  0.00E+00
     6 GXTB-FDIIS  0.10E+01    0.0     0.00000005       -76.5290763647 -1.42E-14
     7 GXTB-FDIIS  0.10E+01    0.0     1.6636E-10       -76.5290763647  0.00E+00
     8 GXTB-FDIIS  0.10E+01    0.0     7.9936E-15       -76.5290763647  0.00E+00

  *** SCF run converged in     8 steps ***


  Core Hamiltonian energy:                                     -6.34170157182989
  Repulsive potential energy:                                   0.41001433873555
  Electrostatic energy:                                         0.15879306619861
  Self-consistent dispersion energy:                           -0.00005182460857
  Non-self consistent dispersion energy:                        0.00000019346743
  Correction for halogen bonding:                               0.00000000000000

  Total energy:                                               -76.52907636474212


 MULLIKEN POPULATION ANALYSIS

  # Atom   Element   Kind        Atomic population                    Net charge
       1     O          1                 6.694867                     -0.694867
       2     H          2                 0.652566                      0.347434
       3     H          2                 0.652566                      0.347434
 # Total charge                           8.000000                      0.000000


 tblite reference CLI check
 Executable: tblite
 Method:     gxtb
 Guess:      auto
 Solver:     gvd
 Spin-pol.:  F
 Grad file:  H2O_stress_L08_cli.grad
 JSON file:  H2O_stress_L08_cli.json
 Log file:   H2O_stress_L08_cli.log
 Energy CP2K/CLI/absdiff:   -7.652907636474E+01   -7.652907636490E+01    1.613216227270E-10
 Gradient diff sum/max:    5.839357842693E-08    1.526422171300E-08
 Virial diff sum/max:    1.175973050569E-01    6.234117919715E-02
 tblite reference CLI deviation exceeded ERROR_LIMIT =   1.0000E-05

 ENERGY| Total FORCE_EVAL ( QS ) energy [hartree]            -76.529076364742124
 DEBUG| Numerical pv_virial [a.u.]
 DEBUG|                   0.047307203628      0.000000000000     -0.000000000537
 DEBUG|                   0.000000000000     -0.062341178104      0.000000000000
 DEBUG|                  -0.000000000537      0.000000000000     -0.007948894445

 DEBUG| Analytical pv_virial [a.u.]
 DEBUG|                   0.047307200472     -0.000000000000     -0.000000000000
 DEBUG|                  -0.000000000000     -0.062341179028     -0.000000000000
 DEBUG|                  -0.000000000000     -0.000000000000     -0.007948894990

 DEBUG| Difference pv_virial [a.u.]
 DEBUG|                   0.000000003156      0.000000000000     -0.000000000537
 DEBUG|                   0.000000000000      0.000000000923      0.000000000000
 DEBUG|                  -0.000000000537      0.000000000000      0.000000000545
 DEBUG| Sum of differences                                        0.000000005698

 DEBUG| Relative error pv_virial
 DEBUG| Threshold value for error check [a.u.]                    1.00000000E-05
 DEBUG|                           0.00 %                 - %                 - %
 DEBUG|                              - %             -0.00 %                 - %
 DEBUG|                              - %                 - %             -0.00 %
 DEBUG| Maximum accepted error                                            0.20 %

 -------------------------------------------------------------------------------
 -                                                                             -
 -                                DBCSR STATISTICS                             -
 -                                                                             -
 -------------------------------------------------------------------------------
 COUNTER                                    TOTAL       BLAS       SMM       ACC
 flops     1 x     6 x     1                 3168     100.0%      0.0%      0.0%     
 flops     1 x     1 x     6                 6084     100.0%      0.0%      0.0%     
 flops     4 x     6 x     1                 6336     100.0%      0.0%      0.0%     
 flops     1 x     6 x     4                 6336     100.0%      0.0%      0.0%     
 flops     4 x     1 x     6                 8112     100.0%      0.0%      0.0%     
 flops     1 x     4 x     6                 8112     100.0%      0.0%      0.0%     
 flops     4 x     6 x     4                12672     100.0%      0.0%      0.0%     
 flops     4 x     4 x     6                32448     100.0%      0.0%      0.0%     
 flops inhomo. stacks                           0       0.0%      0.0%      0.0%
 flops total                        83.268000E+03     100.0%      0.0%      0.0%
 flops max/rank                     83.268000E+03     100.0%      0.0%      0.0%
 matmuls inhomo. stacks                         0       0.0%      0.0%      0.0%
 matmuls total                               1608     100.0%      0.0%      0.0%
 number of processed stacks                   940     100.0%      0.0%      0.0%
 average stack size                                     1.7       0.0       0.0
 marketing flops                    77.184000E+03
 -------------------------------------------------------------------------------
 # multiplications                            235
 max memory usage/rank               9.875964E+09
 # max total images/rank                        1
 # max 3D layers                                1
 # MPI messages exchanged                       0
 -------------------------------------------------------------------------------
 -                                                                             -
 -                      DBCSR MESSAGE PASSING PERFORMANCE                      -
 -                                                                             -
 -------------------------------------------------------------------------------
 ROUTINE             CALLS      AVE VOLUME [Bytes]
 MP_Bcast                9                     12.
 MP_Allreduce         1078                      9.
 MP_Alltoall          6118                    254.
 MP_ISend              940                     77.
 MP_IRecv              940                     77.
 -------------------------------------------------------------------------------

 -------------------------------------------------------------------------------
 -                                                                             -
 -                          OFFLOAD MEMPOOL STATISTICS                         -
 -                                                                             -
 -------------------------------------------------------------------------------
 Memory consumption                Number of allocations  Used [MiB]  Size [MiB]
 Host                                                  1           0           0
 -------------------------------------------------------------------------------

 MEMORY| Estimated peak process memory [MiB]                                 117

 -------------------------------------------------------------------------------
 ----                             MULTIGRID INFO                            ----
 -------------------------------------------------------------------------------
 total grid count     :           420              cutoff [a.u.]            1.00

 -------------------------------------------------------------------------------
 -                                                                             -
 -                         MESSAGE PASSING PERFORMANCE                         -
 -                                                                             -
 -------------------------------------------------------------------------------

 ROUTINE             CALLS      AVE VOLUME [Bytes]
 MP_Group               20
 MP_Bcast              298                     26.
 MP_Allreduce         4846                     50.
 MP_Sync               169
 MP_comm_split         149
 -------------------------------------------------------------------------------


 -------------------------------------------------------------------------------
 -                                                                             -
 -                           R E F E R E N C E S                               -
 -                                                                             -
 -------------------------------------------------------------------------------
 
 CP2K version 2026.2 (Development Version), the CP2K developers group (2026).
 CP2K is freely available from https://www.cp2k.org/ .
 
 M. Iannuzzi, J. Wilhelm, F. Stein, A. Bussy, H. Elgabarty, D. Golze, A. Hehn, 
 M. Graml, S. Marek, B. Sertcan Gökmen, C. Schran, H. Forbert, R. Z. 
 Khaliullin, A. Kozhevnikov, M. Taillefumier, R. Meli, V. V. Rybkin, M. Brehm, 
 R. Schade, O. Schütt, J. V. Pototschnig, H. Mirhosseini, A. Knüpfer, D. Marx, 
 M. Krack, J. Hutter, T. D. Kühne.
 J. Phys. Chem. B 130, 1237-1310 (2026).
 The CP2K Program Package Made Simple.
 https://doi.org/10.1021/acs.jpcb.5c05851

 A. Katbashev, M. Stahn, T. Rose, V. Alizadeh, M. Friede, C. Plett, P. 
 Steinbach, S. Ehlert.
 J. Phys. Chem. A 129, 2667-2682 (2025).
 Overview on Building Blocks and Applications of Efficient and Robust Extended 
 Tight Binding.
 https://doi.org/10.1021/acs.jpca.4c08263

 T. D. Kühne, M. Iannuzzi, M. Del Ben, V. V. Rybkin, P. Seewald, F. Stein, T. 
 Laino, R. Z. Khaliullin, O. Schütt, F. Schiffmann, D. Golze, J. Wilhelm, S. 
 Chulkov, M. H. Bani-Hashemian, V. Weber, U. Borstnik, M. Taillefumier, A. S. 
 Jakobovits, A. Lazzaro, H. Pabst, T. Müller, R. Schade, M. Guidon, S. 
 Andermatt, N. Holmberg, G. K. Schenter, A. Hehn, A. Bussy, F. Belleflamme, G. 
 Tabacchi, A. Glöß, M. Lass, I. Bethune, C. J. Mundy, C. Plessl, M. Watkins, 
 J. VandeVondele, M. Krack, J. Hutter.
 J. Chem. Phys. 152, 194103 (2020).
 CP2K: An electronic structure and molecular dynamics software package - 
 Quickstep: Efficient and accurate electronic structure calculations.
 https://doi.org/10.1063/5.0007045

 P. Pracht, E. Caldeweyher, S. Ehlert, S. Grimme.
 ChemRxiv, (2019).
 A Robust Non-Self-Consistent Tight-Binding Quantum Chemistry Method for large 
 Molecules.
 https://doi.org/10.26434/chemrxiv.8326202.v1

 S. Grimme, C. Bannwarth, P. Shushkov.
 J. Chem. Theory Comput. 13, 1989 (2017).
 A Robust and Accurate Tight-Binding Quantum Chemical Method for Structures, 
 Vibrational Frequencies, and Noncovalent Interactions of Large Molecular 
 Systems Parametrized for All spd-Block Elements (Z = 1-86).
 https://doi.org/10.1021/acs.jctc.7b00118

 O. Schuett, P. Messmer, J. Hutter, J. VandeVondele.
 Electronic Structure Calculations on Graphics Processing Units, 173-190 (2016).
 GPU-Accelerated Sparse Matrix-Matrix Multiplication for Linear Scaling Density 
 Functional Theory.
 https://doi.org/10.1002/9781118670712.ch8

 U. Borstnik, J. VandeVondele, V. Weber, J. Hutter.
 Parallel Comput. 40, 47-58 (2014).
 Sparse matrix multiplication: The distributed block-compressed sparse row 
 library.
 https://doi.org/10.1016/j.parco.2014.03.012

 T. D. Kühne, M. Krack, F. R. Mohamed, M. Parrinello.
 Phys. Rev. Lett. 98, 066401 (2007).
 Efficient and accurate Car-Parrinello-like approach to Born-Oppenheimer 
 molecular dynamics.
 https://doi.org/10.1103/PhysRevLett.98.066401

 M. Frigo, S. G. Johnson.
 Proc. IEEE 93, 216-231 (2005).
 The design and implementation of FFTW3.
 https://doi.org/10.1109/JPROC.2004.840301

 J. Kolafa.
 J. Comput. Chem. 25, 335-342 (2004).
 Time-reversible always stable predictor-corrector method for molecular dynamics 
 of polarizable molecules.
 https://doi.org/10.1002/jcc.10385


 -------------------------------------------------------------------------------
 -                                                                             -
 -                                T I M I N G                                  -
 -                                                                             -
 -------------------------------------------------------------------------------
 SUBROUTINE                       CALLS  ASD         SELF TIME        TOTAL TIME
                                MAXIMUM       AVERAGE  MAXIMUM  AVERAGE  MAXIMUM
 CP2K                                 1  1.0    0.004    0.004    0.617    0.617
 qs_energies                         20  2.0    0.000    0.000    0.580    0.580
 tb_reference_cli_compare            20  3.0    0.322    0.322    0.322    0.322
 scf_env_do_scf                      20  3.0    0.000    0.000    0.156    0.156
 scf_env_do_scf_inner_loop          149  4.1    0.018    0.018    0.156    0.156
 qs_scf_new_mos                     149  5.1    0.002    0.002    0.110    0.110
 calculate_dm_sparse                168  6.1    0.001    0.001    0.077    0.077
 cp_dbcsr_plus_fm_fm_t              169  7.1    0.001    0.001    0.077    0.077
 dbcsr_multiply_generic             235  8.0    0.005    0.005    0.070    0.070
 build_tblite_matrices               21  4.0    0.057    0.057    0.066    0.066
 qs_energies_init_hamiltonians       20  3.0    0.000    0.000    0.063    0.063
 qs_forces                            1  2.0    0.000    0.000    0.045    0.045
 init_scf_run                        20  3.0    0.000    0.000    0.043    0.043
 scf_env_initial_rho_setup           20  4.0    0.000    0.000    0.040    0.040
 wfi_extrapolate                     20  5.0    0.001    0.001    0.040    0.040
 make_m2s                           470  9.0    0.003    0.003    0.037    0.037
 dbcsr_complete_redistribute        639  8.3    0.012    0.012    0.029    0.029
 copy_dbcsr_to_fm                   235  6.2    0.002    0.002    0.028    0.028
 rebuild_ks_matrix                  169  5.8    0.000    0.000    0.027    0.027
 build_tblite_ks_matrix             169  6.8    0.023    0.023    0.027    0.027
 cp_dbcsr_sm_fm_multiply             66  6.0    0.000    0.000    0.025    0.025
 qs_ks_update_qs_env                168  4.8    0.000    0.000    0.023    0.023
 eigensolver                        149  6.1    0.005    0.005    0.021    0.021
 copy_fm_to_dbcsr                   404  7.9    0.001    0.001    0.020    0.020
 multiply_cannon                    235  9.0    0.010    0.010    0.017    0.017
 make_images                        470 10.0    0.004    0.004    0.017    0.017
 cp_fm_syevd                        149  7.1    0.000    0.000    0.014    0.014
 cp_dbcsr_sm_fm_multiply_core        66  7.0    0.000    0.000    0.013    0.013
 dbcsr_finalize                    3503  8.8    0.004    0.004    0.013    0.013
 -------------------------------------------------------------------------------

 The number of warnings for this run is : 1
 
 -------------------------------------------------------------------------------
  **** **** ******  **  PROGRAM ENDED AT                 2026-07-21 16:08:55.114
 ***** ** ***  *** **   PROGRAM RAN ON                                     terok
 **    ****   ******    PROGRAM RAN BY                                  kuehne88
 ***** **    ** ** **   PROGRAM PROCESS ID                               1012179
  **** **  *******  **  PROGRAM STOPPED IN /home/kuehne88/work/h2o-molecular-lim
                                           it-20260721/stress_debug_8_50/raw/H2O
                                           _stress_L08
