 DBCSR| CPU Multiplication driver                                           XSMM (U)
 DBCSR| Multrec recursion limit                                              512 (U)
 DBCSR| Multiplication stack size                                           1000 (D)
 DBCSR| Maximum elements for images                                    UNLIMITED (U)
 DBCSR| Multiplicative factor virtual images                                   1 (U)
 DBCSR| Use multiplication densification                                       T (D)
 DBCSR| Multiplication size stacks                                             3 (U)
 DBCSR| Use memory pool for CPU allocation                                     F (U)
 DBCSR| Number of 3D layers                                               SINGLE (U)
 DBCSR| Use MPI memory allocation                                              F (U)
 DBCSR| Use RMA algorithm                                                      F (U)
 DBCSR| Use Communication thread                                               T (U)
 DBCSR| Communication thread load                                             87 (D)
 DBCSR| MPI: My process id                                                     0
 DBCSR| MPI: Number of processes                                               1
 DBCSR| OMP: Current number of threads                                         1
 DBCSR| OMP: Max number of threads                                             1
 DBCSR| Split modifier for TAS multiplication algorithm                  1.0E+00 (U)


  **** **** ******  **  PROGRAM STARTED AT               2026-05-23 22:46:18.307
 ***** ** ***  *** **   PROGRAM STARTED ON                            spark-c86c
 **    ****   ******    PROGRAM STARTED BY                              kuehne88
 ***** **    ** ** **   PROGRAM PROCESS ID                               2222431
  **** **  *******  **  PROGRAM STARTED IN /home/kuehne88/periodic-gfn2-benchmar
                                           ks/X23b/runs/molecule_geoopt/GFN1/co2
                                           _GFN1_mol_geoopt

 CP2K| version string:                 CP2K version 2026.1 (Development Version)
 CP2K| source code revision number:                                   0622d442e4
 CP2K| cp2kflags: omp fftw3 libxc parallel scalapack mpi_f08 xsmm spglib libdftd
 CP2K|            4 dftd4_v3 mctc-lib tblite
 CP2K| is freely available from                            https://www.cp2k.org/
 CP2K| Program compiled at                                   2026-05-23 22:05:08
 CP2K| Program compiled on                                            spark-c86c
 CP2K| Program compiled for                                              aarch64
 CP2K| Data directory path    /home/kuehne88/cp2k-master-tblite-20260523/install
 CP2K| Input file name                                   co2_GFN1_mol_geoopt.inp

 GLOBAL| Force Environment number                                              1
 GLOBAL| Basis set file name                                           BASIS_SET
 GLOBAL| Potential file name                                           POTENTIAL
 GLOBAL| MM Potential file name                                     MM_POTENTIAL
 GLOBAL| Coordinate file name                                      __STD_INPUT__
 GLOBAL| Method name                                                        CP2K
 GLOBAL| Project name                                        co2_GFN1_mol_geoopt
 GLOBAL| Run type                                                        GEO_OPT
 GLOBAL| FFT library                                                       FFTW3
 GLOBAL| Diagonalization library                                       ScaLAPACK
 GLOBAL| Cholesky decomposition library                                ScaLAPACK
 GLOBAL| DGEMM library                                                      BLAS
 GLOBAL| Direct generalized diagonalization requested                          F
 GLOBAL| Orthonormality check for eigenvectors                          DISABLED
 GLOBAL| Matrix multiplication library                                 ScaLAPACK
 GLOBAL| All-to-all communication in single precision                          F
 GLOBAL| FFTs using library dependent lengths                                  F
 GLOBAL| Grid backend                                                       AUTO
 GLOBAL| Global print level                                                  LOW
 GLOBAL| MPI I/O enabled                                                       T
 GLOBAL| Total number of message passing processes                             1
 GLOBAL| Number of distributed systems (nodes)                                 1
 GLOBAL| Number of threads for this process                                    1
 GLOBAL| This output is from process                                           0
 GLOBAL| OpenMP stack size per thread (OMP_STACKSIZE)                    default
 GLOBAL| CPU model name                                                  UNKNOWN
 GLOBAL| CPUID                                                              2200
 GLOBAL| Compiled for CPUID                                                 2000

 *** HINT in environment.F:970 :: The compiler target flags (arm_arch64)   ***
 *** used to build this binary cannot exploit all extensions of this CPU   ***
 *** model (arm_sve256). Consider compiler target flags as part of FCFLAGS ***
 *** and CFLAGS (ARCH file).                                               ***


 MEMORY| system memory details [Kb]
 MEMORY|                        rank 0           min           max       average
 MEMORY| MemTotal            125508532     125508532     125508532     125508532
 MEMORY| MemFree             106028756     106028756     106028756     106028756
 MEMORY| Buffers                865972        865972        865972        865972
 MEMORY| Cached               13214800      13214800      13214800      13214800
 MEMORY| Slab                  1565140       1565140       1565140       1565140
 MEMORY| SReclaimable           888284        888284        888284        888284
 MEMORY| MemLikelyFree       120997812     120997812     120997812     120997812


 GENERATE|  Preliminary Number of Bonds generated:                             0
 GENERATE|  Achieved consistency in connectivity generation.


                  #####   #####        #     #   #     #       #          
                 #     # #     #      #    ##### #     #   # #####  ####  
                 #     # #           #       #   ###   #       #   #    # 
                 #     #  #####     #        #   #  #  #   #   #   ###### 
                 #   # #       #   #         #   #   # #   #   #   #      
                 #    #  #     #  #          #   #  #  # # #   #    #   # 
                  #### #  #####  #           #   ###   ##  #   #     ###  

                                   GFN1-xTB  
                                 Version 0.0                       
                            Johann V. Pototschnig                  



 TOTAL NUMBERS AND MAXIMUM NUMBERS

  Total number of            - Atomic kinds:                                   2
                             - Atoms:                                          3
                             - Shell sets:                                     6
                             - Shells:                                         6
                             - Primitive Cartesian functions:                 36
                             - Cartesian basis functions:                     12
                             - Spherical basis functions:                     12

  Maximum angular momentum of the orbital basis functions:                     1


 SCF PARAMETERS         Density guess:                                     MOPAC
                        --------------------------------------------------------
                        max_scf:                                             300
                        max_scf_history:                                       0
                        max_diis:                                              4
                        --------------------------------------------------------
                        eps_scf:                                        1.00E-09
                        eps_scf_history:                                0.00E+00
                        eps_diis:                                       1.00E-01
                        eps_eigval:                                     1.00E-05
                        --------------------------------------------------------
                        level_shift [a.u.]:                             0.000000
                        added MOs                                         4    0
                        --------------------------------------------------------
                        Mixing method:                           DIRECT_P_MIXING
                        --------------------------------------------------------
                        Smear method:                                FERMI_DIRAC
                        Electronic temperature [K]:                        300.0
                        Electronic temperature [a.u.]:                  9.50E-04
                        Accuracy threshold:                             1.00E-06
                        --------------------------------------------------------
                        No outer SCF

 BFGS| Use rational function optimization for step estimation:                NO
 BFGS| Use model Hessian for initial guess:                                  YES
 BFGS| Restart Hessian:                                                       NO
 BFGS| Trust radius:                                                       0.472

 *******************************************************************************
 ***                     STARTING GEOMETRY OPTIMIZATION                      ***
 ***                                   BFGS                                  ***
 *******************************************************************************

 Extrapolation method: initial_guess

 Number of electrons:                                                         16
 Number of occupied orbitals:                                                  8
 Number of molecular orbitals:                                                12

 Number of orbital functions:                                                 12
 Number of independent orbital functions:                                     12


 SCF WAVEFUNCTION OPTIMIZATION

  Step     Update method      Time    Convergence         Total energy    Change
  ------------------------------------------------------------------------------
     1 TBLite/Diag 0.40E+00    0.0     1.73062065       -11.0202234532 -1.10E+01
     2 TBLite/Diag 0.40E+00    0.0     0.39327037       -11.5317522545 -5.12E-01
     3 TBLite/Diag 0.40E+00    0.0     0.08442680       -11.5407917107 -9.04E-03
     4 TBLite/Diag 0.40E+00    0.0     0.05934489       -11.5382383510  2.55E-03
     5 TBLite/Diag 0.40E+00    0.0     0.03974120       -11.5421061785 -3.87E-03
     6 TBLite/Diag 0.40E+00    0.0     0.00140888       -11.5421145943 -8.42E-06
     7 TBLite/Diag 0.40E+00    0.0     0.00022385       -11.5421149017 -3.07E-07
     8 TBLite/Diag 0.40E+00    0.0     0.00013223       -11.5421149509 -4.92E-08
     9 TBLite/Diag 0.40E+00    0.0     0.00000024       -11.5421149509 -2.66E-14
    10 TBLite/Diag 0.40E+00    0.0     0.00000011       -11.5421149509 -3.20E-14
    11 TBLite/Diag 0.40E+00    0.0     6.6967E-11       -11.5421149509 -1.78E-15

  *** SCF run converged in    11 steps ***


  Core Hamiltonian energy:                                    -11.72082868023359
  Repulsive potential energy:                                   0.10712210064016
  Electrostatic energy:                                         0.07194206205922
  Self-consistent dispersion energy:                            0.00000000000000
  Non-self consistent dispersion energy:                       -0.00035043338626
  Correction for halogen bonding:                               0.00000000000000
  Electronic entropic energy:                                  -0.00000000000000
  Fermi energy:                                                -0.31209989335101

  Total energy:                                               -11.54211495092046
  Total energy (extrapolated to T->0):                        -11.54211495092046

 ENERGY| Total FORCE_EVAL ( QS ) energy [hartree]            -11.542114950920462

 OPT| **************************************************************************
 OPT| Step number                                                              0
 OPT| Optimization method                                                   BFGS
 OPT| Total energy [hartree]                                      -11.5421149509
 OPT| Used time [s]                                                        0.007
 OPT| **************************************************************************
 OPT| Estimated peak process memory [MiB]                                    166

 --------------------------
 OPTIMIZATION STEP:      1
 --------------------------

 Extrapolation method: ASPC

 Number of electrons:                                                         16
 Number of occupied orbitals:                                                  8
 Number of molecular orbitals:                                                12

 Number of orbital functions:                                                 12
 Number of independent orbital functions:                                     12


 SCF WAVEFUNCTION OPTIMIZATION

  Step     Update method      Time    Convergence         Total energy    Change
  ------------------------------------------------------------------------------
     1 TBLite/Diag 0.40E+00    0.0     0.05610236       -11.5455437959 -1.15E+01
     2 TBLite/Diag 0.40E+00    0.0     0.00811768       -11.5456272691 -8.35E-05
     3 TBLite/Diag 0.40E+00    0.0     0.00300909       -11.5456408561 -1.36E-05
     4 TBLite/Diag 0.40E+00    0.0     0.00072537       -11.5456423446 -1.49E-06
     5 TBLite/Diag 0.40E+00    0.0     0.00000714       -11.5456423448 -1.45E-10
     6 TBLite/Diag 0.40E+00    0.0     0.00000007       -11.5456423448 -1.60E-14
     7 TBLite/Diag 0.40E+00    0.0     0.00000004       -11.5456423448  1.78E-15
     8 TBLite/Diag 0.40E+00    0.0     3.6836E-09       -11.5456423448  0.00E+00
     9 TBLite/Diag 0.40E+00    0.0     1.3545E-14       -11.5456423448  1.78E-15

  *** SCF run converged in     9 steps ***


  Core Hamiltonian energy:                                    -11.74908003874425
  Repulsive potential energy:                                   0.13227375150402
  Electrostatic energy:                                         0.07151463871781
  Self-consistent dispersion energy:                            0.00000000000000
  Non-self consistent dispersion energy:                       -0.00035069624887
  Correction for halogen bonding:                               0.00000000000000
  Electronic entropic energy:                                  -0.00000000000000
  Fermi energy:                                                -0.28743114084124

  Total energy:                                               -11.54564234477130
  Total energy (extrapolated to T->0):                        -11.54564234477130

 ENERGY| Total FORCE_EVAL ( QS ) energy [hartree]            -11.545642344771297

 OPT| **************************************************************************
 OPT| Step number                                                              1
 OPT| Optimization method                                                   BFGS
 OPT| Total energy [hartree]                                      -11.5456423448
 OPT| Effective energy change [hartree]                            -0.0035273939
 OPT| Predicted energy change [hartree]                            -0.0032876523
 OPT| Scaling factor                                                0.0000000000
 OPT| Step size                                                     0.0525862110
 OPT| Trust radius                                                  0.4724315332
 OPT| Decrease in energy                                                     YES
 OPT| Used time [s]                                                        0.006
 OPT|
 OPT| Maximum step size                                             0.0525862110
 OPT| Convergence limit for maximum step size                       0.0030000000
 OPT| Maximum step size is converged                                          NO
 OPT|
 OPT| RMS step size                                                 0.0247881019
 OPT| Convergence limit for RMS step size                           0.0015000000
 OPT| RMS step size is converged                                              NO
 OPT|
 OPT| Maximum gradient                                              0.0025697472
 OPT| Convergence limit for maximum gradient                        0.0004500000
 OPT| Maximum gradient is converged                                           NO
 OPT|
 OPT| RMS gradient                                                  0.0012106902
 OPT| Convergence limit for RMS gradient                            0.0003000000
 OPT| RMS gradient is converged                                               NO
 OPT| **************************************************************************
 OPT| Estimated peak process memory after this step [MiB]                    166

 --------------------------
 OPTIMIZATION STEP:      2
 --------------------------

 Extrapolation method: ASPC

 Number of electrons:                                                         16
 Number of occupied orbitals:                                                  8
 Number of molecular orbitals:                                                12

 Number of orbital functions:                                                 12
 Number of independent orbital functions:                                     12


 SCF WAVEFUNCTION OPTIMIZATION

  Step     Update method      Time    Convergence         Total energy    Change
  ------------------------------------------------------------------------------
     1 TBLite/Diag 0.40E+00    0.0     0.00244879       -11.5456473298 -1.15E+01
     2 TBLite/Diag 0.40E+00    0.0     0.00035559       -11.5456474896 -1.60E-07
     3 TBLite/Diag 0.40E+00    0.0     0.00013043       -11.5456475157 -2.61E-08
     4 TBLite/Diag 0.40E+00    0.0     0.00003049       -11.5456475184 -2.68E-09
     5 TBLite/Diag 0.40E+00    0.0     0.00000003       -11.5456475184 -7.11E-15
     6 TBLite/Diag 0.40E+00    0.0     5.3692E-09       -11.5456475184  3.55E-15
     7 TBLite/Diag 0.40E+00    0.0     9.1277E-10       -11.5456475184  0.00E+00

  *** SCF run converged in     7 steps ***


  Core Hamiltonian energy:                                    -11.75026179433563
  Repulsive potential energy:                                   0.13346921837314
  Electrostatic energy:                                         0.07149576384321
  Self-consistent dispersion energy:                            0.00000000000000
  Non-self consistent dispersion energy:                       -0.00035070627821
  Correction for halogen bonding:                               0.00000000000000
  Electronic entropic energy:                                  -0.00000000000000
  Fermi energy:                                                -0.28631993006797

  Total energy:                                               -11.54564751839749
  Total energy (extrapolated to T->0):                        -11.54564751839749

 ENERGY| Total FORCE_EVAL ( QS ) energy [hartree]            -11.545647518397487

 OPT| **************************************************************************
 OPT| Step number                                                              2
 OPT| Optimization method                                                   BFGS
 OPT| Total energy [hartree]                                      -11.5456475184
 OPT| Effective energy change [hartree]                            -0.0000051736
 OPT| Predicted energy change [hartree]                            -0.0000057851
 OPT| Scaling factor                                                0.0000000000
 OPT| Step size                                                     0.0022529780
 OPT| Trust radius                                                  0.4724315332
 OPT| Decrease in energy                                                     YES
 OPT| Used time [s]                                                        0.005
 OPT|
 OPT| Maximum step size                                             0.0022529780
 OPT| Convergence limit for maximum step size                       0.0030000000
 OPT| Maximum step size is converged                                         YES
 OPT|
 OPT| RMS step size                                                 0.0010618483
 OPT| Convergence limit for RMS step size                           0.0015000000
 OPT| RMS step size is converged                                             YES
 OPT|
 OPT| Maximum gradient                                              0.0002754937
 OPT| Convergence limit for maximum gradient                        0.0004500000
 OPT| Maximum gradient is converged                                          YES
 OPT|
 OPT| RMS gradient                                                  0.0001298457
 OPT| Convergence limit for RMS gradient                            0.0003000000
 OPT| RMS gradient is converged                                              YES
 OPT| **************************************************************************
 OPT| Estimated peak process memory after this step [MiB]                    166

 *******************************************************************************
 ***                    GEOMETRY OPTIMIZATION COMPLETED                      ***
 *******************************************************************************

 write_final_structure: Optimization converged, writing XYZ file gladly:
  co2_GFN1_mol_geoopt-FINAL-1_2.xyz

 write_final_structure: Optimization converged, writing CIF file gladly:
  co2_GFN1_mol_geoopt-FINAL-1_2.cif

 write_final_structure: Done!

                    Reevaluating energy at the minimum

 Extrapolation method: ASPC

 Number of electrons:                                                         16
 Number of occupied orbitals:                                                  8
 Number of molecular orbitals:                                                12

 Number of orbital functions:                                                 12
 Number of independent orbital functions:                                     12


 SCF WAVEFUNCTION OPTIMIZATION

  Step     Update method      Time    Convergence         Total energy    Change
  ------------------------------------------------------------------------------
     1 TBLite/Diag 0.40E+00    0.0     2.6590E-13       -11.5456475184 -1.15E+01

  *** SCF run converged in     1 steps ***


  Core Hamiltonian energy:                                    -11.75026179433544
  Repulsive potential energy:                                   0.13346921837314
  Electrostatic energy:                                         0.07149576384302
  Self-consistent dispersion energy:                            0.00000000000000
  Non-self consistent dispersion energy:                       -0.00035070627821
  Correction for halogen bonding:                               0.00000000000000
  Electronic entropic energy:                                  -0.00000000000000
  Fermi energy:                                                -0.28631993006803

  Total energy:                                               -11.54564751839748
  Total energy (extrapolated to T->0):                        -11.54564751839748

 ENERGY| Total FORCE_EVAL ( QS ) energy [hartree]            -11.545647518397484

 -------------------------------------------------------------------------------
 -                                                                             -
 -                                DBCSR STATISTICS                             -
 -                                                                             -
 -------------------------------------------------------------------------------
 COUNTER                                    TOTAL       BLAS       SMM       ACC
 flops     4 x    12 x     4                20736       0.0%    100.0%      0.0%     
 flops     4 x     4 x    12                78336       0.0%    100.0%      0.0%     
 flops inhomo. stacks                           0       0.0%      0.0%      0.0%
 flops total                        99.072000E+03       0.0%    100.0%      0.0%
 flops max/rank                     99.072000E+03       0.0%    100.0%      0.0%
 matmuls inhomo. stacks                         0       0.0%      0.0%      0.0%
 matmuls total                                258       0.0%    100.0%      0.0%
 number of processed stacks                    40       0.0%    100.0%      0.0%
 average stack size                                     0.0       6.4       0.0
 marketing flops                    99.072000E+03
 -------------------------------------------------------------------------------
 # multiplications                             40
 max memory usage/rank              13.670990E+09
 # max total images/rank                        1
 # max 3D layers                                1
 # MPI messages exchanged                       0
 -------------------------------------------------------------------------------
 -                                                                             -
 -                      DBCSR MESSAGE PASSING PERFORMANCE                      -
 -                                                                             -
 -------------------------------------------------------------------------------
 ROUTINE             CALLS      AVE VOLUME [Bytes]
 MP_Bcast                3                     12.
 MP_Allreduce          211                     10.
 MP_Alltoall          1342                    755.
 MP_ISend              160                     69.
 MP_IRecv              160                     69.
 -------------------------------------------------------------------------------

 -------------------------------------------------------------------------------
 -                                                                             -
 -                          OFFLOAD MEMPOOL STATISTICS                         -
 -                                                                             -
 -------------------------------------------------------------------------------
 Memory consumption                Number of allocations  Used [MiB]  Size [MiB]
 Device                                                1           0           0
 Host                                                  1           0           0
 -------------------------------------------------------------------------------

 MEMORY| Estimated peak process memory [MiB]                                 166

 -------------------------------------------------------------------------------
 -                                                                             -
 -                         MESSAGE PASSING PERFORMANCE                         -
 -                                                                             -
 -------------------------------------------------------------------------------

 ROUTINE             CALLS      AVE VOLUME [Bytes]
 MP_Group                1
 MP_Bcast               64                     52.
 MP_Allreduce          492                     27.
 MP_Sync                35
 MP_comm_split          34
 -------------------------------------------------------------------------------


 -------------------------------------------------------------------------------
 -                                                                             -
 -                           R E F E R E N C E S                               -
 -                                                                             -
 -------------------------------------------------------------------------------
 
 CP2K version 2026.1 (Development Version), the CP2K developers group (2026).
 CP2K is freely available from https://www.cp2k.org/ .
 
 M. Iannuzzi, J. Wilhelm, F. Stein, A. Bussy, H. Elgabarty, D. Golze, A. Hehn, 
 M. Graml, S. Marek, B. Sertcan Gökmen, C. Schran, H. Forbert, R. Z. 
 Khaliullin, A. Kozhevnikov, M. Taillefumier, R. Meli, V. V. Rybkin, M. Brehm, 
 R. Schade, O. Schütt, J. V. Pototschnig, H. Mirhosseini, A. Knüpfer, D. Marx, 
 M. Krack, J. Hutter, T. D. Kühne.
 J. Phys. Chem. B 130, 1237-1310 (2026).
 The CP2K Program Package Made Simple.
 https://doi.org/10.1021/acs.jpcb.5c05851

 A. Katbashev, M. Stahn, T. Rose, V. Alizadeh, M. Friede, C. Plett, P. 
 Steinbach, S. Ehlert.
 J. Phys. Chem. A 129, 2667-2682 (2025).
 Overview on Building Blocks and Applications of Efficient and Robust Extended 
 Tight Binding.
 https://doi.org/10.1021/acs.jpca.4c08263

 T. D. Kühne, M. Iannuzzi, M. Del Ben, V. V. Rybkin, P. Seewald, F. Stein, T. 
 Laino, R. Z. Khaliullin, O. Schütt, F. Schiffmann, D. Golze, J. Wilhelm, S. 
 Chulkov, M. H. Bani-Hashemian, V. Weber, U. Borstnik, M. Taillefumier, A. S. 
 Jakobovits, A. Lazzaro, H. Pabst, T. Müller, R. Schade, M. Guidon, S. 
 Andermatt, N. Holmberg, G. K. Schenter, A. Hehn, A. Bussy, F. Belleflamme, G. 
 Tabacchi, A. Glöß, M. Lass, I. Bethune, C. J. Mundy, C. Plessl, M. Watkins, 
 J. VandeVondele, M. Krack, J. Hutter.
 J. Chem. Phys. 152, 194103 (2020).
 CP2K: An electronic structure and molecular dynamics software package - 
 Quickstep: Efficient and accurate electronic structure calculations.
 https://doi.org/10.1063/5.0007045

 P. Pracht, E. Caldeweyher, S. Ehlert, S. Grimme.
 ChemRxiv, (2019).
 A Robust Non-Self-Consistent Tight-Binding Quantum Chemistry Method for large 
 Molecules.
 https://doi.org/10.26434/chemrxiv.8326202.v1

 S. Grimme, C. Bannwarth, P. Shushkov.
 J. Chem. Theory Comput. 13, 1989 (2017).
 A Robust and Accurate Tight-Binding Quantum Chemical Method for Structures, 
 Vibrational Frequencies, and Noncovalent Interactions of Large Molecular 
 Systems Parametrized for All spd-Block Elements (Z = 1-86).
 https://doi.org/10.1021/acs.jctc.7b00118

 O. Schuett, P. Messmer, J. Hutter, J. VandeVondele.
 Electronic Structure Calculations on Graphics Processing Units, 173-190 (2016).
 GPU-Accelerated Sparse Matrix-Matrix Multiplication for Linear Scaling Density 
 Functional Theory.
 https://doi.org/10.1002/9781118670712.ch8

 A. Heinecke, G. Henry, M. Hutchinson, H. Pabst.
 Proceedings of Intl. Supercomputing Conference, 981-991 (2016).
 LIBXSMM: Accelerating Small Matrix Multiplications by Runtime Code Generation.
 https://doi.org/10.1109/SC.2016.83

 U. Borstnik, J. VandeVondele, V. Weber, J. Hutter.
 Parallel Comput. 40, 47-58 (2014).
 Sparse matrix multiplication: The distributed block-compressed sparse row 
 library.
 https://doi.org/10.1016/j.parco.2014.03.012

 T. D. Kühne, M. Krack, F. R. Mohamed, M. Parrinello.
 Phys. Rev. Lett. 98, 066401 (2007).
 Efficient and accurate Car-Parrinello-like approach to Born-Oppenheimer 
 molecular dynamics.
 https://doi.org/10.1103/PhysRevLett.98.066401

 M. Frigo, S. G. Johnson.
 Proc. IEEE 93, 216-231 (2005).
 The design and implementation of FFTW3.
 https://doi.org/10.1109/JPROC.2004.840301

 J. Kolafa.
 J. Comput. Chem. 25, 335-342 (2004).
 Time-reversible always stable predictor-corrector method for molecular dynamics 
 of polarizable molecules.
 https://doi.org/10.1002/jcc.10385

 N. D. Mermin.
 Phys. Rev. 137, A1441-A1443 (1965).
 Thermal Properties of the Inhomogeneous Electron Gas.
 https://doi.org/10.1103/PhysRev.137.A1441


 -------------------------------------------------------------------------------
 -                                                                             -
 -                                T I M I N G                                  -
 -                                                                             -
 -------------------------------------------------------------------------------
 SUBROUTINE                       CALLS  ASD         SELF TIME        TOTAL TIME
                                MAXIMUM       AVERAGE  MAXIMUM  AVERAGE  MAXIMUM
 CP2K                                 1  1.0    0.001    0.001    0.026    0.026
 cp_geo_opt                           1  2.0    0.000    0.000    0.020    0.020
 geoopt_bfgs                          1  3.0    0.000    0.000    0.020    0.020
 cp_eval_at                           4  4.0    0.000    0.000    0.018    0.018
 qs_energies                          4  5.8    0.000    0.000    0.017    0.017
 qs_forces                            3  5.0    0.000    0.000    0.017    0.017
 scf_env_do_scf                       4  6.8    0.000    0.000    0.013    0.013
 scf_env_do_scf_inner_loop           28  8.0    0.000    0.000    0.013    0.013
 qs_scf_new_mos                      28  9.0    0.000    0.000    0.011    0.011
 cp_dbcsr_plus_fm_fm_t               34 10.8    0.000    0.000    0.007    0.007
 calculate_dm_sparse                 31  9.9    0.000    0.000    0.007    0.007
 dbcsr_multiply_generic              40 11.9    0.000    0.000    0.006    0.006
 make_m2s                            80 12.9    0.000    0.000    0.004    0.004
 qs_init_subsys                       1  2.0    0.001    0.001    0.004    0.004
 copy_dbcsr_to_fm                    62 10.4    0.000    0.000    0.003    0.003
 dbcsr_complete_redistribute        136 12.1    0.001    0.001    0.003    0.003
 init_scf_run                         4  6.8    0.000    0.000    0.003    0.003
 scf_env_initial_rho_setup            4  7.8    0.000    0.000    0.002    0.002
 wfi_extrapolate                      4  8.8    0.000    0.000    0.002    0.002
 qs_diis_b_step                      24 10.0    0.000    0.000    0.002    0.002
 copy_fm_to_dbcsr                    74 11.7    0.000    0.000    0.002    0.002
 cp_fm_syevd                         34 10.5    0.000    0.000    0.002    0.002
 eigensolver                         28 10.0    0.000    0.000    0.002    0.002
 make_images                         80 13.9    0.000    0.000    0.002    0.002
 qs_env_setup                         1  3.0    0.000    0.000    0.001    0.001
 qs_env_rebuild_pw_env                8  6.1    0.000    0.000    0.001    0.001
 pw_env_rebuild                       1  5.0    0.000    0.000    0.001    0.001
 dbcsr_finalize                     535 13.1    0.000    0.000    0.001    0.001
 multiply_cannon                     40 12.9    0.001    0.001    0.001    0.001
 cp_dbcsr_sm_fm_multiply              6 10.5    0.000    0.000    0.001    0.001
 dbcsr_create_new                   988 13.3    0.001    0.001    0.001    0.001
 pw_grid_setup                        1  6.0    0.000    0.000    0.001    0.001
 pw_grid_setup_internal               1  7.0    0.000    0.000    0.001    0.001
 dbcsr_crop_matrix                   68 13.8    0.000    0.000    0.001    0.001
 dbcsr_desymmetrize_deep             62 11.4    0.000    0.000    0.001    0.001
 reorthogonalize_vectors              3  9.7    0.000    0.000    0.001    0.001
 make_basis_lowdin                    3 10.7    0.000    0.000    0.001    0.001
 pw_grid_sort                         1  8.0    0.001    0.001    0.001    0.001
 build_tblite_matrices                7  7.0    0.001    0.001    0.001    0.001
 dbcsr_copy_submatrix                68 14.8    0.000    0.000    0.001    0.001
 scf_c_write_parameters               1  3.0    0.001    0.001    0.001    0.001
 rebuild_ks_matrix                   31  9.7    0.000    0.000    0.001    0.001
 cp_fm_redistribute_start            34 11.5    0.001    0.001    0.001    0.001
 build_tblite_ks_matrix              31 10.7    0.001    0.001    0.001    0.001
 cp_fm_syevd_base                    34 11.5    0.001    0.001    0.001    0.001
 qs_energies_init_hamiltonians        4  6.8    0.000    0.000    0.001    0.001
 compute_matrix_w                     4  6.8    0.000    0.000    0.001    0.001
 calculate_w_matrix_1                 3  8.0    0.000    0.000    0.001    0.001
 dbcsr_merge_all                    238 14.8    0.000    0.000    0.001    0.001
 topology_control                     1  2.0    0.000    0.000    0.001    0.001
 cp_dbcsr_sm_fm_multiply_core         6 11.5    0.000    0.000    0.001    0.001
 write_restart                        3  4.0    0.001    0.001    0.001    0.001
 make_images_data                    80 14.9    0.000    0.000    0.001    0.001
 dbcsr_make_images_dense             68 13.8    0.000    0.000    0.001    0.001
 dbcsr_destroy                      929 12.7    0.000    0.000    0.001    0.001
 parallel_gemm_fm_gemm               63 10.6    0.000    0.000    0.001    0.001
 cp_fm_gemm                          63 11.6    0.001    0.001    0.001    0.001
 -------------------------------------------------------------------------------

 The number of warnings for this run is : 0
 
 -------------------------------------------------------------------------------
  **** **** ******  **  PROGRAM ENDED AT                 2026-05-23 22:46:19.562
 ***** ** ***  *** **   PROGRAM RAN ON                                spark-c86c
 **    ****   ******    PROGRAM RAN BY                                  kuehne88
 ***** **    ** ** **   PROGRAM PROCESS ID                               2222431
  **** **  *******  **  PROGRAM STOPPED IN /home/kuehne88/periodic-gfn2-benchmar
                                           ks/X23b/runs/molecule_geoopt/GFN1/co2
                                           _GFN1_mol_geoopt
