 DBCSR| CPU Multiplication driver                                           BLAS (U)
 DBCSR| Multrec recursion limit                                              512 (U)
 DBCSR| Multiplication stack size                                           1000 (D)
 DBCSR| Maximum elements for images                                    UNLIMITED (U)
 DBCSR| Multiplicative factor virtual images                                   1 (U)
 DBCSR| Use multiplication densification                                       T (D)
 DBCSR| Multiplication size stacks                                             3 (U)
 DBCSR| Use memory pool for CPU allocation                                     F (U)
 DBCSR| Number of 3D layers                                               SINGLE (U)
 DBCSR| Use MPI memory allocation                                              F (U)
 DBCSR| Use RMA algorithm                                                      F (U)
 DBCSR| Use Communication thread                                               T (U)
 DBCSR| Communication thread load                                             87 (D)
 DBCSR| MPI: My process id                                                     0
 DBCSR| MPI: Number of processes                                               1
 DBCSR| OMP: Current number of threads                                         1
 DBCSR| OMP: Max number of threads                                             1
 DBCSR| Split modifier for TAS multiplication algorithm                  1.0E+00 (U)


  **** **** ******  **  PROGRAM STARTED AT               2026-07-19 23:43:03.135
 ***** ** ***  *** **   PROGRAM STARTED ON                                 terok
 **    ****   ******    PROGRAM STARTED BY                              kuehne88
 ***** **    ** ** **   PROGRAM PROCESS ID                               3294894
  **** **  *******  **  PROGRAM STARTED IN                        /home/kuehne88

 CP2K| version string:                 CP2K version 2026.2 (Development Version)
 CP2K| source code revision number:                                    8520b2e59
 CP2K| cp2kflags: omp parallel scalapack spglib s_dftd3 mctc-lib tblite tblite_g
 CP2K|            xtb
 CP2K| is freely available from                            https://www.cp2k.org/
 CP2K| Program compiled at                                   2026-07-18 23:48:15
 CP2K| Program compiled on                                                 terok
 CP2K| Program compiled for                                               x86_64
 CP2K| Data directory path                            /usr/local/share/cp2k/data
 CP2K| Input file name        /home/kuehne88/work/gxtb-native-bvk-20260718/input

 GLOBAL| Force Environment number                                              1
 GLOBAL| Basis set file name                                           BASIS_SET
 GLOBAL| Potential file name                                           POTENTIAL
 GLOBAL| MM Potential file name                                     MM_POTENTIAL
 GLOBAL| Coordinate file name                                      __STD_INPUT__
 GLOBAL| Method name                                                        CP2K
 GLOBAL| Project name                                           ice_XV_GXTB_k777
 GLOBAL| Run type                                                         ENERGY
 GLOBAL| FFT library                                                       FFTW3
 GLOBAL| Diagonalization library                                       ScaLAPACK
 GLOBAL| Cholesky decomposition library                                ScaLAPACK
 GLOBAL| DGEMM library                                                      BLAS
 GLOBAL| Direct generalized diagonalization requested                          F
 GLOBAL| Orthonormality check for eigenvectors                          DISABLED
 GLOBAL| Matrix multiplication library                                 ScaLAPACK
 GLOBAL| All-to-all communication in single precision                          F
 GLOBAL| FFTs using library dependent lengths                                  F
 GLOBAL| Grid backend                                                       AUTO
 GLOBAL| Global print level                                                  LOW
 GLOBAL| MPI I/O enabled                                                       T
 GLOBAL| Total number of message passing processes                             1
 GLOBAL| Number of distributed systems (nodes)                                 1
 GLOBAL| Number of threads for this process                                    1
 GLOBAL| This output is from process                                           0
 GLOBAL| OpenMP stack size per thread (OMP_STACKSIZE)                    default
 GLOBAL| CPU model name                                       AMD EPYC Processor
 GLOBAL| CPUID                                                              1002

 MEMORY| system memory details [Kb]
 MEMORY|                        rank 0           min           max       average
 MEMORY| MemTotal            528104804     528104804     528104804     528104804
 MEMORY| MemFree             233499432     233499432     233499432     233499432
 MEMORY| Buffers                    20            20            20            20
 MEMORY| Cached              105247876     105247876     105247876     105247876
 MEMORY| Slab                  4569996       4569996       4569996       4569996
 MEMORY| SReclaimable          2690076       2690076       2690076       2690076
 MEMORY| MemLikelyFree       341437404     341437404     341437404     341437404


 *** WARNING in environment.F:1098 :: FFT library FFTW3 is not available. ***
 *** Trying FFT library FFTSG.                                            ***


 GENERATE|  Preliminary Number of Bonds generated:                             0
 GENERATE|  Achieved consistency in connectivity generation.


                  #####   #####        #     #   #     #       #          
                 #     # #     #      #    ##### #     #   # #####  ####  
                 #     # #           #       #   ###   #       #   #    # 
                 #     #  #####     #        #   #  #  #   #   #   ###### 
                 #   # #       #   #         #   #   # #   #   #   #      
                 #    #  #     #  #          #   #  #  # # #   #    #   # 
                  #### #  #####  #           #   ###   ##  #   #     ###  

                                     g-xTB   
                                 Version 0.0                       
                            Johann V. Pototschnig                  

                tblite provider: SAVE
                tblite source revision: 15915c9435644eb257178ca8f8bf7220c38b1a84
                g-xTB support: enabled


 TOTAL NUMBERS AND MAXIMUM NUMBERS

  Total number of            - Atomic kinds:                                   2
                             - Atoms:                                         30
                             - Shell sets:                                    40
                             - Shells:                                        40
                             - Primitive Cartesian functions:                280
                             - Cartesian basis functions:                     60
                             - Spherical basis functions:                     60

  Maximum angular momentum of the orbital basis functions:                     1


 SCF PARAMETERS         Density guess:                                     MOPAC
                        --------------------------------------------------------
                        max_scf:                                             300
                        max_scf_history:                                       0
                        max_diis:                                              4
                        --------------------------------------------------------
                        eps_scf:                                        1.00E-09
                        eps_scf_history:                                0.00E+00
                        eps_diis:                                       1.00E-01
                        eps_eigval:                                     1.00E-05
                        --------------------------------------------------------
                        level_shift [a.u.]:                             0.000000
                        added MOs                                        20    0
                        --------------------------------------------------------
                        Mixing method:                           DIRECT_P_MIXING
                        --------------------------------------------------------
                        No outer SCF

 Extrapolation method: initial_guess

 Number of electrons:                                                         80
 Number of occupied orbitals:                                                 40
 Number of molecular orbitals:                                                60

 Number of orbital functions:                                                 60
 Number of independent orbital functions:                                     60


 SCF WAVEFUNCTION OPTIMIZATION

  Step     Update method      Time    Convergence         Total energy    Change
  ------------------------------------------------------------------------------
 GXTB-EXCHANGE-TRANSFORM stage=FORWARD backend=DENSE fallback=0 iter=1
 GXTB-EXCHANGE-TRANSFORM stage=FORWARD backend=DENSE fallback=0 iter=1
     1 GXTB-Raw    0.10E+01 3917.6     0.87301356      -763.7778667736 -7.64E+02
 GXTB-EXCHANGE-TRANSFORM stage=FORWARD backend=DENSE fallback=0 iter=2
 GXTB-EXCHANGE-TRANSFORM stage=FORWARD backend=DENSE fallback=0 iter=2
     2 GXTB-Simple 0.20E+00  130.1     0.10034754      -764.0141621347 -2.36E-01
 GXTB-EXCHANGE-TRANSFORM stage=FORWARD backend=DENSE fallback=0 iter=3
 GXTB-EXCHANGE-TRANSFORM stage=FORWARD backend=DENSE fallback=0 iter=3
     3 GXTB-Simple 0.20E+00  132.7     0.08623613      -764.1814697245 -1.67E-01
 GXTB-EXCHANGE-TRANSFORM stage=FORWARD backend=DENSE fallback=0 iter=4
 GXTB-EXCHANGE-TRANSFORM stage=FORWARD backend=DENSE fallback=0 iter=4
     4 GXTB-FDIIS  0.10E+01  134.9     0.43133320      -764.5634206659 -3.82E-01
 GXTB-EXCHANGE-TRANSFORM stage=FORWARD backend=DENSE fallback=0 iter=5
 GXTB-EXCHANGE-TRANSFORM stage=FORWARD backend=DENSE fallback=0 iter=5
     5 GXTB-FDIIS  0.10E+01  139.6     0.01951235      -764.5640134450 -5.93E-04
 GXTB-EXCHANGE-TRANSFORM stage=FORWARD backend=DENSE fallback=0 iter=6
 GXTB-EXCHANGE-TRANSFORM stage=FORWARD backend=DENSE fallback=0 iter=6
     6 GXTB-FDIIS  0.10E+01  140.7     0.00234894      -764.5640535369 -4.01E-05
 GXTB-EXCHANGE-TRANSFORM stage=FORWARD backend=DENSE fallback=0 iter=7
 GXTB-EXCHANGE-TRANSFORM stage=FORWARD backend=DENSE fallback=0 iter=7
     7 GXTB-FDIIS  0.10E+01  141.7     0.00034972      -764.5640541712 -6.34E-07
 GXTB-EXCHANGE-TRANSFORM stage=FORWARD backend=DENSE fallback=0 iter=8
 GXTB-EXCHANGE-TRANSFORM stage=FORWARD backend=DENSE fallback=0 iter=8
     8 GXTB-FDIIS  0.10E+01  137.9     0.00003985      -764.5640541779 -6.67E-09
 GXTB-EXCHANGE-TRANSFORM stage=FORWARD backend=DENSE fallback=0 iter=9
 GXTB-EXCHANGE-TRANSFORM stage=FORWARD backend=DENSE fallback=0 iter=9
     9 GXTB-FDIIS  0.10E+01  137.6     0.00000791      -764.5640541780 -1.38E-10
 GXTB-EXCHANGE-TRANSFORM stage=FORWARD backend=DENSE fallback=0 iter=10
 GXTB-EXCHANGE-TRANSFORM stage=FORWARD backend=DENSE fallback=0 iter=10
    10 GXTB-FDIIS  0.10E+01  135.5     0.00000035      -764.5640541780 -5.68E-13
 GXTB-EXCHANGE-TRANSFORM stage=FORWARD backend=DENSE fallback=0 iter=11
 GXTB-EXCHANGE-TRANSFORM stage=FORWARD backend=DENSE fallback=0 iter=11
    11 GXTB-FDIIS  0.10E+01  129.9     0.00000005      -764.5640541780  0.00E+00
 GXTB-EXCHANGE-TRANSFORM stage=FORWARD backend=DENSE fallback=0 iter=12
 GXTB-EXCHANGE-TRANSFORM stage=FORWARD backend=DENSE fallback=0 iter=12
    12 GXTB-FDIIS  0.10E+01  135.3     0.00000001      -764.5640541780  0.00E+00
 GXTB-EXCHANGE-TRANSFORM stage=FORWARD backend=DENSE fallback=0 iter=13
 GXTB-EXCHANGE-TRANSFORM stage=FORWARD backend=DENSE fallback=0 iter=13
    13 GXTB-FDIIS  0.10E+01  136.5     2.8529E-09      -764.5640541780  1.14E-13
 GXTB-EXCHANGE-TRANSFORM stage=FORWARD backend=DENSE fallback=0 iter=14
 GXTB-EXCHANGE-TRANSFORM stage=FORWARD backend=DENSE fallback=0 iter=14
    14 GXTB-FDIIS  0.10E+01  131.0     7.7113E-10      -764.5640541780 -1.14E-13

  *** SCF run converged in    14 steps ***


  Core Hamiltonian energy:                                    -38.29844545954213
  Repulsive potential energy:                                   3.00108121490036
  Electrostatic energy:                                         1.55666583015059
  Self-consistent dispersion energy:                           -0.06235289566872
  Non-self consistent dispersion energy:                        0.01505206076166
  Correction for halogen bonding:                               0.00000000000000

  Total energy:                                              -764.56405417804240

 ENERGY| Total FORCE_EVAL ( QS ) energy [hartree]           -764.564054178042397

 -------------------------------------------------------------------------------
 -                                                                             -
 -                                DBCSR STATISTICS                             -
 -                                                                             -
 -------------------------------------------------------------------------------
 COUNTER                                    TOTAL       BLAS       SMM       ACC
 flops inhomo. stacks                           0       0.0%      0.0%      0.0%
 flops total                         0.000000E+00       0.0%      0.0%      0.0%
 flops max/rank                      0.000000E+00       0.0%      0.0%      0.0%
 matmuls inhomo. stacks                         0       0.0%      0.0%      0.0%
 matmuls total                                  0       0.0%      0.0%      0.0%
 number of processed stacks                     0       0.0%      0.0%      0.0%
 average stack size                                     0.0       0.0       0.0
 marketing flops                     0.000000E+00
 -------------------------------------------------------------------------------
 -                                                                             -
 -                      DBCSR MESSAGE PASSING PERFORMANCE                      -
 -                                                                             -
 -------------------------------------------------------------------------------
 ROUTINE             CALLS      AVE VOLUME [Bytes]
 MP_Bcast                1                     12.
 MP_Allreduce           19                     21.
 MP_Alltoall        203304                  26693.
 -------------------------------------------------------------------------------

 -------------------------------------------------------------------------------
 -                                                                             -
 -                          OFFLOAD MEMPOOL STATISTICS                         -
 -                                                                             -
 -------------------------------------------------------------------------------
 Memory consumption                Number of allocations  Used [MiB]  Size [MiB]
 Host                                                  1           0           0
 -------------------------------------------------------------------------------

 MEMORY| Estimated peak process memory [MiB]                               85370

 -------------------------------------------------------------------------------
 -                                                                             -
 -                         MESSAGE PASSING PERFORMANCE                         -
 -                                                                             -
 -------------------------------------------------------------------------------

 ROUTINE             CALLS      AVE VOLUME [Bytes]
 MP_Group                1
 MP_Bcast           204350                      7.
 MP_Allreduce       295343                   4452.
 MP_Sync                 1
 MP_Wait            170280
 MP_ISend           238392                   4120.
 MP_IRecv           238392                   4120.
 -------------------------------------------------------------------------------


 -------------------------------------------------------------------------------
 -                                                                             -
 -                           R E F E R E N C E S                               -
 -                                                                             -
 -------------------------------------------------------------------------------
 
 CP2K version 2026.2 (Development Version), the CP2K developers group (2026).
 CP2K is freely available from https://www.cp2k.org/ .
 
 M. Iannuzzi, J. Wilhelm, F. Stein, A. Bussy, H. Elgabarty, D. Golze, A. Hehn, 
 M. Graml, S. Marek, B. Sertcan Gökmen, C. Schran, H. Forbert, R. Z. 
 Khaliullin, A. Kozhevnikov, M. Taillefumier, R. Meli, V. V. Rybkin, M. Brehm, 
 R. Schade, O. Schütt, J. V. Pototschnig, H. Mirhosseini, A. Knüpfer, D. Marx, 
 M. Krack, J. Hutter, T. D. Kühne.
 J. Phys. Chem. B 130, 1237-1310 (2026).
 The CP2K Program Package Made Simple.
 https://doi.org/10.1021/acs.jpcb.5c05851

 A. Katbashev, M. Stahn, T. Rose, V. Alizadeh, M. Friede, C. Plett, P. 
 Steinbach, S. Ehlert.
 J. Phys. Chem. A 129, 2667-2682 (2025).
 Overview on Building Blocks and Applications of Efficient and Robust Extended 
 Tight Binding.
 https://doi.org/10.1021/acs.jpca.4c08263

 T. D. Kühne, M. Iannuzzi, M. Del Ben, V. V. Rybkin, P. Seewald, F. Stein, T. 
 Laino, R. Z. Khaliullin, O. Schütt, F. Schiffmann, D. Golze, J. Wilhelm, S. 
 Chulkov, M. H. Bani-Hashemian, V. Weber, U. Borstnik, M. Taillefumier, A. S. 
 Jakobovits, A. Lazzaro, H. Pabst, T. Müller, R. Schade, M. Guidon, S. 
 Andermatt, N. Holmberg, G. K. Schenter, A. Hehn, A. Bussy, F. Belleflamme, G. 
 Tabacchi, A. Glöß, M. Lass, I. Bethune, C. J. Mundy, C. Plessl, M. Watkins, 
 J. VandeVondele, M. Krack, J. Hutter.
 J. Chem. Phys. 152, 194103 (2020).
 CP2K: An electronic structure and molecular dynamics software package - 
 Quickstep: Efficient and accurate electronic structure calculations.
 https://doi.org/10.1063/5.0007045

 P. Pracht, E. Caldeweyher, S. Ehlert, S. Grimme.
 ChemRxiv, (2019).
 A Robust Non-Self-Consistent Tight-Binding Quantum Chemistry Method for large 
 Molecules.
 https://doi.org/10.26434/chemrxiv.8326202.v1

 A. Togo, I. Tanaka.
 arXiv, 1808.01590 (2018).
 Spglib : a software library for crystal symmetry search.

 S. Grimme, C. Bannwarth, P. Shushkov.
 J. Chem. Theory Comput. 13, 1989 (2017).
 A Robust and Accurate Tight-Binding Quantum Chemical Method for Structures, 
 Vibrational Frequencies, and Noncovalent Interactions of Large Molecular 
 Systems Parametrized for All spd-Block Elements (Z = 1-86).
 https://doi.org/10.1021/acs.jctc.7b00118

 O. Schuett, P. Messmer, J. Hutter, J. VandeVondele.
 Electronic Structure Calculations on Graphics Processing Units, 173-190 (2016).
 GPU-Accelerated Sparse Matrix-Matrix Multiplication for Linear Scaling Density 
 Functional Theory.
 https://doi.org/10.1002/9781118670712.ch8

 U. Borstnik, J. VandeVondele, V. Weber, J. Hutter.
 Parallel Comput. 40, 47-58 (2014).
 Sparse matrix multiplication: The distributed block-compressed sparse row 
 library.
 https://doi.org/10.1016/j.parco.2014.03.012

 M. Frigo, S. G. Johnson.
 Proc. IEEE 93, 216-231 (2005).
 The design and implementation of FFTW3.
 https://doi.org/10.1109/JPROC.2004.840301

 C.-L. Fu, K.-M. Ho.
 Phys. Rev. B 28, 5480-5486 (1983).
 First-principles calculation of the equilibrium ground-state properties of 
 transition metals: Applications to Nb and Mo.
 https://doi.org/10.1103/PhysRevB.28.5480


 -------------------------------------------------------------------------------
 -                                                                             -
 -                                T I M I N G                                  -
 -                                                                             -
 -------------------------------------------------------------------------------
 SUBROUTINE                       CALLS  ASD         SELF TIME        TOTAL TIME
                                MAXIMUM       AVERAGE  MAXIMUM  AVERAGE  MAXIMUM
 CP2K                                 1  1.0    1.152    1.152 5795.693 5795.693
 qs_energies                          1  2.0    0.002    0.002 5794.487 5794.487
 scf_env_do_scf                       1  3.0    0.000    0.000 5681.052 5681.052
 scf_env_do_scf_inner_loop           14  4.0  140.808  140.808 5681.052 5681.052
 qs_ks_update_qs_env                 14  5.0    0.000    0.000 4279.587 4279.587
 rebuild_ks_matrix                   14  6.0    0.000    0.000 4279.084 4279.084
 build_tblite_ks_matrix              14  7.0 3944.698 3944.698 4279.084 4279.084
 rskp_transform                   17516  6.6 1288.130 1288.130 1288.130 1288.130
 qs_scf_new_mos_kp                   14  5.0    0.000    0.000  926.583  926.583
 do_general_diag_kp                  14  6.0    2.533    2.533  926.583  926.583
 kpoint_density_transform            14  7.0    0.044    0.044  339.646  339.646
 transform_dmat                    4802  8.0  334.807  334.807  334.807  334.807
 -------------------------------------------------------------------------------

 The number of warnings for this run is : 1
 
 -------------------------------------------------------------------------------
  **** **** ******  **  PROGRAM ENDED AT                 2026-07-20 01:19:40.338
 ***** ** ***  *** **   PROGRAM RAN ON                                     terok
 **    ****   ******    PROGRAM RAN BY                                  kuehne88
 ***** **    ** ** **   PROGRAM PROCESS ID                               3294894
  **** **  *******  **  PROGRAM STOPPED IN                        /home/kuehne88
