 DBCSR| CPU Multiplication driver                                           BLAS (U)
 DBCSR| Multrec recursion limit                                              512 (U)
 DBCSR| Multiplication stack size                                           1000 (D)
 DBCSR| Maximum elements for images                                    UNLIMITED (U)
 DBCSR| Multiplicative factor virtual images                                   1 (U)
 DBCSR| Use multiplication densification                                       T (D)
 DBCSR| Multiplication size stacks                                             3 (U)
 DBCSR| Use memory pool for CPU allocation                                     F (U)
 DBCSR| Number of 3D layers                                               SINGLE (U)
 DBCSR| Use MPI memory allocation                                              F (U)
 DBCSR| Use RMA algorithm                                                      F (U)
 DBCSR| Use Communication thread                                               T (U)
 DBCSR| Communication thread load                                             87 (D)
 DBCSR| MPI: My process id                                                     0
 DBCSR| MPI: Number of processes                                               1
 DBCSR| OMP: Current number of threads                                         1
 DBCSR| OMP: Max number of threads                                             1
 DBCSR| Split modifier for TAS multiplication algorithm                  1.0E+00 (U)


  **** **** ******  **  PROGRAM STARTED AT               2026-07-21 12:45:29.753
 ***** ** ***  *** **   PROGRAM STARTED ON                                 terok
 **    ****   ******    PROGRAM STARTED BY                              kuehne88
 ***** **    ** ** **   PROGRAM PROCESS ID                                501300
  **** **  *******  **  PROGRAM STARTED IN /home/kuehne88/work/gxtb-lowk-rerun-2
                                           0260721/results/derivative/CH4_gxtb_g
                                           amma_force_stress

 CP2K| version string:                 CP2K version 2026.2 (Development Version)
 CP2K| source code revision number:                                    8520b2e59
 CP2K| cp2kflags: omp parallel scalapack spglib s_dftd3 mctc-lib tblite tblite_g
 CP2K|            xtb
 CP2K| is freely available from                            https://www.cp2k.org/
 CP2K| Program compiled at                                   2026-07-18 23:48:15
 CP2K| Program compiled on                                                 terok
 CP2K| Program compiled for                                               x86_64
 CP2K| Data directory path                            /usr/local/share/cp2k/data
 CP2K| Input file name        /home/kuehne88/work/gxtb-lowk-rerun-20260721/input

 GLOBAL| Force Environment number                                              1
 GLOBAL| Basis set file name                                           BASIS_SET
 GLOBAL| Potential file name                                           POTENTIAL
 GLOBAL| MM Potential file name                                     MM_POTENTIAL
 GLOBAL| Coordinate file name                                      __STD_INPUT__
 GLOBAL| Method name                                                        CP2K
 GLOBAL| Project name                                CH4_gxtb_gamma_force_stress
 GLOBAL| Run type                                                          DEBUG
 GLOBAL| FFT library                                                       FFTW3
 GLOBAL| Diagonalization library                                       ScaLAPACK
 GLOBAL| Cholesky decomposition library                                ScaLAPACK
 GLOBAL| DGEMM library                                                      BLAS
 GLOBAL| Direct generalized diagonalization requested                          F
 GLOBAL| Orthonormality check for eigenvectors                          DISABLED
 GLOBAL| Matrix multiplication library                                 ScaLAPACK
 GLOBAL| All-to-all communication in single precision                          F
 GLOBAL| FFTs using library dependent lengths                                  F
 GLOBAL| Grid backend                                                       AUTO
 GLOBAL| Global print level                                               MEDIUM
 GLOBAL| MPI I/O enabled                                                       T
 GLOBAL| Total number of message passing processes                             1
 GLOBAL| Number of distributed systems (nodes)                                 1
 GLOBAL| Number of threads for this process                                    1
 GLOBAL| This output is from process                                           0
 GLOBAL| OpenMP stack size per thread (OMP_STACKSIZE)                    default
 GLOBAL| CPU model name                                       AMD EPYC Processor
 GLOBAL| CPUID                                                              1002

 MEMORY| system memory details [Kb]
 MEMORY|                        rank 0           min           max       average
 MEMORY| MemTotal            528104804     528104804     528104804     528104804
 MEMORY| MemFree             511296620     511296620     511296620     511296620
 MEMORY| Buffers                    20            20            20            20
 MEMORY| Cached               12075932      12075932      12075932      12075932
 MEMORY| Slab                  2343124       2343124       2343124       2343124
 MEMORY| SReclaimable           993936        993936        993936        993936
 MEMORY| MemLikelyFree       524366508     524366508     524366508     524366508


 *** WARNING in environment.F:1098 :: FFT library FFTW3 is not available. ***
 *** Trying FFT library FFTSG.                                            ***


 *** Fundamental physical constants (SI units) ***

 *** Literature: B. J. Mohr and B. N. Taylor,
 ***             CODATA recommended values of the fundamental physical
 ***             constants: 2006, Web Version 5.1
 ***             http://physics.nist.gov/constants

 Speed of light in vacuum [m/s]                             2.99792458000000E+08
 Magnetic constant or permeability of vacuum [N/A**2]       1.25663706143592E-06
 Electric constant or permittivity of vacuum [F/m]          8.85418781762039E-12
 Planck constant (h) [J*s]                                  6.62606896000000E-34
 Planck constant (h-bar) [J*s]                              1.05457162825177E-34
 Elementary charge [C]                                      1.60217648700000E-19
 Electron mass [kg]                                         9.10938215000000E-31
 Electron g factor [ ]                                     -2.00231930436220E+00
 Proton mass [kg]                                           1.67262163700000E-27
 Fine-structure constant                                    7.29735253760000E-03
 Rydberg constant [1/m]                                     1.09737315685270E+07
 Avogadro constant [1/mol]                                  6.02214179000000E+23
 Boltzmann constant [J/K]                                   1.38065040000000E-23
 Atomic mass unit [kg]                                      1.66053878200000E-27
 Bohr radius [m]                                            5.29177208590000E-11

 *** Conversion factors ***

 [u] -> [a.u.]                                              1.82288848426455E+03
 [Angstrom] -> [Bohr] = [a.u.]                              1.88972613288564E+00
 [a.u.] = [Bohr] -> [Angstrom]                              5.29177208590000E-01
 [a.u.] -> [s]                                              2.41888432650478E-17
 [a.u.] -> [fs]                                             2.41888432650478E-02
 [a.u.] -> [J]                                              4.35974393937059E-18
 [a.u.] -> [N]                                              8.23872205491840E-08
 [a.u.] -> [K]                                              3.15774647902944E+05
 [a.u.] -> [kJ/mol]                                         2.62549961709828E+03
 [a.u.] -> [kcal/mol]                                       6.27509468713739E+02
 [a.u.] -> [Pa]                                             2.94210107994716E+13
 [a.u.] -> [bar]                                            2.94210107994716E+08
 [a.u.] -> [atm]                                            2.90362800883016E+08
 [a.u.] -> [eV]                                             2.72113838565563E+01
 [a.u.] -> [Hz]                                             6.57968392072181E+15
 [a.u.] -> [1/cm] (wave numbers)                            2.19474631370540E+05
 [a.u./Bohr**2] -> [1/cm]                                   5.14048714338585E+03
 

 CELL| Volume [angstrom^3]:                                           512.000000
 CELL| Vector a [angstrom]:       8.000     0.000     0.000   |a| =     8.000000
 CELL| Vector b [angstrom]:       0.000     8.000     0.000   |b| =     8.000000
 CELL| Vector c [angstrom]:       0.000     0.000     8.000   |c| =     8.000000
 CELL| Angle (b,c), alpha [degree]:                                    90.000000
 CELL| Angle (a,c), beta  [degree]:                                    90.000000
 CELL| Angle (a,b), gamma [degree]:                                    90.000000
 CELL| Requested initial symmetry:                                         CUBIC
 CELL| Numerically orthorhombic:                                             YES
 CELL| Periodicity                                                           XYZ

 CELL_REF| Volume [angstrom^3]:                                       512.000000
 CELL_REF| Vector a [angstrom     8.000     0.000     0.000   |a| =     8.000000
 CELL_REF| Vector b [angstrom     0.000     8.000     0.000   |b| =     8.000000
 CELL_REF| Vector c [angstrom     0.000     0.000     8.000   |c| =     8.000000
 CELL_REF| Angle (b,c), alpha [degree]:                                90.000000
 CELL_REF| Angle (a,c), beta  [degree]:                                90.000000
 CELL_REF| Angle (a,b), gamma [degree]:                                90.000000
 CELL_REF| Requested initial symmetry:                                     CUBIC
 CELL_REF| Numerically orthorhombic:                                         YES
 CELL_REF| Periodicity                                                       XYZ

 GENERATE|  Preliminary Number of Bonds generated:                             0
 GENERATE|  Achieved consistency in connectivity generation.


                  #####   #####        #     #   #     #       #          
                 #     # #     #      #    ##### #     #   # #####  ####  
                 #     # #           #       #   ###   #       #   #    # 
                 #     #  #####     #        #   #  #  #   #   #   ###### 
                 #   # #       #   #         #   #   # #   #   #   #      
                 #    #  #     #  #          #   #  #  # # #   #    #   # 
                  #### #  #####  #           #   ###   ##  #   #     ###  

                                     g-xTB   
                                 Version 0.0                       
                            Johann V. Pototschnig                  

                tblite provider: SAVE
                tblite source revision: 15915c9435644eb257178ca8f8bf7220c38b1a84
                g-xTB support: enabled

 xTB| Parameter file                                             xTB1_parameters
 xTB| Basis expansion STO-NG                                                   6
 xTB| Basis expansion STO-NG for Hydrogen                                      4
 xTB| Repulsive pair potential accuracy                               0.1000E-09
 xTB| Repulsive enhancement factor                                      0.000000
 xTB| Halogen interaction potential                                            T
 xTB| Halogen interaction potential cutoff radius                         20.000
 xTB| Nonbonded interactions                                                   F
 xTB| vdW potential type:                                              DFTD3(BJ)
 xTB| D3 Dispersion: Parameter                                         dftd3.dat
 xTB| Huckel constants ks kp kd                        1.850     2.250     2.000
 xTB| Huckel constants ksp k2sh                                  2.080     2.850
 xTB| Mataga-Nishimoto exponent                                            2.000
 xTB| Repulsion potential exponent                                         1.500
 xTB| Coordination number scaling kcn(s) kcn(p) kc     0.006    -0.003    -0.005
 xTB| Electronegativity scaling                                           -0.007
 xTB| Halogen potential scaling kxr kx2                          1.300     0.440
 xTB| SCC mixer:                                                       AUTO
 xTB| tblite accuracy:                                                 1.000E+00
 xTB| tblite SCC mixer damping:                                            0.400
 xTB| tblite SCC mixer iterations:                                           250
 xTB| tblite SCC mixer memory:                                               250
 xTB| tblite SCC mixer solver:                                         GVD
 xTB| tblite SCC mixer omega0:                                         1.000E-02
 xTB| tblite SCC mixer min weight:                                     1.000E+00
 xTB| tblite SCC mixer max weight:                                     1.000E+05
 xTB| tblite SCC mixer weight factor:                                  1.000E-02




 ATOMIC KIND INFORMATION

  1. Atomic kind: C                                     Number of atoms:       1

     Orbital Basis Set                                                 C _STO-6G

       Number of orbital shell sets:                                           2
       Number of orbital shells:                                               2
       Number of primitive Cartesian functions:                               12
       Number of Cartesian basis functions:                                    4
       Number of spherical basis functions:                                    4
       Norm type:                                                              3

       Normalised Cartesian orbitals:

                        Set   Shell   Orbital            Exponent    Coefficient

                          1       1    1s                2.208628      -1.157490
                                                         1.917959       0.886555
                                                         0.497153       0.232010
                                                         0.192182       0.116485
                                                         0.150531      -0.033296
                                                         0.078189       0.019361

                          2       1    2px              24.597336       0.464082
                                                         6.488161       0.691437
                                                         2.226359       0.612655
                                                         0.776897       0.415112
                                                         0.283425       0.113030
                                                         0.098628       0.020433
                          2       1    2py              24.597336       0.464082
                                                         6.488161       0.691437
                                                         2.226359       0.612655
                                                         0.776897       0.415112
                                                         0.283425       0.113030
                                                         0.098628       0.020433
                          2       1    2pz              24.597336       0.464082
                                                         6.488161       0.691437
                                                         2.226359       0.612655
                                                         0.776897       0.415112
                                                         0.283425       0.113030
                                                         0.098628       0.020433

     AE Potential information for                                         Carbon

       Description:                                       Bare Coulomb Potential
                                                             Valence charge only

       Gaussian exponent of the core charge distribution:               3.373250
       Electronic configuration (s p d ...):                       2   2   0   0

  2. Atomic kind: H                                     Number of atoms:       4

     Orbital Basis Set                                                 H _STO-8G

       Number of orbital shell sets:                                           1
       Number of orbital shells:                                               1
       Number of primitive Cartesian functions:                                8
       Number of Cartesian basis functions:                                    1
       Number of spherical basis functions:                                    1
       Norm type:                                                              3

       Normalised Cartesian orbitals:

                        Set   Shell   Orbital            Exponent    Coefficient

                          1       1    1s              337.005012       0.032613
                                                        53.310531       0.058991
                                                        12.208253       0.102844
                                                         3.418827       0.159923
                                                         1.108790       0.193518
                                                         0.478718       0.121328
                                                         0.212137       0.085046
                                                         0.069058       0.011171

     AE Potential information for                                       Hydrogen

       Description:                                       Bare Coulomb Potential
                                                              Full atomic charge

       Gaussian exponent of the core charge distribution:              12.500000
       Electronic configuration (s p d ...):                       1   0   0   0


 MOLECULE KIND INFORMATION


 All atoms are their own molecule, skipping detailed information


 TOTAL NUMBERS AND MAXIMUM NUMBERS

  Total number of            - Atomic kinds:                                   2
                             - Atoms:                                          5
                             - Shell sets:                                     6
                             - Shells:                                         6
                             - Primitive Cartesian functions:                 44
                             - Cartesian basis functions:                      8
                             - Spherical basis functions:                      8

  Maximum angular momentum of the orbital basis functions:                     1


 MODULE QUICKSTEP: ATOMIC COORDINATES IN ANGSTROM

   Atom Kind Element         X             Y             Z       Z(eff)     Mass
      1    1 C     6      4.000000      4.000000      4.000000   4.0000  12.0107
      2    2 H     1      4.692820      4.692820      4.692820   1.0000   1.0079
      3    2 H     1      4.692820      3.307180      3.307180   1.0000   1.0079
      4    2 H     1      3.307180      4.692820      3.307180   1.0000   1.0079
      5    2 H     1      3.307180      3.307180      4.692820   1.0000   1.0079



 SCF PARAMETERS         Density guess:                                     MOPAC
                        --------------------------------------------------------
                        max_scf:                                             300
                        max_scf_history:                                       0
                        max_diis:                                              4
                        --------------------------------------------------------
                        eps_scf:                                        1.00E-10
                        eps_scf_history:                                0.00E+00
                        eps_diis:                                       1.00E-01
                        eps_eigval:                                     1.00E-05
                        --------------------------------------------------------
                        level_shift [a.u.]:                             0.000000
                        added MOs                                         4    0
                        --------------------------------------------------------
                        Mixing method:                           DIRECT_P_MIXING
                        --------------------------------------------------------
                        No outer SCF

 PW_GRID| Information for grid number                                          1
 PW_GRID| Cutoff [a.u.]                                                      1.0
 PW_GRID| spherical cutoff:                                                   NO
 PW_GRID|   Bounds   1             -4       3                Points:           8
 PW_GRID|   Bounds   2             -4       3                Points:           8
 PW_GRID|   Bounds   3             -4       3                Points:           8
 PW_GRID| Volume element (a.u.^3)   6.748         Volume (a.u.^3)      3455.1473
 PW_GRID| Grid span                                                    FULLSPACE

 POISSON| Solver                                                        PERIODIC
 POISSON| Periodicity                                                        XYZ

 RS_GRID| Information for grid number                                          1
 RS_GRID|   Bounds   1             -4       3                Points:           8
 RS_GRID|   Bounds   2             -4       3                Points:           8
 RS_GRID|   Bounds   3             -4       3                Points:           8

 Extrapolation method: initial_guess

 Number of electrons:                                                          8
 Number of occupied orbitals:                                                  4
 Number of molecular orbitals:                                                 8

 Number of orbital functions:                                                  8
 Number of independent orbital functions:                                      8


 SCF WAVEFUNCTION OPTIMIZATION

  Step     Update method      Time    Convergence         Total energy    Change
  ------------------------------------------------------------------------------
     1 GXTB-Raw    0.10E+01    0.0     0.50260764       -40.5176734177 -4.05E+01
     2 GXTB-Simple 0.20E+00    0.0     0.02230139       -40.5206131291 -2.94E-03
     3 GXTB-Simple 0.20E+00    0.0     0.01599196       -40.5221431168 -1.53E-03
     4 GXTB-FDIIS  0.10E+01    0.0     0.04166355       -40.5238468736 -1.70E-03
     5 GXTB-FDIIS  0.10E+01    0.0     0.00209208       -40.5238503515 -3.48E-06
     6 GXTB-FDIIS  0.10E+01    0.0     0.00064293       -40.5238504188 -6.73E-08
     7 GXTB-FDIIS  0.10E+01    0.0     0.00000287       -40.5238504187  1.16E-10
     8 GXTB-FDIIS  0.10E+01    0.0     0.00002065       -40.5238504191 -4.48E-10
     9 GXTB-FDIIS  0.10E+01    0.0     0.00000014       -40.5238504191 -2.13E-14
    10 GXTB-FDIIS  0.10E+01    0.0     0.00000001       -40.5238504191  0.00E+00
    11 GXTB-FDIIS  0.10E+01    0.0     1.5833E-11       -40.5238504191 -7.11E-15

  *** SCF run converged in    11 steps ***


  Core Hamiltonian energy:                                     -5.22260403641223
  Repulsive potential energy:                                   0.37466270247421
  Electrostatic energy:                                         0.04082775474909
  Self-consistent dispersion energy:                           -0.00099727883708
  Non-self consistent dispersion energy:                        0.00003895111946
  Correction for halogen bonding:                               0.00000000000000

  Total energy:                                               -40.52385041912384


 MULLIKEN POPULATION ANALYSIS

  # Atom   Element   Kind        Atomic population                    Net charge
       1     C          1                 4.379449                     -0.379449
       2     H          2                 0.905138                      0.094862
       3     H          2                 0.905138                      0.094862
       4     H          2                 0.905138                      0.094862
       5     H          2                 0.905138                      0.094862
 # Total charge                           8.000000                     -0.000000


 ENERGY| Total FORCE_EVAL ( QS ) energy [hartree]            -40.523850419123839

 -------------------------------------------------------------------------------
 ----                             MULTIGRID INFO                            ----
 -------------------------------------------------------------------------------
 total grid count     :           420              cutoff [a.u.]            1.00

 PW_GRID| Information for grid number                                          2
 PW_GRID| Cutoff [a.u.]                                                      1.0
 PW_GRID| spherical cutoff:                                                   NO
 PW_GRID|   Bounds   1             -4       3                Points:           8
 PW_GRID|   Bounds   2             -4       3                Points:           8
 PW_GRID|   Bounds   3             -4       3                Points:           8
 PW_GRID| Volume element (a.u.^3)   6.748         Volume (a.u.^3)      3455.1702
 PW_GRID| Grid span                                                    FULLSPACE

 POISSON| Solver                                                        PERIODIC
 POISSON| Periodicity                                                        XYZ

 RS_GRID| Information for grid number                                          2
 RS_GRID|   Bounds   1             -4       3                Points:           8
 RS_GRID|   Bounds   2             -4       3                Points:           8
 RS_GRID|   Bounds   3             -4       3                Points:           8

 Parameters for the always stable predictor-corrector (ASPC) method:

  ASPC order: 0

  B(1) =   1.000000

 Extrapolation method: ASPC

 Number of electrons:                                                          8
 Number of occupied orbitals:                                                  4
 Number of molecular orbitals:                                                 8

 Number of orbital functions:                                                  8
 Number of independent orbital functions:                                      8


 SCF WAVEFUNCTION OPTIMIZATION

  Step     Update method      Time    Convergence         Total energy    Change
  ------------------------------------------------------------------------------
     1 GXTB-Raw    0.10E+01    0.0     0.00000107       -40.5238488035 -4.05E+01
     2 GXTB-Simple 0.20E+00    0.0     0.00000016       -40.5238488035 -1.14E-13
     3 GXTB-Simple 0.20E+00    0.0     0.00000014       -40.5238488035 -7.82E-14
     4 GXTB-FDIIS  0.10E+01    0.0     0.00000076       -40.5238488035 -1.85E-13
     5 GXTB-FDIIS  0.10E+01    0.0     0.00000003       -40.5238488035  0.00E+00
     6 GXTB-FDIIS  0.10E+01    0.0     0.00000002       -40.5238488035  0.00E+00
     7 GXTB-FDIIS  0.10E+01    0.0     7.4420E-10       -40.5238488035  0.00E+00
     8 GXTB-FDIIS  0.10E+01    0.0     1.2730E-15       -40.5238488035  0.00E+00

  *** SCF run converged in     8 steps ***


  Core Hamiltonian energy:                                     -5.22259833654967
  Repulsive potential energy:                                   0.37465869122173
  Electrostatic energy:                                         0.04082718616179
  Self-consistent dispersion energy:                           -0.00099728562532
  Non-self consistent dispersion energy:                        0.00003895138934
  Correction for halogen bonding:                               0.00000000000000

  Total energy:                                               -40.52384880346401


 MULLIKEN POPULATION ANALYSIS

  # Atom   Element   Kind        Atomic population                    Net charge
       1     C          1                 4.379447                     -0.379447
       2     H          2                 0.905138                      0.094862
       3     H          2                 0.905138                      0.094862
       4     H          2                 0.905138                      0.094862
       5     H          2                 0.905138                      0.094862
 # Total charge                           8.000000                      0.000000


 ENERGY| Total FORCE_EVAL ( QS ) energy [hartree]            -40.523848803464006

 -------------------------------------------------------------------------------
 ----                             MULTIGRID INFO                            ----
 -------------------------------------------------------------------------------
 total grid count     :           420              cutoff [a.u.]            1.00

 PW_GRID| Information for grid number                                          3
 PW_GRID| Cutoff [a.u.]                                                      1.0
 PW_GRID| spherical cutoff:                                                   NO
 PW_GRID|   Bounds   1             -4       3                Points:           8
 PW_GRID|   Bounds   2             -4       3                Points:           8
 PW_GRID|   Bounds   3             -4       3                Points:           8
 PW_GRID| Volume element (a.u.^3)   6.748         Volume (a.u.^3)      3455.1245
 PW_GRID| Grid span                                                    FULLSPACE

 POISSON| Solver                                                        PERIODIC
 POISSON| Periodicity                                                        XYZ

 RS_GRID| Information for grid number                                          3
 RS_GRID|   Bounds   1             -4       3                Points:           8
 RS_GRID|   Bounds   2             -4       3                Points:           8
 RS_GRID|   Bounds   3             -4       3                Points:           8

 Parameters for the always stable predictor-corrector (ASPC) method:

  ASPC order: 0

  B(1) =   2.000000
  B(2) =  -1.000000

 Extrapolation method: ASPC

 Number of electrons:                                                          8
 Number of occupied orbitals:                                                  4
 Number of molecular orbitals:                                                 8

 Number of orbital functions:                                                  8
 Number of independent orbital functions:                                      8


 SCF WAVEFUNCTION OPTIMIZATION

  Step     Update method      Time    Convergence         Total energy    Change
  ------------------------------------------------------------------------------
     1 GXTB-Raw    0.10E+01    0.0     0.00000213       -40.5238520348 -4.05E+01
     2 GXTB-Simple 0.20E+00    0.0     0.00000032       -40.5238520348 -4.41E-13
     3 GXTB-Simple 0.20E+00    0.0     0.00000028       -40.5238520348 -3.06E-13
     4 GXTB-FDIIS  0.10E+01    0.0     0.00000153       -40.5238520348 -7.46E-13
     5 GXTB-FDIIS  0.10E+01    0.0     0.00000007       -40.5238520348  0.00E+00
     6 GXTB-FDIIS  0.10E+01    0.0     0.00000005       -40.5238520348  0.00E+00
     7 GXTB-FDIIS  0.10E+01    0.0     1.4884E-09       -40.5238520348 -7.11E-15
     8 GXTB-FDIIS  0.10E+01    0.0     6.2172E-15       -40.5238520348  0.00E+00

  *** SCF run converged in     8 steps ***


  Core Hamiltonian energy:                                     -5.22260973626098
  Repulsive potential energy:                                   0.37466671374990
  Electrostatic energy:                                         0.04082832333791
  Self-consistent dispersion energy:                           -0.00099727204884
  Non-self consistent dispersion energy:                        0.00003895084958
  Correction for halogen bonding:                               0.00000000000000

  Total energy:                                               -40.52385203475709


 MULLIKEN POPULATION ANALYSIS

  # Atom   Element   Kind        Atomic population                    Net charge
       1     C          1                 4.379451                     -0.379451
       2     H          2                 0.905137                      0.094863
       3     H          2                 0.905137                      0.094863
       4     H          2                 0.905137                      0.094863
       5     H          2                 0.905137                      0.094863
 # Total charge                           8.000000                      0.000000


 ENERGY| Total FORCE_EVAL ( QS ) energy [hartree]            -40.523852034757091

 -------------------------------------------------------------------------------
 ----                             MULTIGRID INFO                            ----
 -------------------------------------------------------------------------------
 total grid count     :           420              cutoff [a.u.]            1.00

 PW_GRID| Information for grid number                                          4
 PW_GRID| Cutoff [a.u.]                                                      1.0
 PW_GRID| spherical cutoff:                                                   NO
 PW_GRID|   Bounds   1             -4       3                Points:           8
 PW_GRID|   Bounds   2             -4       3                Points:           8
 PW_GRID|   Bounds   3             -4       3                Points:           8
 PW_GRID| Volume element (a.u.^3)   6.748         Volume (a.u.^3)      3455.1473
 PW_GRID| Grid span                                                    FULLSPACE

 POISSON| Solver                                                        PERIODIC
 POISSON| Periodicity                                                        XYZ

 RS_GRID| Information for grid number                                          4
 RS_GRID|   Bounds   1             -4       3                Points:           8
 RS_GRID|   Bounds   2             -4       3                Points:           8
 RS_GRID|   Bounds   3             -4       3                Points:           8

 Parameters for the always stable predictor-corrector (ASPC) method:

  ASPC order: 1

  B(1) =   2.500000
  B(2) =  -2.000000
  B(3) =   0.500000

 Extrapolation method: ASPC

 Number of electrons:                                                          8
 Number of occupied orbitals:                                                  4
 Number of molecular orbitals:                                                 8

 Number of orbital functions:                                                  8
 Number of independent orbital functions:                                      8


 SCF WAVEFUNCTION OPTIMIZATION

  Step     Update method      Time    Convergence         Total energy    Change
  ------------------------------------------------------------------------------
     1 GXTB-Raw    0.10E+01    0.0     0.00000128       -40.5238504191 -4.05E+01
     2 GXTB-Simple 0.20E+00    0.0     0.00000018       -40.5238504191 -6.25E-13
     3 GXTB-Simple 0.20E+00    0.0     0.00000015       -40.5238504191 -4.26E-13
     4 GXTB-FDIIS  0.10E+01    0.0     0.00000077       -40.5238504191 -1.00E-12
     5 GXTB-FDIIS  0.10E+01    0.0     0.00000003       -40.5238504191  7.11E-15
     6 GXTB-FDIIS  0.10E+01    0.0     0.00000001       -40.5238504191  0.00E+00
     7 GXTB-FDIIS  0.10E+01    0.0     7.1352E-10       -40.5238504191  0.00E+00
     8 GXTB-FDIIS  0.10E+01    0.0     2.8507E-10       -40.5238504191  0.00E+00
     9 GXTB-FDIIS  0.10E+01    0.0     2.9710E-12       -40.5238504191  0.00E+00

  *** SCF run converged in     9 steps ***


  Core Hamiltonian energy:                                     -5.22260403640821
  Repulsive potential energy:                                   0.37466270248547
  Electrostatic energy:                                         0.04082775474639
  Self-consistent dispersion energy:                           -0.00099727883710
  Non-self consistent dispersion energy:                        0.00003895111946
  Correction for halogen bonding:                               0.00000000000000

  Total energy:                                               -40.52385041910965


 MULLIKEN POPULATION ANALYSIS

  # Atom   Element   Kind        Atomic population                    Net charge
       1     C          1                 4.379449                     -0.379449
       2     H          2                 0.905138                      0.094862
       3     H          2                 0.905137                      0.094863
       4     H          2                 0.905137                      0.094863
       5     H          2                 0.905138                      0.094862
 # Total charge                           8.000000                      0.000000


 ENERGY| Total FORCE_EVAL ( QS ) energy [hartree]            -40.523850419109650

 -------------------------------------------------------------------------------
 ----                             MULTIGRID INFO                            ----
 -------------------------------------------------------------------------------
 total grid count     :           420              cutoff [a.u.]            1.00

 PW_GRID| Information for grid number                                          5
 PW_GRID| Cutoff [a.u.]                                                      1.0
 PW_GRID| spherical cutoff:                                                   NO
 PW_GRID|   Bounds   1             -4       3                Points:           8
 PW_GRID|   Bounds   2             -4       3                Points:           8
 PW_GRID|   Bounds   3             -4       3                Points:           8
 PW_GRID| Volume element (a.u.^3)   6.748         Volume (a.u.^3)      3455.1473
 PW_GRID| Grid span                                                    FULLSPACE

 POISSON| Solver                                                        PERIODIC
 POISSON| Periodicity                                                        XYZ

 RS_GRID| Information for grid number                                          5
 RS_GRID|   Bounds   1             -4       3                Points:           8
 RS_GRID|   Bounds   2             -4       3                Points:           8
 RS_GRID|   Bounds   3             -4       3                Points:           8

 Parameters for the always stable predictor-corrector (ASPC) method:

  ASPC order: 2

  B(1) =   2.800000
  B(2) =  -2.800000
  B(3) =   1.200000
  B(4) =  -0.200000

 Extrapolation method: ASPC

 Number of electrons:                                                          8
 Number of occupied orbitals:                                                  4
 Number of molecular orbitals:                                                 8

 Number of orbital functions:                                                  8
 Number of independent orbital functions:                                      8


 SCF WAVEFUNCTION OPTIMIZATION

  Step     Update method      Time    Convergence         Total energy    Change
  ------------------------------------------------------------------------------
     1 GXTB-Raw    0.10E+01    0.0     0.00000134       -40.5238504191 -4.05E+01
     2 GXTB-Simple 0.20E+00    0.0     0.00000035       -40.5238504191 -2.05E-12
     3 GXTB-Simple 0.20E+00    0.0     0.00000030       -40.5238504191 -1.42E-12
     4 GXTB-FDIIS  0.10E+01    0.0     0.00000145       -40.5238504191 -3.22E-12
     5 GXTB-FDIIS  0.10E+01    0.0     0.00000004       -40.5238504191 -7.11E-15
     6 GXTB-FDIIS  0.10E+01    0.0     1.5658E-09       -40.5238504191 -7.11E-15
     7 GXTB-FDIIS  0.10E+01    0.0     2.6155E-10       -40.5238504191  7.11E-15
     8 GXTB-FDIIS  0.10E+01    0.0     4.0182E-13       -40.5238504191 -7.11E-15

  *** SCF run converged in     8 steps ***


  Core Hamiltonian energy:                                     -5.22260403640821
  Repulsive potential energy:                                   0.37466270248547
  Electrostatic energy:                                         0.04082775474639
  Self-consistent dispersion energy:                           -0.00099727883710
  Non-self consistent dispersion energy:                        0.00003895111946
  Correction for halogen bonding:                               0.00000000000000

  Total energy:                                               -40.52385041910966


 MULLIKEN POPULATION ANALYSIS

  # Atom   Element   Kind        Atomic population                    Net charge
       1     C          1                 4.379449                     -0.379449
       2     H          2                 0.905137                      0.094863
       3     H          2                 0.905138                      0.094862
       4     H          2                 0.905138                      0.094862
       5     H          2                 0.905137                      0.094863
 # Total charge                           8.000000                      0.000000


 ENERGY| Total FORCE_EVAL ( QS ) energy [hartree]            -40.523850419109657

 -------------------------------------------------------------------------------
 ----                             MULTIGRID INFO                            ----
 -------------------------------------------------------------------------------
 total grid count     :           420              cutoff [a.u.]            1.00

 PW_GRID| Information for grid number                                          6
 PW_GRID| Cutoff [a.u.]                                                      1.0
 PW_GRID| spherical cutoff:                                                   NO
 PW_GRID|   Bounds   1             -4       3                Points:           8
 PW_GRID|   Bounds   2             -4       3                Points:           8
 PW_GRID|   Bounds   3             -4       3                Points:           8
 PW_GRID| Volume element (a.u.^3)   6.748         Volume (a.u.^3)      3455.1473
 PW_GRID| Grid span                                                    FULLSPACE

 POISSON| Solver                                                        PERIODIC
 POISSON| Periodicity                                                        XYZ

 RS_GRID| Information for grid number                                          6
 RS_GRID|   Bounds   1             -4       3                Points:           8
 RS_GRID|   Bounds   2             -4       3                Points:           8
 RS_GRID|   Bounds   3             -4       3                Points:           8

 Parameters for the always stable predictor-corrector (ASPC) method:

  ASPC order: 3

  B(1) =   3.000000
  B(2) =  -3.428571
  B(3) =   1.928571
  B(4) =  -0.571429
  B(5) =   0.071429

 Extrapolation method: ASPC

 Number of electrons:                                                          8
 Number of occupied orbitals:                                                  4
 Number of molecular orbitals:                                                 8

 Number of orbital functions:                                                  8
 Number of independent orbital functions:                                      8


 SCF WAVEFUNCTION OPTIMIZATION

  Step     Update method      Time    Convergence         Total energy    Change
  ------------------------------------------------------------------------------
     1 GXTB-Raw    0.10E+01    0.0     0.00000124       -40.5238504191 -4.05E+01
     2 GXTB-Simple 0.20E+00    0.0     0.00000035       -40.5238504191 -1.02E-12
     3 GXTB-Simple 0.20E+00    0.0     0.00000030       -40.5238504191 -7.11E-13
     4 GXTB-FDIIS  0.10E+01    0.0     0.00000145       -40.5238504191 -1.61E-12
     5 GXTB-FDIIS  0.10E+01    0.0     0.00000004       -40.5238504191 -7.11E-15
     6 GXTB-FDIIS  0.10E+01    0.0     7.8292E-10       -40.5238504191 -7.11E-15
     7 GXTB-FDIIS  0.10E+01    0.0     1.3078E-10       -40.5238504191  0.00E+00
     8 GXTB-FDIIS  0.10E+01    0.0     4.0126E-13       -40.5238504191  7.11E-15

  *** SCF run converged in     8 steps ***


  Core Hamiltonian energy:                                     -5.22260403640821
  Repulsive potential energy:                                   0.37466270248547
  Electrostatic energy:                                         0.04082775474639
  Self-consistent dispersion energy:                           -0.00099727883710
  Non-self consistent dispersion energy:                        0.00003895111946
  Correction for halogen bonding:                               0.00000000000000

  Total energy:                                               -40.52385041910965


 MULLIKEN POPULATION ANALYSIS

  # Atom   Element   Kind        Atomic population                    Net charge
       1     C          1                 4.379449                     -0.379449
       2     H          2                 0.905138                      0.094862
       3     H          2                 0.905137                      0.094863
       4     H          2                 0.905138                      0.094862
       5     H          2                 0.905137                      0.094863
 # Total charge                           8.000000                      0.000000


 ENERGY| Total FORCE_EVAL ( QS ) energy [hartree]            -40.523850419109650

 -------------------------------------------------------------------------------
 ----                             MULTIGRID INFO                            ----
 -------------------------------------------------------------------------------
 total grid count     :           420              cutoff [a.u.]            1.00

 PW_GRID| Information for grid number                                          7
 PW_GRID| Cutoff [a.u.]                                                      1.0
 PW_GRID| spherical cutoff:                                                   NO
 PW_GRID|   Bounds   1             -4       3                Points:           8
 PW_GRID|   Bounds   2             -4       3                Points:           8
 PW_GRID|   Bounds   3             -4       3                Points:           8
 PW_GRID| Volume element (a.u.^3)   6.748         Volume (a.u.^3)      3455.1473
 PW_GRID| Grid span                                                    FULLSPACE

 POISSON| Solver                                                        PERIODIC
 POISSON| Periodicity                                                        XYZ

 RS_GRID| Information for grid number                                          7
 RS_GRID|   Bounds   1             -4       3                Points:           8
 RS_GRID|   Bounds   2             -4       3                Points:           8
 RS_GRID|   Bounds   3             -4       3                Points:           8

 Parameters for the always stable predictor-corrector (ASPC) method:

  ASPC order: 3

  B(1) =   3.000000
  B(2) =  -3.428571
  B(3) =   1.928571
  B(4) =  -0.571429
  B(5) =   0.071429

 Extrapolation method: ASPC

 Number of electrons:                                                          8
 Number of occupied orbitals:                                                  4
 Number of molecular orbitals:                                                 8

 Number of orbital functions:                                                  8
 Number of independent orbital functions:                                      8


 SCF WAVEFUNCTION OPTIMIZATION

  Step     Update method      Time    Convergence         Total energy    Change
  ------------------------------------------------------------------------------
     1 GXTB-Raw    0.10E+01    0.0     0.00000134       -40.5238504191 -4.05E+01
     2 GXTB-Simple 0.20E+00    0.0     0.00000035       -40.5238504191 -2.05E-12
     3 GXTB-Simple 0.20E+00    0.0     0.00000030       -40.5238504191 -1.42E-12
     4 GXTB-FDIIS  0.10E+01    0.0     0.00000145       -40.5238504191 -3.23E-12
     5 GXTB-FDIIS  0.10E+01    0.0     0.00000004       -40.5238504191  7.11E-15
     6 GXTB-FDIIS  0.10E+01    0.0     1.5658E-09       -40.5238504191 -7.11E-15
     7 GXTB-FDIIS  0.10E+01    0.0     2.6155E-10       -40.5238504191  0.00E+00
     8 GXTB-FDIIS  0.10E+01    0.0     4.0171E-13       -40.5238504191  0.00E+00

  *** SCF run converged in     8 steps ***


  Core Hamiltonian energy:                                     -5.22260403640821
  Repulsive potential energy:                                   0.37466270248547
  Electrostatic energy:                                         0.04082775474639
  Self-consistent dispersion energy:                           -0.00099727883710
  Non-self consistent dispersion energy:                        0.00003895111946
  Correction for halogen bonding:                               0.00000000000000

  Total energy:                                               -40.52385041910966


 MULLIKEN POPULATION ANALYSIS

  # Atom   Element   Kind        Atomic population                    Net charge
       1     C          1                 4.379449                     -0.379449
       2     H          2                 0.905137                      0.094863
       3     H          2                 0.905138                      0.094862
       4     H          2                 0.905137                      0.094863
       5     H          2                 0.905138                      0.094862
 # Total charge                           8.000000                      0.000000


 ENERGY| Total FORCE_EVAL ( QS ) energy [hartree]            -40.523850419109657

 -------------------------------------------------------------------------------
 ----                             MULTIGRID INFO                            ----
 -------------------------------------------------------------------------------
 total grid count     :           420              cutoff [a.u.]            1.00

 PW_GRID| Information for grid number                                          8
 PW_GRID| Cutoff [a.u.]                                                      1.0
 PW_GRID| spherical cutoff:                                                   NO
 PW_GRID|   Bounds   1             -4       3                Points:           8
 PW_GRID|   Bounds   2             -4       3                Points:           8
 PW_GRID|   Bounds   3             -4       3                Points:           8
 PW_GRID| Volume element (a.u.^3)   6.748         Volume (a.u.^3)      3455.1473
 PW_GRID| Grid span                                                    FULLSPACE

 POISSON| Solver                                                        PERIODIC
 POISSON| Periodicity                                                        XYZ

 RS_GRID| Information for grid number                                          8
 RS_GRID|   Bounds   1             -4       3                Points:           8
 RS_GRID|   Bounds   2             -4       3                Points:           8
 RS_GRID|   Bounds   3             -4       3                Points:           8

 Parameters for the always stable predictor-corrector (ASPC) method:

  ASPC order: 3

  B(1) =   3.000000
  B(2) =  -3.428571
  B(3) =   1.928571
  B(4) =  -0.571429
  B(5) =   0.071429

 Extrapolation method: ASPC

 Number of electrons:                                                          8
 Number of occupied orbitals:                                                  4
 Number of molecular orbitals:                                                 8

 Number of orbital functions:                                                  8
 Number of independent orbital functions:                                      8


 SCF WAVEFUNCTION OPTIMIZATION

  Step     Update method      Time    Convergence         Total energy    Change
  ------------------------------------------------------------------------------
     1 GXTB-Raw    0.10E+01    0.0     0.00000124       -40.5238504191 -4.05E+01
     2 GXTB-Simple 0.20E+00    0.0     0.00000035       -40.5238504191 -1.02E-12
     3 GXTB-Simple 0.20E+00    0.0     0.00000029       -40.5238504191 -7.18E-13
     4 GXTB-FDIIS  0.10E+01    0.0     0.00000144       -40.5238504191 -1.60E-12
     5 GXTB-FDIIS  0.10E+01    0.0     0.00000004       -40.5238504191  0.00E+00
     6 GXTB-FDIIS  0.10E+01    0.0     7.8292E-10       -40.5238504191 -7.11E-15
     7 GXTB-FDIIS  0.10E+01    0.0     1.3078E-10       -40.5238504191  0.00E+00
     8 GXTB-FDIIS  0.10E+01    0.0     4.0104E-13       -40.5238504191 -7.11E-15

  *** SCF run converged in     8 steps ***


  Core Hamiltonian energy:                                     -5.22260403640821
  Repulsive potential energy:                                   0.37466270248547
  Electrostatic energy:                                         0.04082775474639
  Self-consistent dispersion energy:                           -0.00099727883710
  Non-self consistent dispersion energy:                        0.00003895111946
  Correction for halogen bonding:                               0.00000000000000

  Total energy:                                               -40.52385041910966


 MULLIKEN POPULATION ANALYSIS

  # Atom   Element   Kind        Atomic population                    Net charge
       1     C          1                 4.379449                     -0.379449
       2     H          2                 0.905138                      0.094862
       3     H          2                 0.905137                      0.094863
       4     H          2                 0.905137                      0.094863
       5     H          2                 0.905138                      0.094862
 # Total charge                           8.000000                     -0.000000


 ENERGY| Total FORCE_EVAL ( QS ) energy [hartree]            -40.523850419109657

 -------------------------------------------------------------------------------
 ----                             MULTIGRID INFO                            ----
 -------------------------------------------------------------------------------
 total grid count     :           420              cutoff [a.u.]            1.00

 PW_GRID| Information for grid number                                          9
 PW_GRID| Cutoff [a.u.]                                                      1.0
 PW_GRID| spherical cutoff:                                                   NO
 PW_GRID|   Bounds   1             -4       3                Points:           8
 PW_GRID|   Bounds   2             -4       3                Points:           8
 PW_GRID|   Bounds   3             -4       3                Points:           8
 PW_GRID| Volume element (a.u.^3)   6.748         Volume (a.u.^3)      3455.1473
 PW_GRID| Grid span                                                    FULLSPACE

 POISSON| Solver                                                        PERIODIC
 POISSON| Periodicity                                                        XYZ

 RS_GRID| Information for grid number                                          9
 RS_GRID|   Bounds   1             -4       3                Points:           8
 RS_GRID|   Bounds   2             -4       3                Points:           8
 RS_GRID|   Bounds   3             -4       3                Points:           8

 Parameters for the always stable predictor-corrector (ASPC) method:

  ASPC order: 3

  B(1) =   3.000000
  B(2) =  -3.428571
  B(3) =   1.928571
  B(4) =  -0.571429
  B(5) =   0.071429

 Extrapolation method: ASPC

 Number of electrons:                                                          8
 Number of occupied orbitals:                                                  4
 Number of molecular orbitals:                                                 8

 Number of orbital functions:                                                  8
 Number of independent orbital functions:                                      8


 SCF WAVEFUNCTION OPTIMIZATION

  Step     Update method      Time    Convergence         Total energy    Change
  ------------------------------------------------------------------------------
     1 GXTB-Raw    0.10E+01    0.0     0.00000134       -40.5238504191 -4.05E+01
     2 GXTB-Simple 0.20E+00    0.0     0.00000035       -40.5238504191 -2.05E-12
     3 GXTB-Simple 0.20E+00    0.0     0.00000030       -40.5238504191 -1.41E-12
     4 GXTB-FDIIS  0.10E+01    0.0     0.00000145       -40.5238504191 -3.24E-12
     5 GXTB-FDIIS  0.10E+01    0.0     0.00000004       -40.5238504191  7.11E-15
     6 GXTB-FDIIS  0.10E+01    0.0     1.5658E-09       -40.5238504191 -7.11E-15
     7 GXTB-FDIIS  0.10E+01    0.0     2.6155E-10       -40.5238504191  0.00E+00
     8 GXTB-FDIIS  0.10E+01    0.0     4.0160E-13       -40.5238504191  1.42E-14

  *** SCF run converged in     8 steps ***


  Core Hamiltonian energy:                                     -5.22260403640821
  Repulsive potential energy:                                   0.37466270248547
  Electrostatic energy:                                         0.04082775474639
  Self-consistent dispersion energy:                           -0.00099727883710
  Non-self consistent dispersion energy:                        0.00003895111946
  Correction for halogen bonding:                               0.00000000000000

  Total energy:                                               -40.52385041910964


 MULLIKEN POPULATION ANALYSIS

  # Atom   Element   Kind        Atomic population                    Net charge
       1     C          1                 4.379449                     -0.379449
       2     H          2                 0.905137                      0.094863
       3     H          2                 0.905138                      0.094862
       4     H          2                 0.905138                      0.094862
       5     H          2                 0.905137                      0.094863
 # Total charge                           8.000000                      0.000000


 ENERGY| Total FORCE_EVAL ( QS ) energy [hartree]            -40.523850419109642

 -------------------------------------------------------------------------------
 ----                             MULTIGRID INFO                            ----
 -------------------------------------------------------------------------------
 total grid count     :           420              cutoff [a.u.]            1.00

 PW_GRID| Information for grid number                                         10
 PW_GRID| Cutoff [a.u.]                                                      1.0
 PW_GRID| spherical cutoff:                                                   NO
 PW_GRID|   Bounds   1             -4       3                Points:           8
 PW_GRID|   Bounds   2             -4       3                Points:           8
 PW_GRID|   Bounds   3             -4       3                Points:           8
 PW_GRID| Volume element (a.u.^3)   6.748         Volume (a.u.^3)      3455.1702
 PW_GRID| Grid span                                                    FULLSPACE

 POISSON| Solver                                                        PERIODIC
 POISSON| Periodicity                                                        XYZ

 RS_GRID| Information for grid number                                         10
 RS_GRID|   Bounds   1             -4       3                Points:           8
 RS_GRID|   Bounds   2             -4       3                Points:           8
 RS_GRID|   Bounds   3             -4       3                Points:           8

 Parameters for the always stable predictor-corrector (ASPC) method:

  ASPC order: 3

  B(1) =   3.000000
  B(2) =  -3.428571
  B(3) =   1.928571
  B(4) =  -0.571429
  B(5) =   0.071429

 Extrapolation method: ASPC

 Number of electrons:                                                          8
 Number of occupied orbitals:                                                  4
 Number of molecular orbitals:                                                 8

 Number of orbital functions:                                                  8
 Number of independent orbital functions:                                      8


 SCF WAVEFUNCTION OPTIMIZATION

  Step     Update method      Time    Convergence         Total energy    Change
  ------------------------------------------------------------------------------
     1 GXTB-Raw    0.10E+01    0.0     0.00000128       -40.5238488035 -4.05E+01
     2 GXTB-Simple 0.20E+00    0.0     0.00000018       -40.5238488035 -6.32E-13
     3 GXTB-Simple 0.20E+00    0.0     0.00000015       -40.5238488035 -4.26E-13
     4 GXTB-FDIIS  0.10E+01    0.0     0.00000077       -40.5238488035 -9.88E-13
     5 GXTB-FDIIS  0.10E+01    0.0     0.00000003       -40.5238488035 -7.11E-15
     6 GXTB-FDIIS  0.10E+01    0.0     0.00000001       -40.5238488035  0.00E+00
     7 GXTB-FDIIS  0.10E+01    0.0     7.1351E-10       -40.5238488035  0.00E+00
     8 GXTB-FDIIS  0.10E+01    0.0     2.8506E-10       -40.5238488035  7.11E-15
     9 GXTB-FDIIS  0.10E+01    0.0     2.9718E-12       -40.5238488035 -1.42E-14

  *** SCF run converged in     9 steps ***


  Core Hamiltonian energy:                                     -5.22259833654968
  Repulsive potential energy:                                   0.37465869122173
  Electrostatic energy:                                         0.04082718616179
  Self-consistent dispersion energy:                           -0.00099728562532
  Non-self consistent dispersion energy:                        0.00003895138934
  Correction for halogen bonding:                               0.00000000000000

  Total energy:                                               -40.52384880346401


 MULLIKEN POPULATION ANALYSIS

  # Atom   Element   Kind        Atomic population                    Net charge
       1     C          1                 4.379447                     -0.379447
       2     H          2                 0.905138                      0.094862
       3     H          2                 0.905138                      0.094862
       4     H          2                 0.905138                      0.094862
       5     H          2                 0.905138                      0.094862
 # Total charge                           8.000000                     -0.000000


 ENERGY| Total FORCE_EVAL ( QS ) energy [hartree]            -40.523848803464013

 -------------------------------------------------------------------------------
 ----                             MULTIGRID INFO                            ----
 -------------------------------------------------------------------------------
 total grid count     :           420              cutoff [a.u.]            1.00

 PW_GRID| Information for grid number                                         11
 PW_GRID| Cutoff [a.u.]                                                      1.0
 PW_GRID| spherical cutoff:                                                   NO
 PW_GRID|   Bounds   1             -4       3                Points:           8
 PW_GRID|   Bounds   2             -4       3                Points:           8
 PW_GRID|   Bounds   3             -4       3                Points:           8
 PW_GRID| Volume element (a.u.^3)   6.748         Volume (a.u.^3)      3455.1245
 PW_GRID| Grid span                                                    FULLSPACE

 POISSON| Solver                                                        PERIODIC
 POISSON| Periodicity                                                        XYZ

 RS_GRID| Information for grid number                                         11
 RS_GRID|   Bounds   1             -4       3                Points:           8
 RS_GRID|   Bounds   2             -4       3                Points:           8
 RS_GRID|   Bounds   3             -4       3                Points:           8

 Parameters for the always stable predictor-corrector (ASPC) method:

  ASPC order: 3

  B(1) =   3.000000
  B(2) =  -3.428571
  B(3) =   1.928571
  B(4) =  -0.571429
  B(5) =   0.071429

 Extrapolation method: ASPC

 Number of electrons:                                                          8
 Number of occupied orbitals:                                                  4
 Number of molecular orbitals:                                                 8

 Number of orbital functions:                                                  8
 Number of independent orbital functions:                                      8


 SCF WAVEFUNCTION OPTIMIZATION

  Step     Update method      Time    Convergence         Total energy    Change
  ------------------------------------------------------------------------------
     1 GXTB-Raw    0.10E+01    0.0     0.00000213       -40.5238520348 -4.05E+01
     2 GXTB-Simple 0.20E+00    0.0     0.00000032       -40.5238520348 -4.41E-13
     3 GXTB-Simple 0.20E+00    0.0     0.00000028       -40.5238520348 -2.98E-13
     4 GXTB-FDIIS  0.10E+01    0.0     0.00000153       -40.5238520348 -7.53E-13
     5 GXTB-FDIIS  0.10E+01    0.0     0.00000007       -40.5238520348 -7.11E-15
     6 GXTB-FDIIS  0.10E+01    0.0     0.00000005       -40.5238520348  7.11E-15
     7 GXTB-FDIIS  0.10E+01    0.0     1.4884E-09       -40.5238520348 -7.11E-15
     8 GXTB-FDIIS  0.10E+01    0.0     2.6645E-14       -40.5238520348 -7.11E-15

  *** SCF run converged in     8 steps ***


  Core Hamiltonian energy:                                     -5.22260973626098
  Repulsive potential energy:                                   0.37466671374990
  Electrostatic energy:                                         0.04082832333791
  Self-consistent dispersion energy:                           -0.00099727204884
  Non-self consistent dispersion energy:                        0.00003895084958
  Correction for halogen bonding:                               0.00000000000000

  Total energy:                                               -40.52385203475710


 MULLIKEN POPULATION ANALYSIS

  # Atom   Element   Kind        Atomic population                    Net charge
       1     C          1                 4.379451                     -0.379451
       2     H          2                 0.905137                      0.094863
       3     H          2                 0.905137                      0.094863
       4     H          2                 0.905137                      0.094863
       5     H          2                 0.905137                      0.094863
 # Total charge                           8.000000                     -0.000000


 ENERGY| Total FORCE_EVAL ( QS ) energy [hartree]            -40.523852034757098

 -------------------------------------------------------------------------------
 ----                             MULTIGRID INFO                            ----
 -------------------------------------------------------------------------------
 total grid count     :           420              cutoff [a.u.]            1.00

 PW_GRID| Information for grid number                                         12
 PW_GRID| Cutoff [a.u.]                                                      1.0
 PW_GRID| spherical cutoff:                                                   NO
 PW_GRID|   Bounds   1             -4       3                Points:           8
 PW_GRID|   Bounds   2             -4       3                Points:           8
 PW_GRID|   Bounds   3             -4       3                Points:           8
 PW_GRID| Volume element (a.u.^3)   6.748         Volume (a.u.^3)      3455.1473
 PW_GRID| Grid span                                                    FULLSPACE

 POISSON| Solver                                                        PERIODIC
 POISSON| Periodicity                                                        XYZ

 RS_GRID| Information for grid number                                         12
 RS_GRID|   Bounds   1             -4       3                Points:           8
 RS_GRID|   Bounds   2             -4       3                Points:           8
 RS_GRID|   Bounds   3             -4       3                Points:           8

 Parameters for the always stable predictor-corrector (ASPC) method:

  ASPC order: 3

  B(1) =   3.000000
  B(2) =  -3.428571
  B(3) =   1.928571
  B(4) =  -0.571429
  B(5) =   0.071429

 Extrapolation method: ASPC

 Number of electrons:                                                          8
 Number of occupied orbitals:                                                  4
 Number of molecular orbitals:                                                 8

 Number of orbital functions:                                                  8
 Number of independent orbital functions:                                      8


 SCF WAVEFUNCTION OPTIMIZATION

  Step     Update method      Time    Convergence         Total energy    Change
  ------------------------------------------------------------------------------
     1 GXTB-Raw    0.10E+01    0.0     0.00000128       -40.5238504191 -4.05E+01
     2 GXTB-Simple 0.20E+00    0.0     0.00000018       -40.5238504191 -6.25E-13
     3 GXTB-Simple 0.20E+00    0.0     0.00000015       -40.5238504191 -4.33E-13
     4 GXTB-FDIIS  0.10E+01    0.0     0.00000077       -40.5238504191 -9.88E-13
     5 GXTB-FDIIS  0.10E+01    0.0     0.00000003       -40.5238504191  0.00E+00
     6 GXTB-FDIIS  0.10E+01    0.0     0.00000001       -40.5238504191 -7.11E-15
     7 GXTB-FDIIS  0.10E+01    0.0     7.1352E-10       -40.5238504191  0.00E+00
     8 GXTB-FDIIS  0.10E+01    0.0     2.8507E-10       -40.5238504191  7.11E-15
     9 GXTB-FDIIS  0.10E+01    0.0     2.9721E-12       -40.5238504191  0.00E+00

  *** SCF run converged in     9 steps ***


  Core Hamiltonian energy:                                     -5.22260403640821
  Repulsive potential energy:                                   0.37466270248547
  Electrostatic energy:                                         0.04082775474639
  Self-consistent dispersion energy:                           -0.00099727883710
  Non-self consistent dispersion energy:                        0.00003895111946
  Correction for halogen bonding:                               0.00000000000000

  Total energy:                                               -40.52385041910965


 MULLIKEN POPULATION ANALYSIS

  # Atom   Element   Kind        Atomic population                    Net charge
       1     C          1                 4.379449                     -0.379449
       2     H          2                 0.905138                      0.094862
       3     H          2                 0.905138                      0.094862
       4     H          2                 0.905137                      0.094863
       5     H          2                 0.905137                      0.094863
 # Total charge                           8.000000                      0.000000


 ENERGY| Total FORCE_EVAL ( QS ) energy [hartree]            -40.523850419109650

 -------------------------------------------------------------------------------
 ----                             MULTIGRID INFO                            ----
 -------------------------------------------------------------------------------
 total grid count     :           420              cutoff [a.u.]            1.00

 PW_GRID| Information for grid number                                         13
 PW_GRID| Cutoff [a.u.]                                                      1.0
 PW_GRID| spherical cutoff:                                                   NO
 PW_GRID|   Bounds   1             -4       3                Points:           8
 PW_GRID|   Bounds   2             -4       3                Points:           8
 PW_GRID|   Bounds   3             -4       3                Points:           8
 PW_GRID| Volume element (a.u.^3)   6.748         Volume (a.u.^3)      3455.1473
 PW_GRID| Grid span                                                    FULLSPACE

 POISSON| Solver                                                        PERIODIC
 POISSON| Periodicity                                                        XYZ

 RS_GRID| Information for grid number                                         13
 RS_GRID|   Bounds   1             -4       3                Points:           8
 RS_GRID|   Bounds   2             -4       3                Points:           8
 RS_GRID|   Bounds   3             -4       3                Points:           8

 Parameters for the always stable predictor-corrector (ASPC) method:

  ASPC order: 3

  B(1) =   3.000000
  B(2) =  -3.428571
  B(3) =   1.928571
  B(4) =  -0.571429
  B(5) =   0.071429

 Extrapolation method: ASPC

 Number of electrons:                                                          8
 Number of occupied orbitals:                                                  4
 Number of molecular orbitals:                                                 8

 Number of orbital functions:                                                  8
 Number of independent orbital functions:                                      8


 SCF WAVEFUNCTION OPTIMIZATION

  Step     Update method      Time    Convergence         Total energy    Change
  ------------------------------------------------------------------------------
     1 GXTB-Raw    0.10E+01    0.0     0.00000134       -40.5238504191 -4.05E+01
     2 GXTB-Simple 0.20E+00    0.0     0.00000035       -40.5238504191 -2.05E-12
     3 GXTB-Simple 0.20E+00    0.0     0.00000030       -40.5238504191 -1.41E-12
     4 GXTB-FDIIS  0.10E+01    0.0     0.00000145       -40.5238504191 -3.23E-12
     5 GXTB-FDIIS  0.10E+01    0.0     0.00000004       -40.5238504191 -7.11E-15
     6 GXTB-FDIIS  0.10E+01    0.0     1.5658E-09       -40.5238504191  0.00E+00
     7 GXTB-FDIIS  0.10E+01    0.0     2.6155E-10       -40.5238504191 -7.11E-15
     8 GXTB-FDIIS  0.10E+01    0.0     4.0168E-13       -40.5238504191  0.00E+00

  *** SCF run converged in     8 steps ***


  Core Hamiltonian energy:                                     -5.22260403640821
  Repulsive potential energy:                                   0.37466270248547
  Electrostatic energy:                                         0.04082775474639
  Self-consistent dispersion energy:                           -0.00099727883710
  Non-self consistent dispersion energy:                        0.00003895111946
  Correction for halogen bonding:                               0.00000000000000

  Total energy:                                               -40.52385041910966


 MULLIKEN POPULATION ANALYSIS

  # Atom   Element   Kind        Atomic population                    Net charge
       1     C          1                 4.379449                     -0.379449
       2     H          2                 0.905137                      0.094863
       3     H          2                 0.905137                      0.094863
       4     H          2                 0.905138                      0.094862
       5     H          2                 0.905138                      0.094862
 # Total charge                           8.000000                     -0.000000


 ENERGY| Total FORCE_EVAL ( QS ) energy [hartree]            -40.523850419109657

 -------------------------------------------------------------------------------
 ----                             MULTIGRID INFO                            ----
 -------------------------------------------------------------------------------
 total grid count     :           420              cutoff [a.u.]            1.00

 PW_GRID| Information for grid number                                         14
 PW_GRID| Cutoff [a.u.]                                                      1.0
 PW_GRID| spherical cutoff:                                                   NO
 PW_GRID|   Bounds   1             -4       3                Points:           8
 PW_GRID|   Bounds   2             -4       3                Points:           8
 PW_GRID|   Bounds   3             -4       3                Points:           8
 PW_GRID| Volume element (a.u.^3)   6.748         Volume (a.u.^3)      3455.1473
 PW_GRID| Grid span                                                    FULLSPACE

 POISSON| Solver                                                        PERIODIC
 POISSON| Periodicity                                                        XYZ

 RS_GRID| Information for grid number                                         14
 RS_GRID|   Bounds   1             -4       3                Points:           8
 RS_GRID|   Bounds   2             -4       3                Points:           8
 RS_GRID|   Bounds   3             -4       3                Points:           8

 Parameters for the always stable predictor-corrector (ASPC) method:

  ASPC order: 3

  B(1) =   3.000000
  B(2) =  -3.428571
  B(3) =   1.928571
  B(4) =  -0.571429
  B(5) =   0.071429

 Extrapolation method: ASPC

 Number of electrons:                                                          8
 Number of occupied orbitals:                                                  4
 Number of molecular orbitals:                                                 8

 Number of orbital functions:                                                  8
 Number of independent orbital functions:                                      8


 SCF WAVEFUNCTION OPTIMIZATION

  Step     Update method      Time    Convergence         Total energy    Change
  ------------------------------------------------------------------------------
     1 GXTB-Raw    0.10E+01    0.0     0.00000124       -40.5238504191 -4.05E+01
     2 GXTB-Simple 0.20E+00    0.0     0.00000035       -40.5238504191 -1.02E-12
     3 GXTB-Simple 0.20E+00    0.0     0.00000029       -40.5238504191 -7.11E-13
     4 GXTB-FDIIS  0.10E+01    0.0     0.00000144       -40.5238504191 -1.61E-12
     5 GXTB-FDIIS  0.10E+01    0.0     0.00000004       -40.5238504191 -7.11E-15
     6 GXTB-FDIIS  0.10E+01    0.0     7.8292E-10       -40.5238504191  0.00E+00
     7 GXTB-FDIIS  0.10E+01    0.0     1.3078E-10       -40.5238504191  7.11E-15
     8 GXTB-FDIIS  0.10E+01    0.0     4.0143E-13       -40.5238504191 -7.11E-15

  *** SCF run converged in     8 steps ***


  Core Hamiltonian energy:                                     -5.22260403640822
  Repulsive potential energy:                                   0.37466270248547
  Electrostatic energy:                                         0.04082775474639
  Self-consistent dispersion energy:                           -0.00099727883710
  Non-self consistent dispersion energy:                        0.00003895111946
  Correction for halogen bonding:                               0.00000000000000

  Total energy:                                               -40.52385041910966


 MULLIKEN POPULATION ANALYSIS

  # Atom   Element   Kind        Atomic population                    Net charge
       1     C          1                 4.379449                     -0.379449
       2     H          2                 0.905138                      0.094862
       3     H          2                 0.905137                      0.094863
       4     H          2                 0.905138                      0.094862
       5     H          2                 0.905137                      0.094863
[...]
       5     H          2                 0.905138                      0.094862
 # Total charge                           8.000000                      0.000000


 ENERGY| Total FORCE_EVAL ( QS ) energy [hartree]            -40.523850419123832


 MODULE DEBUG: ATOMIC COORDINATES IN ANGSTROM

   Atom Kind Element         X             Y             Z       Z(eff)     Mass
      1    1 C     6      4.000000      4.000000      4.000000   4.0000  12.0107
      2    2 H     1      4.692873      4.692820      4.692820   1.0000   1.0079
      3    2 H     1      4.692820      3.307180      3.307180   1.0000   1.0079
      4    2 H     1      3.307180      4.692820      3.307180   1.0000   1.0079
      5    2 H     1      3.307180      3.307180      4.692820   1.0000   1.0079


 Parameters for the always stable predictor-corrector (ASPC) method:

  ASPC order: 3

  B(1) =   3.000000
  B(2) =  -3.428571
  B(3) =   1.928571
  B(4) =  -0.571429
  B(5) =   0.071429

 Extrapolation method: ASPC

 Number of electrons:                                                          8
 Number of occupied orbitals:                                                  4
 Number of molecular orbitals:                                                 8

 Number of orbital functions:                                                  8
 Number of independent orbital functions:                                      8


 SCF WAVEFUNCTION OPTIMIZATION

  Step     Update method      Time    Convergence         Total energy    Change
  ------------------------------------------------------------------------------
     1 GXTB-Raw    0.10E+01    0.0     0.00000752       -40.5238470707 -4.05E+01
     2 GXTB-Simple 0.20E+00    0.0     0.00000140       -40.5238470708 -1.23E-11
     3 GXTB-Simple 0.20E+00    0.0     0.00000116       -40.5238470708 -8.50E-12
     4 GXTB-FDIIS  0.10E+01    0.0     0.00000559       -40.5238470708 -1.91E-11
     5 GXTB-FDIIS  0.10E+01    0.0     0.00000014       -40.5238470708 -2.84E-14
     6 GXTB-FDIIS  0.10E+01    0.0     0.00000005       -40.5238470708  0.00E+00
     7 GXTB-FDIIS  0.10E+01    0.0     2.5115E-09       -40.5238470708 -7.11E-15
     8 GXTB-FDIIS  0.10E+01    0.0     1.0813E-09       -40.5238470708  7.11E-15
     9 GXTB-FDIIS  0.10E+01    0.0     3.8957E-11       -40.5238470708  0.00E+00

  *** SCF run converged in     9 steps ***


  Core Hamiltonian energy:                                     -5.22258787382805
  Repulsive potential energy:                                   0.37465112559767
  Electrostatic energy:                                         0.04082640559598
  Self-consistent dispersion energy:                           -0.00099729884258
  Non-self consistent dispersion energy:                        0.00003895194201
  Correction for halogen bonding:                               0.00000000000000

  Total energy:                                               -40.52384707078156


 MULLIKEN POPULATION ANALYSIS

  # Atom   Element   Kind        Atomic population                    Net charge
       1     C          1                 4.379445                     -0.379445
       2     H          2                 0.905143                      0.094857
       3     H          2                 0.905139                      0.094861
       4     H          2                 0.905137                      0.094863
       5     H          2                 0.905137                      0.094863
 # Total charge                           8.000000                     -0.000000


 ENERGY| Total FORCE_EVAL ( QS ) energy [hartree]            -40.523847070781564


 MODULE DEBUG: ATOMIC COORDINATES IN ANGSTROM

   Atom Kind Element         X             Y             Z       Z(eff)     Mass
      1    1 C     6      4.000000      4.000000      4.000000   4.0000  12.0107
      2    2 H     1      4.692767      4.692820      4.692820   1.0000   1.0079
      3    2 H     1      4.692820      3.307180      3.307180   1.0000   1.0079
      4    2 H     1      3.307180      4.692820      3.307180   1.0000   1.0079
      5    2 H     1      3.307180      3.307180      4.692820   1.0000   1.0079


 Parameters for the always stable predictor-corrector (ASPC) method:

  ASPC order: 3

  B(1) =   3.000000
  B(2) =  -3.428571
  B(3) =   1.928571
  B(4) =  -0.571429
  B(5) =   0.071429

 Extrapolation method: ASPC

 Number of electrons:                                                          8
 Number of occupied orbitals:                                                  4
 Number of molecular orbitals:                                                 8

 Number of orbital functions:                                                  8
 Number of independent orbital functions:                                      8


 SCF WAVEFUNCTION OPTIMIZATION

  Step     Update method      Time    Convergence         Total energy    Change
  ------------------------------------------------------------------------------
     1 GXTB-Raw    0.10E+01    0.0     0.00001504       -40.5238537663 -4.05E+01
     2 GXTB-Simple 0.20E+00    0.0     0.00000279       -40.5238537664 -4.92E-11
     3 GXTB-Simple 0.20E+00    0.0     0.00000232       -40.5238537664 -3.40E-11
     4 GXTB-FDIIS  0.10E+01    0.0     0.00001118       -40.5238537665 -7.65E-11
     5 GXTB-FDIIS  0.10E+01    0.0     0.00000028       -40.5238537665 -1.07E-13
     6 GXTB-FDIIS  0.10E+01    0.0     0.00000011       -40.5238537665 -1.42E-14
     7 GXTB-FDIIS  0.10E+01    0.0     5.0231E-09       -40.5238537665  7.11E-15
     8 GXTB-FDIIS  0.10E+01    0.0     2.1625E-09       -40.5238537665  0.00E+00
     9 GXTB-FDIIS  0.10E+01    0.0     7.8008E-11       -40.5238537665  0.00E+00

  *** SCF run converged in     9 steps ***


  Core Hamiltonian energy:                                     -5.22262019864381
  Repulsive potential energy:                                   0.37467428010348
  Electrostatic energy:                                         0.04082910376604
  Self-consistent dispersion energy:                           -0.00099725883268
  Non-self consistent dispersion energy:                        0.00003895029687
  Correction for halogen bonding:                               0.00000000000000

  Total energy:                                               -40.52385376650864


 MULLIKEN POPULATION ANALYSIS

  # Atom   Element   Kind        Atomic population                    Net charge
       1     C          1                 4.379454                     -0.379454
       2     H          2                 0.905132                      0.094868
       3     H          2                 0.905137                      0.094863
       4     H          2                 0.905139                      0.094861
       5     H          2                 0.905139                      0.094861
 # Total charge                           8.000000                      0.000000


 ENERGY| Total FORCE_EVAL ( QS ) energy [hartree]            -40.523853766508637

 DEBUG| Atom    E(x + 0.0001)    E(x - 0.0001)     f(numerical)    f(analytical)
 DEBUG|    2     -40.52384707     -40.52385377      -0.03347864      -0.03347864

 DEBUG| Atom  Coordinate   f(numerical)   f(analytical)   Difference   Error [%]
 DEBUG|    2      x         -0.03347864     -0.03347864  -0.00000000       -0.00

 DEBUG|======================== BEGIN OF SUMMARY ===============================
 DEBUG| Atom  Coordinate   f(numerical)   f(analytical)   Difference   Error [%]
 DEBUG|    2      x         -0.03347864     -0.03347864  -0.00000000       -0.00
 DEBUG| Sum of differences:                               0.00000000        0.00
 DEBUG|======================== END OF SUMMARY =================================

 -------------------------------------------------------------------------------
 -                                                                             -
 -                                DBCSR STATISTICS                             -
 -                                                                             -
 -------------------------------------------------------------------------------
 COUNTER                                    TOTAL       BLAS       SMM       ACC
 flops     4 x     8 x     4                19968     100.0%      0.0%      0.0%     
 flops     4 x     8 x     1                19968     100.0%      0.0%      0.0%     
 flops     1 x     8 x     4                19968     100.0%      0.0%      0.0%     
 flops     1 x     8 x     1                19968     100.0%      0.0%      0.0%     
 flops     4 x     1 x     8                26880     100.0%      0.0%      0.0%     
 flops     1 x     4 x     8                26880     100.0%      0.0%      0.0%     
 flops     1 x     1 x     8                33600     100.0%      0.0%      0.0%     
 flops     4 x     4 x     8                53760     100.0%      0.0%      0.0%     
 flops inhomo. stacks                           0       0.0%      0.0%      0.0%
 flops total                       220.992000E+03     100.0%      0.0%      0.0%
 flops max/rank                    220.992000E+03     100.0%      0.0%      0.0%
 matmuls inhomo. stacks                         0       0.0%      0.0%      0.0%
 matmuls total                               5100     100.0%      0.0%      0.0%
 number of processed stacks                  1152     100.0%      0.0%      0.0%
 average stack size                                     4.4       0.0       0.0
 marketing flops                   187.392000E+03
 -------------------------------------------------------------------------------
 # multiplications                            288
 max memory usage/rank               9.875931E+09
 # max total images/rank                        1
 # max 3D layers                                1
 # MPI messages exchanged                       0
 -------------------------------------------------------------------------------
 -                                                                             -
 -                      DBCSR MESSAGE PASSING PERFORMANCE                      -
 -                                                                             -
 -------------------------------------------------------------------------------
 ROUTINE             CALLS      AVE VOLUME [Bytes]
 MP_Bcast                9                     12.
 MP_Allreduce         1319                      8.
 MP_Alltoall          7506                    435.
 MP_ISend             1152                    154.
 MP_IRecv             1152                    154.
 -------------------------------------------------------------------------------

 -------------------------------------------------------------------------------
 -                                                                             -
 -                          OFFLOAD MEMPOOL STATISTICS                         -
 -                                                                             -
 -------------------------------------------------------------------------------
 Memory consumption                Number of allocations  Used [MiB]  Size [MiB]
 Host                                                  1           0           0
 -------------------------------------------------------------------------------

 MEMORY| Estimated peak process memory [MiB]                                 116

 -------------------------------------------------------------------------------
 ----                             MULTIGRID INFO                            ----
 -------------------------------------------------------------------------------
 total grid count     :           420              cutoff [a.u.]            1.00

 -------------------------------------------------------------------------------
 -                                                                             -
 -                         MESSAGE PASSING PERFORMANCE                         -
 -                                                                             -
 -------------------------------------------------------------------------------

 ROUTINE             CALLS      AVE VOLUME [Bytes]
 MP_Group               20
 MP_Bcast              372                     34.
 MP_Allreduce         6036                     86.
 MP_Sync               206
 MP_comm_split         186
 -------------------------------------------------------------------------------


 -------------------------------------------------------------------------------
 -                                                                             -
 -                           R E F E R E N C E S                               -
 -                                                                             -
 -------------------------------------------------------------------------------
 
 CP2K version 2026.2 (Development Version), the CP2K developers group (2026).
 CP2K is freely available from https://www.cp2k.org/ .
 
 M. Iannuzzi, J. Wilhelm, F. Stein, A. Bussy, H. Elgabarty, D. Golze, A. Hehn, 
 M. Graml, S. Marek, B. Sertcan Gökmen, C. Schran, H. Forbert, R. Z. 
 Khaliullin, A. Kozhevnikov, M. Taillefumier, R. Meli, V. V. Rybkin, M. Brehm, 
 R. Schade, O. Schütt, J. V. Pototschnig, H. Mirhosseini, A. Knüpfer, D. Marx, 
 M. Krack, J. Hutter, T. D. Kühne.
 J. Phys. Chem. B 130, 1237-1310 (2026).
 The CP2K Program Package Made Simple.
 https://doi.org/10.1021/acs.jpcb.5c05851

 A. Katbashev, M. Stahn, T. Rose, V. Alizadeh, M. Friede, C. Plett, P. 
 Steinbach, S. Ehlert.
 J. Phys. Chem. A 129, 2667-2682 (2025).
 Overview on Building Blocks and Applications of Efficient and Robust Extended 
 Tight Binding.
 https://doi.org/10.1021/acs.jpca.4c08263

 T. D. Kühne, M. Iannuzzi, M. Del Ben, V. V. Rybkin, P. Seewald, F. Stein, T. 
 Laino, R. Z. Khaliullin, O. Schütt, F. Schiffmann, D. Golze, J. Wilhelm, S. 
 Chulkov, M. H. Bani-Hashemian, V. Weber, U. Borstnik, M. Taillefumier, A. S. 
 Jakobovits, A. Lazzaro, H. Pabst, T. Müller, R. Schade, M. Guidon, S. 
 Andermatt, N. Holmberg, G. K. Schenter, A. Hehn, A. Bussy, F. Belleflamme, G. 
 Tabacchi, A. Glöß, M. Lass, I. Bethune, C. J. Mundy, C. Plessl, M. Watkins, 
 J. VandeVondele, M. Krack, J. Hutter.
 J. Chem. Phys. 152, 194103 (2020).
 CP2K: An electronic structure and molecular dynamics software package - 
 Quickstep: Efficient and accurate electronic structure calculations.
 https://doi.org/10.1063/5.0007045

 P. Pracht, E. Caldeweyher, S. Ehlert, S. Grimme.
 ChemRxiv, (2019).
 A Robust Non-Self-Consistent Tight-Binding Quantum Chemistry Method for large 
 Molecules.
 https://doi.org/10.26434/chemrxiv.8326202.v1

 S. Grimme, C. Bannwarth, P. Shushkov.
 J. Chem. Theory Comput. 13, 1989 (2017).
 A Robust and Accurate Tight-Binding Quantum Chemical Method for Structures, 
 Vibrational Frequencies, and Noncovalent Interactions of Large Molecular 
 Systems Parametrized for All spd-Block Elements (Z = 1-86).
 https://doi.org/10.1021/acs.jctc.7b00118

 O. Schuett, P. Messmer, J. Hutter, J. VandeVondele.
 Electronic Structure Calculations on Graphics Processing Units, 173-190 (2016).
 GPU-Accelerated Sparse Matrix-Matrix Multiplication for Linear Scaling Density 
 Functional Theory.
 https://doi.org/10.1002/9781118670712.ch8

 U. Borstnik, J. VandeVondele, V. Weber, J. Hutter.
 Parallel Comput. 40, 47-58 (2014).
 Sparse matrix multiplication: The distributed block-compressed sparse row 
 library.
 https://doi.org/10.1016/j.parco.2014.03.012

 T. D. Kühne, M. Krack, F. R. Mohamed, M. Parrinello.
 Phys. Rev. Lett. 98, 066401 (2007).
 Efficient and accurate Car-Parrinello-like approach to Born-Oppenheimer 
 molecular dynamics.
 https://doi.org/10.1103/PhysRevLett.98.066401

 M. Frigo, S. G. Johnson.
 Proc. IEEE 93, 216-231 (2005).
 The design and implementation of FFTW3.
 https://doi.org/10.1109/JPROC.2004.840301

 J. Kolafa.
 J. Comput. Chem. 25, 335-342 (2004).
 Time-reversible always stable predictor-corrector method for molecular dynamics 
 of polarizable molecules.
 https://doi.org/10.1002/jcc.10385


 -------------------------------------------------------------------------------
 -                                                                             -
 -                                T I M I N G                                  -
 -                                                                             -
 -------------------------------------------------------------------------------
 SUBROUTINE                       CALLS  ASD         SELF TIME        TOTAL TIME
                                MAXIMUM       AVERAGE  MAXIMUM  AVERAGE  MAXIMUM
 CP2K                                 1  1.0    0.003    0.003    0.492    0.492
 qs_energies                         23  2.1    0.001    0.001    0.436    0.436
 scf_env_do_scf                      23  3.1    0.000    0.000    0.209    0.209
 scf_env_do_scf_inner_loop          186  4.1    0.032    0.032    0.209    0.209
 build_tblite_matrices               25  4.0    0.157    0.157    0.183    0.183
 qs_energies_init_hamiltonians       23  3.1    0.000    0.000    0.164    0.164
 qs_scf_new_mos                     186  5.1    0.002    0.002    0.130    0.130
 cp_dbcsr_plus_fm_fm_t              210  7.1    0.001    0.001    0.093    0.093
 calculate_dm_sparse                208  6.1    0.001    0.001    0.093    0.093
 dbcsr_multiply_generic             288  8.1    0.005    0.005    0.084    0.084
 qs_forces                            2  2.0    0.000    0.000    0.079    0.079
 rebuild_ks_matrix                  209  5.8    0.000    0.000    0.065    0.065
 build_tblite_ks_matrix             209  6.8    0.060    0.060    0.065    0.065
 init_scf_run                        23  3.1    0.000    0.000    0.048    0.048
 scf_env_initial_rho_setup           23  4.1    0.000    0.000    0.045    0.045
 make_m2s                           576  9.1    0.003    0.003    0.045    0.045
 wfi_extrapolate                     23  5.1    0.001    0.001    0.044    0.044
 qs_ks_update_qs_env                207  4.9    0.000    0.000    0.041    0.041
 dbcsr_complete_redistribute        785  8.3    0.014    0.014    0.034    0.034
 copy_dbcsr_to_fm                   287  6.2    0.002    0.002    0.033    0.033
 cp_dbcsr_sm_fm_multiply             78  6.1    0.001    0.001    0.029    0.029
 qs_ks_update_qs_env_forces           2  3.0    0.000    0.000    0.026    0.026
 tb_get_multipole                    25  5.0    0.020    0.020    0.024    0.024
 copy_fm_to_dbcsr                   498  7.9    0.001    0.001    0.023    0.023
 eigensolver                        186  6.1    0.007    0.007    0.023    0.023
 multiply_cannon                    288  9.1    0.012    0.012    0.020    0.020
 make_images                        576 10.1    0.005    0.005    0.020    0.020
 dbcsr_finalize                    4258  8.8    0.004    0.004    0.015    0.015
 cp_dbcsr_sm_fm_multiply_core        78  7.1    0.000    0.000    0.015    0.015
 dbcsr_create_new                  6543  9.4    0.011    0.011    0.014    0.014
 cp_fm_syevd                        186  7.1    0.000    0.000    0.014    0.014
 dbcsr_crop_matrix                  420 10.1    0.002    0.002    0.011    0.011
 -------------------------------------------------------------------------------

 The number of warnings for this run is : 1
 
 -------------------------------------------------------------------------------
  **** **** ******  **  PROGRAM ENDED AT                 2026-07-21 12:45:32.046
 ***** ** ***  *** **   PROGRAM RAN ON                                     terok
 **    ****   ******    PROGRAM RAN BY                                  kuehne88
 ***** **    ** ** **   PROGRAM PROCESS ID                                501300
  **** **  *******  **  PROGRAM STOPPED IN /home/kuehne88/work/gxtb-lowk-rerun-2
                                           0260721/results/derivative/CH4_gxtb_g
                                           amma_force_stress
