 DBCSR| CPU Multiplication driver                                           XSMM (U)
 DBCSR| Multrec recursion limit                                              512 (U)
 DBCSR| Multiplication stack size                                           1000 (D)
 DBCSR| Maximum elements for images                                    UNLIMITED (U)
 DBCSR| Multiplicative factor virtual images                                   1 (U)
 DBCSR| Use multiplication densification                                       T (D)
 DBCSR| Multiplication size stacks                                             3 (U)
 DBCSR| Use memory pool for CPU allocation                                     F (U)
 DBCSR| Number of 3D layers                                               SINGLE (U)
 DBCSR| Use MPI memory allocation                                              F (U)
 DBCSR| Use RMA algorithm                                                      F (U)
 DBCSR| Use Communication thread                                               T (U)
 DBCSR| Communication thread load                                             87 (D)
 DBCSR| MPI: My process id                                                     0
 DBCSR| MPI: Number of processes                                               1
 DBCSR| OMP: Current number of threads                                         1
 DBCSR| OMP: Max number of threads                                             1
 DBCSR| Split modifier for TAS multiplication algorithm                  1.0E+00 (U)


  **** **** ******  **  PROGRAM STARTED AT               2026-05-23 22:47:08.821
 ***** ** ***  *** **   PROGRAM STARTED ON                            spark-c86c
 **    ****   ******    PROGRAM STARTED BY                              kuehne88
 ***** **    ** ** **   PROGRAM PROCESS ID                               2267747
  **** **  *******  **  PROGRAM STARTED IN /home/kuehne88/periodic-gfn2-benchmar
                                           ks/X23b/runs/cellopt_gamma/GFN2/aceti
                                           c_acid_GFN2_gamma_cellopt

 CP2K| version string:                 CP2K version 2026.1 (Development Version)
 CP2K| source code revision number:                                   0622d442e4
 CP2K| cp2kflags: omp fftw3 libxc parallel scalapack mpi_f08 xsmm spglib libdftd
 CP2K|            4 dftd4_v3 mctc-lib tblite
 CP2K| is freely available from                            https://www.cp2k.org/
 CP2K| Program compiled at                                   2026-05-23 22:05:08
 CP2K| Program compiled on                                            spark-c86c
 CP2K| Program compiled for                                              aarch64
 CP2K| Data directory path    /home/kuehne88/cp2k-master-tblite-20260523/install
 CP2K| Input file name                        acetic_acid_GFN2_gamma_cellopt.inp

 GLOBAL| Force Environment number                                              1
 GLOBAL| Basis set file name                                           BASIS_SET
 GLOBAL| Potential file name                                           POTENTIAL
 GLOBAL| MM Potential file name                                     MM_POTENTIAL
 GLOBAL| Coordinate file name                                      __STD_INPUT__
 GLOBAL| Method name                                                        CP2K
 GLOBAL| Project name                            acetic_acid_GFN2_gamma_cell_opt
 GLOBAL| Run type                                                       CELL_OPT
 GLOBAL| FFT library                                                       FFTW3
 GLOBAL| Diagonalization library                                       ScaLAPACK
 GLOBAL| Cholesky decomposition library                                ScaLAPACK
 GLOBAL| DGEMM library                                                      BLAS
 GLOBAL| Direct generalized diagonalization requested                          F
 GLOBAL| Orthonormality check for eigenvectors                          DISABLED
 GLOBAL| Matrix multiplication library                                 ScaLAPACK
 GLOBAL| All-to-all communication in single precision                          F
 GLOBAL| FFTs using library dependent lengths                                  F
 GLOBAL| Grid backend                                                       AUTO
 GLOBAL| Global print level                                                  LOW
 GLOBAL| MPI I/O enabled                                                       T
 GLOBAL| Total number of message passing processes                             1
 GLOBAL| Number of distributed systems (nodes)                                 1
 GLOBAL| Number of threads for this process                                    1
 GLOBAL| This output is from process                                           0
 GLOBAL| OpenMP stack size per thread (OMP_STACKSIZE)                    default
 GLOBAL| CPU model name                                                  UNKNOWN
 GLOBAL| CPUID                                                              2200
 GLOBAL| Compiled for CPUID                                                 2000

 *** HINT in environment.F:970 :: The compiler target flags (arm_arch64)   ***
 *** used to build this binary cannot exploit all extensions of this CPU   ***
 *** model (arm_sve256). Consider compiler target flags as part of FCFLAGS ***
 *** and CFLAGS (ARCH file).                                               ***


 MEMORY| system memory details [Kb]
 MEMORY|                        rank 0           min           max       average
 MEMORY| MemTotal            125508532     125508532     125508532     125508532
 MEMORY| MemFree             104412868     104412868     104412868     104412868
 MEMORY| Buffers                867748        867748        867748        867748
 MEMORY| Cached               14063916      14063916      14063916      14063916
 MEMORY| Slab                  1595208       1595208       1595208       1595208
 MEMORY| SReclaimable           916516        916516        916516        916516
 MEMORY| MemLikelyFree       120261048     120261048     120261048     120261048


 GENERATE|  Preliminary Number of Bonds generated:                             0
 GENERATE|  Achieved consistency in connectivity generation.


                  #####   #####        #     #   #     #       #          
                 #     # #     #      #    ##### #     #   # #####  ####  
                 #     # #           #       #   ###   #       #   #    # 
                 #     #  #####     #        #   #  #  #   #   #   ###### 
                 #   # #       #   #         #   #   # #   #   #   #      
                 #    #  #     #  #          #   #  #  # # #   #    #   # 
                  #### #  #####  #           #   ###   ##  #   #     ###  

                                   GFN2-xTB  
                                 Version 0.0                       
                            Johann V. Pototschnig                  



 TOTAL NUMBERS AND MAXIMUM NUMBERS

  Total number of            - Atomic kinds:                                   3
                             - Atoms:                                         32
                             - Shell sets:                                    48
                             - Shells:                                        48
                             - Primitive Cartesian functions:                176
                             - Cartesian basis functions:                     80
                             - Spherical basis functions:                     80

  Maximum angular momentum of the orbital basis functions:                     1


 SCF PARAMETERS         Density guess:                                     MOPAC
                        --------------------------------------------------------
                        max_scf:                                             300
                        max_scf_history:                                       0
                        max_diis:                                              4
                        --------------------------------------------------------
                        eps_scf:                                        1.00E-09
                        eps_scf_history:                                0.00E+00
                        eps_diis:                                       1.00E-01
                        eps_eigval:                                     1.00E-05
                        --------------------------------------------------------
                        level_shift [a.u.]:                             0.000000
                        added MOs                                        32    0
                        --------------------------------------------------------
                        Mixing method:                           DIRECT_P_MIXING
                        --------------------------------------------------------
                        Smear method:                                FERMI_DIRAC
                        Electronic temperature [K]:                        300.0
                        Electronic temperature [a.u.]:                  9.50E-04
                        Accuracy threshold:                             1.00E-06
                        --------------------------------------------------------
                        No outer SCF

 CELL_OPT| Pressure tolerance [bar]:                                       100.0
 CELL_OPT| Keep volume of cell:                                               NO
 CELL_OPT| Keep angles between the cell vectors:                              NO
 CELL_OPT| Keep cell symmetry:                                                NO
 CELL_OPT| Constraint:                                                      NONE

 BFGS| Use rational function optimization for step estimation:                NO
 BFGS| Use model Hessian for initial guess:                                   NO
 BFGS| Restart Hessian:                                                       NO
 BFGS| Trust radius:                                                       0.472

 *******************************************************************************
 ***                     STARTING   CELL   OPTIMIZATION                      ***
 ***                                   BFGS                                  ***
 *******************************************************************************

 CELL| Volume [angstrom^3]:                                           297.269491
 CELL| Vector a [angstrom]:      13.151     0.000     0.000   |a| =    13.151000
 CELL| Vector b [angstrom]:       0.000     3.923     0.000   |b| =     3.923000
 CELL| Vector c [angstrom]:       0.000     0.000     5.762   |c| =     5.762000
 CELL| Angle (b,c), alpha [degree]:                                    90.000000
 CELL| Angle (a,c), beta  [degree]:                                    90.000000
 CELL| Angle (a,b), gamma [degree]:                                    90.000000
 CELL| Numerically orthorhombic:                                             YES
 CELL| Periodicity                                                           XYZ

 Extrapolation method: initial_guess

 Number of electrons:                                                         96
 Number of occupied orbitals:                                                 48
 Number of molecular orbitals:                                                80

 Number of orbital functions:                                                 80
 Number of independent orbital functions:                                     80


 SCF WAVEFUNCTION OPTIMIZATION

  Step     Update method      Time    Convergence         Total energy    Change
  ------------------------------------------------------------------------------
     1 TBLite/Diag 0.40E+00    0.0     0.72665108       -56.8146047386 -5.68E+01
     2 TBLite/Diag 0.40E+00    0.0     0.32785861       -57.5261974803 -7.12E-01
     3 TBLite/Diag 0.40E+00    0.0     0.08542243       -57.5588547823 -3.27E-02
     4 TBLite/Diag 0.40E+00    0.0     0.04868974       -57.5669560158 -8.10E-03
     5 TBLite/Diag 0.40E+00    0.0     0.02540855       -57.5683905191 -1.43E-03
     6 TBLite/Diag 0.40E+00    0.0     0.01362372       -57.5687088078 -3.18E-04
     7 TBLite/Diag 0.40E+00    0.0     0.00599486       -57.5689162628 -2.07E-04
     8 TBLite/Diag 0.40E+00    0.0     0.00074831       -57.5689144118  1.85E-06
     9 TBLite/Diag 0.40E+00    0.0     0.00055207       -57.5689165931 -2.18E-06
    10 TBLite/Diag 0.40E+00    0.0     0.00004679       -57.5689166042 -1.12E-08
    11 TBLite/Diag 0.40E+00    0.0     0.00001345       -57.5689166050 -8.07E-10
    12 TBLite/Diag 0.40E+00    0.0     0.00000349       -57.5689166051 -6.67E-11
    13 TBLite/Diag 0.40E+00    0.0     0.00000062       -57.5689166051 -1.72E-12
    14 TBLite/Diag 0.40E+00    0.0     0.00000012       -57.5689166051  5.68E-14
    15 TBLite/Diag 0.40E+00    0.0     0.00000012       -57.5689166051 -3.55E-14
    16 TBLite/Diag 0.40E+00    0.0     9.8155E-09       -57.5689166051 -4.26E-14
    17 TBLite/Diag 0.40E+00    0.0     1.4655E-09       -57.5689166051  7.11E-15
    18 TBLite/Diag 0.40E+00    0.0     1.2751E-09       -57.5689166051  4.97E-14
    19 TBLite/Diag 0.40E+00    0.0     7.2889E-11       -57.5689166051 -7.11E-15

  *** SCF run converged in    19 steps ***


  Core Hamiltonian energy:                                    -58.76123402930038
  Repulsive potential energy:                                   1.07749213040570
  Electrostatic energy:                                         0.16615753617740
  Self-consistent dispersion energy:                           -0.06310036411638
  Non-self consistent dispersion energy:                        0.01176812172864
  Correction for halogen bonding:                               0.00000000000000
  Electronic entropic energy:                                  -0.00000000000000
  Fermi energy:                                                -0.27529042554794

  Total energy:                                               -57.56891660510503
  Total energy (extrapolated to T->0):                        -57.56891660510503

 ENERGY| Total FORCE_EVAL ( QS ) energy [hartree]            -57.568916605105031

 OPT| **************************************************************************
 OPT| Step number                                                              0
 OPT| Optimization method                                                   BFGS
 OPT| Total energy [hartree]                                      -57.5689166051
 OPT| Internal pressure [bar]                                  239174.3192850577
 OPT| Used time [s]                                                        1.896
 OPT| **************************************************************************
 OPT| Estimated peak process memory [MiB]                                    164

 --------------------------
 OPTIMIZATION STEP:      1
 --------------------------

 CELL| Volume [angstrom^3]:                                           310.446470
 CELL| Vector a [angstrom]:      13.192     0.000     0.000   |a| =    13.191870
 CELL| Vector b [angstrom]:       0.000     4.038     0.000   |b| =     4.037653
 CELL| Vector c [angstrom]:       0.000     0.000     5.828   |c| =     5.828427
 CELL| Angle (b,c), alpha [degree]:                                    89.999997
 CELL| Angle (a,c), beta  [degree]:                                    90.000000
 CELL| Angle (a,b), gamma [degree]:                                    90.000000
 CELL| Numerically orthorhombic:                                              NO
 CELL| Periodicity                                                           XYZ

 Extrapolation method: ASPC

 Number of electrons:                                                         96
 Number of occupied orbitals:                                                 48
 Number of molecular orbitals:                                                80

 Number of orbital functions:                                                 80
 Number of independent orbital functions:                                     80


 SCF WAVEFUNCTION OPTIMIZATION

  Step     Update method      Time    Convergence         Total energy    Change
  ------------------------------------------------------------------------------
     1 TBLite/Diag 0.40E+00    0.0     0.23617911       -57.8401036566 -5.78E+01
     2 TBLite/Diag 0.40E+00    0.0     0.02021882       -57.8431261698 -3.02E-03
     3 TBLite/Diag 0.40E+00    0.0     0.00678528       -57.8433856145 -2.59E-04
     4 TBLite/Diag 0.40E+00    0.0     0.00344461       -57.8434693897 -8.38E-05
     5 TBLite/Diag 0.40E+00    0.0     0.00141448       -57.8434791498 -9.76E-06
     6 TBLite/Diag 0.40E+00    0.0     0.00063760       -57.8434815742 -2.42E-06
     7 TBLite/Diag 0.40E+00    0.0     0.00011964       -57.8434817484 -1.74E-07
     8 TBLite/Diag 0.40E+00    0.0     0.00005501       -57.8434817620 -1.35E-08
     9 TBLite/Diag 0.40E+00    0.0     0.00000866       -57.8434817624 -4.49E-10
    10 TBLite/Diag 0.40E+00    0.0     0.00000519       -57.8434817625 -1.29E-10
    11 TBLite/Diag 0.40E+00    0.0     0.00000181       -57.8434817626 -1.23E-11
    12 TBLite/Diag 0.40E+00    0.0     0.00000018       -57.8434817626 -1.71E-13
    13 TBLite/Diag 0.40E+00    0.0     0.00000005       -57.8434817626 -2.84E-14
    14 TBLite/Diag 0.40E+00    0.0     7.0390E-09       -57.8434817626  2.84E-14
    15 TBLite/Diag 0.40E+00    0.0     2.5478E-09       -57.8434817626 -8.53E-14
    16 TBLite/Diag 0.40E+00    0.0     3.3411E-10       -57.8434817626  3.55E-14

  *** SCF run converged in    16 steps ***


  Core Hamiltonian energy:                                    -58.54528320366622
  Repulsive potential energy:                                   0.56571384941726
  Electrostatic energy:                                         0.18566153468719
  Self-consistent dispersion energy:                           -0.06041750473906
  Non-self consistent dispersion energy:                        0.01084356174929
  Correction for halogen bonding:                               0.00000000000000
  Electronic entropic energy:                                  -0.00000000000000
  Fermi energy:                                                -0.27643605536159

  Total energy:                                               -57.84348176255154
  Total energy (extrapolated to T->0):                        -57.84348176255154

 ENERGY| Total FORCE_EVAL ( QS ) energy [hartree]            -57.843481762551541

 OPT| **************************************************************************
 OPT| Step number                                                              1
 OPT| Optimization method                                                   BFGS
 OPT| Total energy [hartree]                                      -57.8434817626
 OPT| Internal pressure [bar]                                   34775.6730419578
 OPT| Effective energy change [hartree]                            -0.2745651574
 OPT| Predicted energy change [hartree]                            -0.4110106068
 OPT| Scaling factor                                                0.0000000000
 OPT| Step size                                                     0.2166625024
 OPT| Trust radius                                                  0.4724315332
 OPT| Decrease in energy                                                     YES
 OPT| Used time [s]                                                        1.756
 OPT|
 OPT| Maximum step size                                             0.2166625024
 OPT| Convergence limit for maximum step size                       0.0030000000
 OPT| Maximum step size is converged                                          NO
 OPT|
 OPT| RMS step size                                                 0.0897721087
 OPT| Convergence limit for RMS step size                           0.0015000000
 OPT| RMS step size is converged                                              NO
 OPT|
 OPT| Maximum gradient                                              0.0718001896
 OPT| Convergence limit for maximum gradient                        0.0004500000
 OPT| Maximum gradient is converged                                           NO
 OPT|
 OPT| RMS gradient                                                  0.0213253035
 OPT| Convergence limit for RMS gradient                            0.0003000000
 OPT| RMS gradient is converged                                               NO
 OPT|
 OPT| Pressure deviation [bar]                                  34775.6730419578
 OPT| Pressure tolerance [bar]                                    100.0000000000
 OPT| Pressure is converged                                                   NO
 OPT| **************************************************************************
 OPT| Estimated peak process memory after this step [MiB]                    165

 --------------------------
 OPTIMIZATION STEP:      2
 --------------------------

 CELL| Volume [angstrom^3]:                                           314.646094
 CELL| Vector a [angstrom]:      13.188     0.000     0.000   |a| =    13.188485
 CELL| Vector b [angstrom]:       0.000     4.077     0.000   |b| =     4.077339
 CELL| Vector c [angstrom]:      -0.000     0.000     5.851   |c| =     5.851277
 CELL| Angle (b,c), alpha [degree]:                                    89.999986
 CELL| Angle (a,c), beta  [degree]:                                    90.000000
 CELL| Angle (a,b), gamma [degree]:                                    90.000000
 CELL| Numerically orthorhombic:                                              NO
 CELL| Periodicity                                                           XYZ

 Extrapolation method: ASPC

 Number of electrons:                                                         96
 Number of occupied orbitals:                                                 48
 Number of molecular orbitals:                                                80

 Number of orbital functions:                                                 80
 Number of independent orbital functions:                                     80


 SCF WAVEFUNCTION OPTIMIZATION

  Step     Update method      Time    Convergence         Total energy    Change
  ------------------------------------------------------------------------------
     1 TBLite/Diag 0.40E+00    0.0     0.04165561       -57.8762028915 -5.79E+01
     2 TBLite/Diag 0.40E+00    0.0     0.00204458       -57.8762460122 -4.31E-05
     3 TBLite/Diag 0.40E+00    0.0     0.00130093       -57.8762543282 -8.32E-06
     4 TBLite/Diag 0.40E+00    0.0     0.00106313       -57.8762608768 -6.55E-06
     5 TBLite/Diag 0.40E+00    0.0     0.00019296       -57.8762612342 -3.57E-07
     6 TBLite/Diag 0.40E+00    0.0     0.00005641       -57.8762612576 -2.34E-08
     7 TBLite/Diag 0.40E+00    0.0     0.00002637       -57.8762612618 -4.21E-09
     8 TBLite/Diag 0.40E+00    0.0     0.00000376       -57.8762612619 -1.33E-10
     9 TBLite/Diag 0.40E+00    0.0     0.00000235       -57.8762612620 -2.85E-11
    10 TBLite/Diag 0.40E+00    0.0     0.00000033       -57.8762612620 -7.46E-13
    11 TBLite/Diag 0.40E+00    0.0     0.00000004       -57.8762612620 -6.39E-14
    12 TBLite/Diag 0.40E+00    0.0     0.00000003       -57.8762612620  4.97E-14
    13 TBLite/Diag 0.40E+00    0.0     0.00000001       -57.8762612620  1.42E-14
    14 TBLite/Diag 0.40E+00    0.0     3.0104E-09       -57.8762612620 -2.13E-14
    15 TBLite/Diag 0.40E+00    0.0     1.9262E-10       -57.8762612620  3.55E-14

  *** SCF run converged in    15 steps ***


  Core Hamiltonian energy:                                    -58.55045473148707
  Repulsive potential energy:                                   0.54032938306648
  Electrostatic energy:                                         0.18286791988001
  Self-consistent dispersion energy:                           -0.05956263003047
  Non-self consistent dispersion energy:                        0.01055879659768
  Correction for halogen bonding:                               0.00000000000000
  Electronic entropic energy:                                  -0.00000000000000
  Fermi energy:                                                -0.27844794054838

  Total energy:                                               -57.87626126197337
  Total energy (extrapolated to T->0):                        -57.87626126197337

 ENERGY| Total FORCE_EVAL ( QS ) energy [hartree]            -57.876261261973369

 OPT| **************************************************************************
 OPT| Step number                                                              2
 OPT| Optimization method                                                   BFGS
 OPT| Total energy [hartree]                                      -57.8762612620
 OPT| Internal pressure [bar]                                   17657.8881454014
 OPT| Effective energy change [hartree]                            -0.0327794994
 OPT| Predicted energy change [hartree]                            -0.0198536940
 OPT| Scaling factor                                                0.0000000000
 OPT| Step size                                                     0.0749958036
 OPT| Trust radius                                                  0.4724315332
 OPT| Decrease in energy                                                     YES
 OPT| Used time [s]                                                        1.732
 OPT|
 OPT| Maximum step size                                             0.0749958036
 OPT| Convergence limit for maximum step size                       0.0030000000
 OPT| Maximum step size is converged                                          NO
 OPT|
 OPT| RMS step size                                                 0.0185779847
 OPT| Convergence limit for RMS step size                           0.0015000000
 OPT| RMS step size is converged                                              NO
 OPT|
 OPT| Maximum gradient                                              0.0543788858
 OPT| Convergence limit for maximum gradient                        0.0004500000
 OPT| Maximum gradient is converged                                           NO
 OPT|
 OPT| RMS gradient                                                  0.0136954224
 OPT| Convergence limit for RMS gradient                            0.0003000000
 OPT| RMS gradient is converged                                               NO
 OPT|
 OPT| Pressure deviation [bar]                                  17657.8881454014
 OPT| Pressure tolerance [bar]                                    100.0000000000
 OPT| Pressure is converged                                                   NO
 OPT| **************************************************************************
 OPT| Estimated peak process memory after this step [MiB]                    165

 --------------------------
 OPTIMIZATION STEP:      3
 --------------------------

 CELL| Volume [angstrom^3]:                                           322.898387
 CELL| Vector a [angstrom]:      13.177     0.000     0.000   |a| =    13.176740
 CELL| Vector b [angstrom]:      -0.000     4.164     0.000   |b| =     4.163831
 CELL| Vector c [angstrom]:       0.000     0.000     5.885   |c| =     5.885248
 CELL| Angle (b,c), alpha [degree]:                                    89.999966
 CELL| Angle (a,c), beta  [degree]:                                    90.000000
 CELL| Angle (a,b), gamma [degree]:                                    90.000000
 CELL| Numerically orthorhombic:                                              NO
 CELL| Periodicity                                                           XYZ

 Extrapolation method: ASPC

 Number of electrons:                                                         96
 Number of occupied orbitals:                                                 48
 Number of molecular orbitals:                                                80

 Number of orbital functions:                                                 80
 Number of independent orbital functions:                                     80


 SCF WAVEFUNCTION OPTIMIZATION

  Step     Update method      Time    Convergence         Total energy    Change
  ------------------------------------------------------------------------------
     1 TBLite/Diag 0.40E+00    0.0     0.08691787       -57.9007680659 -5.79E+01
     2 TBLite/Diag 0.40E+00    0.0     0.00703349       -57.9010751269 -3.07E-04
     3 TBLite/Diag 0.40E+00    0.0     0.00228653       -57.9011042232 -2.91E-05
     4 TBLite/Diag 0.40E+00    0.0     0.00201847       -57.9011187417 -1.45E-05
     5 TBLite/Diag 0.40E+00    0.0     0.00063072       -57.9011215808 -2.84E-06
     6 TBLite/Diag 0.40E+00    0.0     0.00017613       -57.9011217912 -2.10E-07
     7 TBLite/Diag 0.40E+00    0.0     0.00002846       -57.9011218020 -1.08E-08
     8 TBLite/Diag 0.40E+00    0.0     0.00001298       -57.9011218032 -1.22E-09
     9 TBLite/Diag 0.40E+00    0.0     0.00000431       -57.9011218033 -1.06E-10
    10 TBLite/Diag 0.40E+00    0.0     0.00000039       -57.9011218033 -1.54E-12
    11 TBLite/Diag 0.40E+00    0.0     0.00000024       -57.9011218033 -1.63E-13
    12 TBLite/Diag 0.40E+00    0.0     0.00000004       -57.9011218033 -7.82E-14
    13 TBLite/Diag 0.40E+00    0.0     0.00000002       -57.9011218033 -2.84E-14
    14 TBLite/Diag 0.40E+00    0.0     3.8265E-09       -57.9011218033  7.11E-15
    15 TBLite/Diag 0.40E+00    0.0     2.5219E-10       -57.9011218033 -3.55E-14

  *** SCF run converged in    15 steps ***


  Core Hamiltonian energy:                                    -58.55690473571543
  Repulsive potential energy:                                   0.52771132742488
  Electrostatic energy:                                         0.17594248709431
  Self-consistent dispersion energy:                           -0.05791738964664
  Non-self consistent dispersion energy:                        0.01004650751041
  Correction for halogen bonding:                               0.00000000000000
  Electronic entropic energy:                                  -0.00000000000000
  Fermi energy:                                                -0.27953261055428

  Total energy:                                               -57.90112180333247
  Total energy (extrapolated to T->0):                        -57.90112180333247

 ENERGY| Total FORCE_EVAL ( QS ) energy [hartree]            -57.901121803332465

 OPT| **************************************************************************
 OPT| Step number                                                              3
 OPT| Optimization method                                                   BFGS
 OPT| Total energy [hartree]                                      -57.9011218033
 OPT| Internal pressure [bar]                                    2468.9506818786
 OPT| Effective energy change [hartree]                            -0.0248605414
 OPT| Predicted energy change [hartree]                            -0.0241639734
 OPT| Scaling factor                                                0.0000000000
 OPT| Step size                                                     0.1634468473
 OPT| Trust radius                                                  0.4724315332
 OPT| Decrease in energy                                                     YES
 OPT| Used time [s]                                                        1.680
 OPT|
 OPT| Maximum step size                                             0.1634468473
 OPT| Convergence limit for maximum step size                       0.0030000000
 OPT| Maximum step size is converged                                          NO
 OPT|
 OPT| RMS step size                                                 0.0351819004
 OPT| Convergence limit for RMS step size                           0.0015000000
 OPT| RMS step size is converged                                              NO
 OPT|
 OPT| Maximum gradient                                              0.0265294612
 OPT| Convergence limit for maximum gradient                        0.0004500000
 OPT| Maximum gradient is converged                                           NO
 OPT|
 OPT| RMS gradient                                                  0.0062276308
 OPT| Convergence limit for RMS gradient                            0.0003000000
 OPT| RMS gradient is converged                                               NO
 OPT|
 OPT| Pressure deviation [bar]                                   2468.9506818786
 OPT| Pressure tolerance [bar]                                    100.0000000000
 OPT| Pressure is converged                                                   NO
 OPT| **************************************************************************
 OPT| Estimated peak process memory after this step [MiB]                    165

 --------------------------
 OPTIMIZATION STEP:      4
 --------------------------

 CELL| Volume [angstrom^3]:                                           324.567061
 CELL| Vector a [angstrom]:      13.174     0.000     0.000   |a| =    13.173972
 CELL| Vector b [angstrom]:      -0.000     4.186     0.000   |b| =     4.185675
 CELL| Vector c [angstrom]:       0.000     0.000     5.886   |c| =     5.886027
 CELL| Angle (b,c), alpha [degree]:                                    89.999961
 CELL| Angle (a,c), beta  [degree]:                                    90.000000
 CELL| Angle (a,b), gamma [degree]:                                    90.000000
 CELL| Numerically orthorhombic:                                              NO
 CELL| Periodicity                                                           XYZ

 Extrapolation method: ASPC

 Number of electrons:                                                         96
 Number of occupied orbitals:                                                 48
 Number of molecular orbitals:                                                80

 Number of orbital functions:                                                 80
 Number of independent orbital functions:                                     80


 SCF WAVEFUNCTION OPTIMIZATION

  Step     Update method      Time    Convergence         Total energy    Change
  ------------------------------------------------------------------------------
     1 TBLite/Diag 0.40E+00    0.0     0.00878517       -57.9044427168 -5.79E+01
     2 TBLite/Diag 0.40E+00    0.0     0.00212576       -57.9044596599 -1.69E-05
     3 TBLite/Diag 0.40E+00    0.0     0.00074457       -57.9044598218 -1.62E-07
     4 TBLite/Diag 0.40E+00    0.0     0.00042165       -57.9044607787 -9.57E-07
     5 TBLite/Diag 0.40E+00    0.0     0.00011015       -57.9044608666 -8.79E-08
     6 TBLite/Diag 0.40E+00    0.0     0.00001813       -57.9044608703 -3.66E-09
     7 TBLite/Diag 0.40E+00    0.0     0.00000797       -57.9044608707 -3.57E-10
     8 TBLite/Diag 0.40E+00    0.0     0.00000202       -57.9044608707 -1.85E-11
     9 TBLite/Diag 0.40E+00    0.0     0.00000029       -57.9044608707 -6.96E-13
    10 TBLite/Diag 0.40E+00    0.0     0.00000004       -57.9044608707 -4.26E-14
    11 TBLite/Diag 0.40E+00    0.0     0.00000003       -57.9044608707  7.11E-15
    12 TBLite/Diag 0.40E+00    0.0     8.1419E-09       -57.9044608707 -1.42E-14
    13 TBLite/Diag 0.40E+00    0.0     2.4854E-09       -57.9044608707 -2.13E-14
    14 TBLite/Diag 0.40E+00    0.0     1.5764E-10       -57.9044608707  2.13E-14

  *** SCF run converged in    14 steps ***


  Core Hamiltonian energy:                                    -58.55299059835839
  Repulsive potential energy:                                   0.52000536559531
  Electrostatic energy:                                         0.17615073245847
  Self-consistent dispersion energy:                           -0.05757870781435
  Non-self consistent dispersion energy:                        0.00995233743718
  Correction for halogen bonding:                               0.00000000000000
  Electronic entropic energy:                                  -0.00000000000000
  Fermi energy:                                                -0.27923746862503

  Total energy:                                               -57.90446087068179
  Total energy (extrapolated to T->0):                        -57.90446087068179

 ENERGY| Total FORCE_EVAL ( QS ) energy [hartree]            -57.904460870681788

 OPT| **************************************************************************
 OPT| Step number                                                              4
 OPT| Optimization method                                                   BFGS
 OPT| Total energy [hartree]                                      -57.9044608707
 OPT| Internal pressure [bar]                                   -2086.4709313588
 OPT| Effective energy change [hartree]                            -0.0033390673
 OPT| Predicted energy change [hartree]                            -0.0018914213
 OPT| Scaling factor                                                0.0000000000
 OPT| Step size                                                     0.0412779978
 OPT| Trust radius                                                  0.4724315332
 OPT| Decrease in energy                                                     YES
 OPT| Used time [s]                                                        1.083
 OPT|
 OPT| Maximum step size                                             0.0412779978
 OPT| Convergence limit for maximum step size                       0.0030000000
 OPT| Maximum step size is converged                                          NO
 OPT|
 OPT| RMS step size                                                 0.0068735314
 OPT| Convergence limit for RMS step size                           0.0015000000
 OPT| RMS step size is converged                                              NO
 OPT|
 OPT| Maximum gradient                                              0.0229533047
 OPT| Convergence limit for maximum gradient                        0.0004500000
 OPT| Maximum gradient is converged                                           NO
 OPT|
 OPT| RMS gradient                                                  0.0046001413
 OPT| Convergence limit for RMS gradient                            0.0003000000
 OPT| RMS gradient is converged                                               NO
 OPT|
 OPT| Pressure deviation [bar]                                  -2086.4709313588
 OPT| Pressure tolerance [bar]                                    100.0000000000
 OPT| Pressure is converged                                                   NO
 OPT| **************************************************************************
 OPT| Estimated peak process memory after this step [MiB]                    166

 --------------------------
 OPTIMIZATION STEP:      5
 --------------------------

 CELL| Volume [angstrom^3]:                                           330.003341
 CELL| Vector a [angstrom]:      13.160     0.000     0.000   |a| =    13.159712
 CELL| Vector b [angstrom]:       0.000     4.264     0.000   |b| =     4.263729
 CELL| Vector c [angstrom]:       0.000     0.000     5.881   |c| =     5.881422
 CELL| Angle (b,c), alpha [degree]:                                    89.999946
 CELL| Angle (a,c), beta  [degree]:                                    90.000000
 CELL| Angle (a,b), gamma [degree]:                                    90.000000
 CELL| Numerically orthorhombic:                                              NO
 CELL| Periodicity                                                           XYZ

 Extrapolation method: ASPC

 Number of electrons:                                                         96
 Number of occupied orbitals:                                                 48
 Number of molecular orbitals:                                                80

 Number of orbital functions:                                                 80
 Number of independent orbital functions:                                     80


 SCF WAVEFUNCTION OPTIMIZATION

  Step     Update method      Time    Convergence         Total energy    Change
  ------------------------------------------------------------------------------
     1 TBLite/Diag 0.40E+00    0.0     0.02761021       -57.9098466245 -5.79E+01
     2 TBLite/Diag 0.40E+00    0.0     0.00266964       -57.9099077334 -6.11E-05
     3 TBLite/Diag 0.40E+00    0.0     0.00213288       -57.9099026964  5.04E-06
     4 TBLite/Diag 0.40E+00    0.0     0.00128475       -57.9099142682 -1.16E-05
     5 TBLite/Diag 0.40E+00    0.0     0.00019418       -57.9099145094 -2.41E-07
     6 TBLite/Diag 0.40E+00    0.0     0.00004685       -57.9099145310 -2.16E-08
     7 TBLite/Diag 0.40E+00    0.0     0.00000981       -57.9099145320 -1.06E-09
     8 TBLite/Diag 0.40E+00    0.0     0.00000507       -57.9099145322 -1.86E-10
     9 TBLite/Diag 0.40E+00    0.0     0.00000075       -57.9099145322 -4.61E-12
    10 TBLite/Diag 0.40E+00    0.0     0.00000007       -57.9099145322  3.55E-14
    11 TBLite/Diag 0.40E+00    0.0     0.00000008       -57.9099145322 -7.11E-14
    12 TBLite/Diag 0.40E+00    0.0     0.00000002       -57.9099145322 -2.84E-14
    13 TBLite/Diag 0.40E+00    0.0     4.6804E-09       -57.9099145322 -4.26E-14
    14 TBLite/Diag 0.40E+00    0.0     4.2042E-10       -57.9099145322 -2.84E-14

  *** SCF run converged in    14 steps ***


  Core Hamiltonian energy:                                    -58.54794130963835
  Repulsive potential energy:                                   0.50970120555044
  Electrostatic energy:                                         0.17513621865895
  Self-consistent dispersion energy:                           -0.05646989194172
  Non-self consistent dispersion energy:                        0.00965924514469
  Correction for halogen bonding:                               0.00000000000000
  Electronic entropic energy:                                  -0.00000000000000
  Fermi energy:                                                -0.27740753936802

  Total energy:                                               -57.90991453222600
  Total energy (extrapolated to T->0):                        -57.90991453222600

 ENERGY| Total FORCE_EVAL ( QS ) energy [hartree]            -57.909914532225997

 OPT| **************************************************************************
 OPT| Step number                                                              5
 OPT| Optimization method                                                   BFGS
 OPT| Total energy [hartree]                                      -57.9099145322
 OPT| Internal pressure [bar]                                   -9545.3911528035
 OPT| Effective energy change [hartree]                            -0.0054536615
 OPT| Predicted energy change [hartree]                            -0.0045825632
 OPT| Scaling factor                                                0.0000000000
 OPT| Step size                                                     0.1475021849
 OPT| Trust radius                                                  0.4724315332
 OPT| Decrease in energy                                                     YES
 OPT| Used time [s]                                                        0.832
 OPT|
 OPT| Maximum step size                                             0.1475021849
 OPT| Convergence limit for maximum step size                       0.0030000000
 OPT| Maximum step size is converged                                          NO
 OPT|
 OPT| RMS step size                                                 0.0226252595
 OPT| Convergence limit for RMS step size                           0.0015000000
 OPT| RMS step size is converged                                              NO
 OPT|
 OPT| Maximum gradient                                              0.0147263499
 OPT| Convergence limit for maximum gradient                        0.0004500000
 OPT| Maximum gradient is converged                                           NO
 OPT|
 OPT| RMS gradient                                                  0.0035566567
 OPT| Convergence limit for RMS gradient                            0.0003000000
 OPT| RMS gradient is converged                                               NO
 OPT|
 OPT| Pressure deviation [bar]                                  -9545.3911528035
 OPT| Pressure tolerance [bar]                                    100.0000000000
 OPT| Pressure is converged                                                   NO
 OPT| **************************************************************************
 OPT| Estimated peak process memory after this step [MiB]                    166

 --------------------------
 OPTIMIZATION STEP:      6
 --------------------------

 CELL| Volume [angstrom^3]:                                           331.459185
 CELL| Vector a [angstrom]:      13.152     0.000     0.000   |a| =    13.152309
 CELL| Vector b [angstrom]:       0.000     4.293     0.000   |b| =     4.292844
 CELL| Vector c [angstrom]:       0.000     0.000     5.871   |c| =     5.870606
 CELL| Angle (b,c), alpha [degree]:                                    89.999942
 CELL| Angle (a,c), beta  [degree]:                                    90.000000
 CELL| Angle (a,b), gamma [degree]:                                    90.000000
 CELL| Numerically orthorhombic:                                              NO
 CELL| Periodicity                                                           XYZ

 Extrapolation method: ASPC

 Number of electrons:                                                         96
 Number of occupied orbitals:                                                 48
 Number of molecular orbitals:                                                80

 Number of orbital functions:                                                 80
 Number of independent orbital functions:                                     80


 SCF WAVEFUNCTION OPTIMIZATION

  Step     Update method      Time    Convergence         Total energy    Change
  ------------------------------------------------------------------------------
     1 TBLite/Diag 0.40E+00    0.0     0.00892192       -57.9115687206 -5.79E+01
     2 TBLite/Diag 0.40E+00    0.0     0.00106833       -57.9115748241 -6.10E-06
     3 TBLite/Diag 0.40E+00    0.0     0.00063060       -57.9115744511  3.73E-07
     4 TBLite/Diag 0.40E+00    0.0     0.00040460       -57.9115755104 -1.06E-06
     5 TBLite/Diag 0.40E+00    0.0     0.00005970       -57.9115755383 -2.79E-08
     6 TBLite/Diag 0.40E+00    0.0     0.00001315       -57.9115755396 -1.35E-09
     7 TBLite/Diag 0.40E+00    0.0     0.00000311       -57.9115755397 -9.61E-11
     8 TBLite/Diag 0.40E+00    0.0     0.00000096       -57.9115755397 -7.25E-12
     9 TBLite/Diag 0.40E+00    0.0     0.00000024       -57.9115755397 -3.13E-13
    10 TBLite/Diag 0.40E+00    0.0     0.00000003       -57.9115755397 -3.55E-14
    11 TBLite/Diag 0.40E+00    0.0     0.00000001       -57.9115755397 -5.68E-14
    12 TBLite/Diag 0.40E+00    0.0     4.9934E-09       -57.9115755397  2.13E-14
    13 TBLite/Diag 0.40E+00    0.0     2.1643E-09       -57.9115755397  8.53E-14
    14 TBLite/Diag 0.40E+00    0.0     2.5161E-10       -57.9115755397 -6.39E-14

  *** SCF run converged in    14 steps ***


  Core Hamiltonian energy:                                    -58.55012240251827
  Repulsive potential energy:                                   0.50966159307196
  Electrostatic energy:                                         0.17545387881273
  Self-consistent dispersion energy:                           -0.05615112071399
  Non-self consistent dispersion energy:                        0.00958251161112
  Correction for halogen bonding:                               0.00000000000000
  Electronic entropic energy:                                  -0.00000000000000
  Fermi energy:                                                -0.27758851806865

  Total energy:                                               -57.91157553973644
  Total energy (extrapolated to T->0):                        -57.91157553973644

 ENERGY| Total FORCE_EVAL ( QS ) energy [hartree]            -57.911575539736440

 OPT| **************************************************************************
 OPT| Step number                                                              6
 OPT| Optimization method                                                   BFGS
 OPT| Total energy [hartree]                                      -57.9115755397
 OPT| Internal pressure [bar]                                  -10092.2096307909
 OPT| Effective energy change [hartree]                            -0.0016610075
 OPT| Predicted energy change [hartree]                            -0.0009567875
 OPT| Scaling factor                                                0.0000000000
 OPT| Step size                                                     0.0550185049
 OPT| Trust radius                                                  0.4724315332
 OPT| Decrease in energy                                                     YES
 OPT| Used time [s]                                                        0.827
 OPT|
 OPT| Maximum step size                                             0.0550185049
 OPT| Convergence limit for maximum step size                       0.0030000000
 OPT| Maximum step size is converged                                          NO
 OPT|
 OPT| RMS step size                                                 0.0084670936
 OPT| Convergence limit for RMS step size                           0.0015000000
 OPT| RMS step size is converged                                              NO
 OPT|
 OPT| Maximum gradient                                              0.0134380994
 OPT| Convergence limit for maximum gradient                        0.0004500000
 OPT| Maximum gradient is converged                                           NO
 OPT|
 OPT| RMS gradient                                                  0.0035228827
 OPT| Convergence limit for RMS gradient                            0.0003000000
 OPT| RMS gradient is converged                                               NO
 OPT|
 OPT| Pressure deviation [bar]                                 -10092.2096307909
 OPT| Pressure tolerance [bar]                                    100.0000000000
 OPT| Pressure is converged                                                   NO
 OPT| **************************************************************************
 OPT| Estimated peak process memory after this step [MiB]                    166

 --------------------------
 OPTIMIZATION STEP:      7
 --------------------------

 CELL| Volume [angstrom^3]:                                           334.672836
 CELL| Vector a [angstrom]:      13.129     0.000     0.000   |a| =    13.129152
 CELL| Vector b [angstrom]:       0.000     4.370     0.000   |b| =     4.370112
 CELL| Vector c [angstrom]:       0.000     0.000     5.833   |c| =     5.832989
 CELL| Angle (b,c), alpha [degree]:                                    89.999936
 CELL| Angle (a,c), beta  [degree]:                                    90.000000
 CELL| Angle (a,b), gamma [degree]:                                    90.000000
 CELL| Numerically orthorhombic:                                              NO
 CELL| Periodicity                                                           XYZ

 Extrapolation method: ASPC

 Number of electrons:                                                         96
 Number of occupied orbitals:                                                 48
 Number of molecular orbitals:                                                80

 Number of orbital functions:                                                 80
 Number of independent orbital functions:                                     80


 SCF WAVEFUNCTION OPTIMIZATION

  Step     Update method      Time    Convergence         Total energy    Change
  ------------------------------------------------------------------------------
     1 TBLite/Diag 0.40E+00    0.0     0.02988265       -57.9150893911 -5.79E+01
     2 TBLite/Diag 0.40E+00    0.0     0.00225358       -57.9151261681 -3.68E-05
     3 TBLite/Diag 0.40E+00    0.0     0.00154547       -57.9151227054  3.46E-06
     4 TBLite/Diag 0.40E+00    0.0     0.00097596       -57.9151294415 -6.74E-06
     5 TBLite/Diag 0.40E+00    0.0     0.00015264       -57.9151295961 -1.55E-07
     6 TBLite/Diag 0.40E+00    0.0     0.00001426       -57.9151295986 -2.51E-09
     7 TBLite/Diag 0.40E+00    0.0     0.00000581       -57.9151295988 -2.01E-10
     8 TBLite/Diag 0.40E+00    0.0     0.00000238       -57.9151295989 -4.24E-11
     9 TBLite/Diag 0.40E+00    0.0     0.00000044       -57.9151295989 -1.35E-12
    10 TBLite/Diag 0.40E+00    0.0     0.00000004       -57.9151295989 -6.39E-14
    11 TBLite/Diag 0.40E+00    0.0     0.00000003       -57.9151295989  0.00E+00
    12 TBLite/Diag 0.40E+00    0.0     0.00000002       -57.9151295989  2.13E-14
    13 TBLite/Diag 0.40E+00    0.0     4.3472E-09       -57.9151295989  7.11E-15
    14 TBLite/Diag 0.40E+00    0.0     2.4411E-10       -57.9151295989  4.26E-14

  *** SCF run converged in    14 steps ***


  Core Hamiltonian energy:                                    -58.56465929380099
  Repulsive potential energy:                                   0.52061512921790
  Electrostatic energy:                                         0.17493516281045
  Self-consistent dispersion energy:                           -0.05544962120324
  Non-self consistent dispersion energy:                        0.00942902408597
  Correction for halogen bonding:                               0.00000000000000
  Electronic entropic energy:                                  -0.00000000000000
  Fermi energy:                                                -0.27686777474273

  Total energy:                                               -57.91512959888991
  Total energy (extrapolated to T->0):                        -57.91512959888991

 ENERGY| Total FORCE_EVAL ( QS ) energy [hartree]            -57.915129598889912

 OPT| **************************************************************************
 OPT| Step number                                                              7
 OPT| Optimization method                                                   BFGS
 OPT| Total energy [hartree]                                      -57.9151295989
 OPT| Internal pressure [bar]                                   -4503.3582252159
 OPT| Effective energy change [hartree]                            -0.0035540592
 OPT| Predicted energy change [hartree]                            -0.0025210173
 OPT| Scaling factor                                                0.0000000000
 OPT| Step size                                                     0.1460159816
 OPT| Trust radius                                                  0.4724315332
 OPT| Decrease in energy                                                     YES
 OPT| Used time [s]                                                        0.809
 OPT|
 OPT| Maximum step size                                             0.1460159816
 OPT| Convergence limit for maximum step size                       0.0030000000
 OPT| Maximum step size is converged                                          NO
 OPT|
 OPT| RMS step size                                                 0.0231754661
 OPT| Convergence limit for RMS step size                           0.0015000000
 OPT| RMS step size is converged                                              NO
 OPT|
 OPT| Maximum gradient                                              0.0069723520
 OPT| Convergence limit for maximum gradient                        0.0004500000
 OPT| Maximum gradient is converged                                           NO
 OPT|
 OPT| RMS gradient                                                  0.0034272107
 OPT| Convergence limit for RMS gradient                            0.0003000000
 OPT| RMS gradient is converged                                               NO
 OPT|
 OPT| Pressure deviation [bar]                                  -4503.3582252159
 OPT| Pressure tolerance [bar]                                    100.0000000000
 OPT| Pressure is converged                                                   NO
 OPT| **************************************************************************
 OPT| Estimated peak process memory after this step [MiB]                    166

 --------------------------
 OPTIMIZATION STEP:      8
 --------------------------

 CELL| Volume [angstrom^3]:                                           336.729958
 CELL| Vector a [angstrom]:      13.113     0.000     0.000   |a| =    13.112863
 CELL| Vector b [angstrom]:      -0.000     4.424     0.000   |b| =     4.423997
 CELL| Vector c [angstrom]:      -0.000     0.000     5.805   |c| =     5.804561
 CELL| Angle (b,c), alpha [degree]:                                    89.999920
 CELL| Angle (a,c), beta  [degree]:                                    90.000000
 CELL| Angle (a,b), gamma [degree]:                                    90.000000
 CELL| Numerically orthorhombic:                                              NO
 CELL| Periodicity                                                           XYZ

 Extrapolation method: ASPC

 Number of electrons:                                                         96
 Number of occupied orbitals:                                                 48
 Number of molecular orbitals:                                                80

 Number of orbital functions:                                                 80
 Number of independent orbital functions:                                     80


 SCF WAVEFUNCTION OPTIMIZATION

  Step     Update method      Time    Convergence         Total energy    Change
  ------------------------------------------------------------------------------
     1 TBLite/Diag 0.40E+00    0.0     0.02066807       -57.9171027968 -5.79E+01
     2 TBLite/Diag 0.40E+00    0.0     0.00104312       -57.9171098947 -7.10E-06
     3 TBLite/Diag 0.40E+00    0.0     0.00103098       -57.9171086320  1.26E-06
     4 TBLite/Diag 0.40E+00    0.0     0.00060203       -57.9171117723 -3.14E-06
     5 TBLite/Diag 0.40E+00    0.0     0.00004874       -57.9171117916 -1.93E-08
     6 TBLite/Diag 0.40E+00    0.0     0.00002348       -57.9171117943 -2.71E-09
     7 TBLite/Diag 0.40E+00    0.0     0.00000566       -57.9171117945 -2.17E-10
     8 TBLite/Diag 0.40E+00    0.0     0.00000192       -57.9171117946 -2.28E-11
     9 TBLite/Diag 0.40E+00    0.0     0.00000058       -57.9171117946 -1.95E-12
    10 TBLite/Diag 0.40E+00    0.0     0.00000007       -57.9171117946  5.68E-14
    11 TBLite/Diag 0.40E+00    0.0     0.00000005       -57.9171117946 -7.82E-14
    12 TBLite/Diag 0.40E+00    0.0     0.00000001       -57.9171117946  1.49E-13
    13 TBLite/Diag 0.40E+00    0.0     4.4503E-09       -57.9171117946 -1.49E-13
    14 TBLite/Diag 0.40E+00    0.0     7.0491E-10       -57.9171117946  5.68E-14

  *** SCF run converged in    14 steps ***


  Core Hamiltonian energy:                                    -58.57292494397534
  Repulsive potential energy:                                   0.52672078444438
  Electrostatic energy:                                         0.17478808049089
  Self-consistent dispersion energy:                           -0.05502339157195
  Non-self consistent dispersion energy:                        0.00932767604529
  Correction for halogen bonding:                               0.00000000000000
  Electronic entropic energy:                                  -0.00000000000000
  Fermi energy:                                                -0.27694844787865

  Total energy:                                               -57.91711179456675
  Total energy (extrapolated to T->0):                        -57.91711179456675

 ENERGY| Total FORCE_EVAL ( QS ) energy [hartree]            -57.917111794566750

 OPT| **************************************************************************
 OPT| Step number                                                              8
 OPT| Optimization method                                                   BFGS
 OPT| Total energy [hartree]                                      -57.9171117946
 OPT| Internal pressure [bar]                                   -1071.6010976076
 OPT| Effective energy change [hartree]                            -0.0019821957
 OPT| Predicted energy change [hartree]                            -0.0012764340
 OPT| Scaling factor                                                0.0000000000
 OPT| Step size                                                     0.1018271810
 OPT| Trust radius                                                  0.4724315332
 OPT| Decrease in energy                                                     YES
 OPT| Used time [s]                                                        0.756
 OPT|
 OPT| Maximum step size                                             0.1018271810
 OPT| Convergence limit for maximum step size                       0.0030000000
 OPT| Maximum step size is converged                                          NO
 OPT|
 OPT| RMS step size                                                 0.0161140756
 OPT| Convergence limit for RMS step size                           0.0015000000
 OPT| RMS step size is converged                                              NO
 OPT|
 OPT| Maximum gradient                                              0.0068372889
 OPT| Convergence limit for maximum gradient                        0.0004500000
 OPT| Maximum gradient is converged                                           NO
 OPT|
 OPT| RMS gradient                                                  0.0029091189
 OPT| Convergence limit for RMS gradient                            0.0003000000
 OPT| RMS gradient is converged                                               NO
 OPT|
 OPT| Pressure deviation [bar]                                  -1071.6010976076
 OPT| Pressure tolerance [bar]                                    100.0000000000
 OPT| Pressure is converged                                                   NO
 OPT| **************************************************************************
 OPT| Estimated peak process memory after this step [MiB]                    166

 --------------------------
 OPTIMIZATION STEP:      9
 --------------------------

 CELL| Volume [angstrom^3]:                                           338.870925
 CELL| Vector a [angstrom]:      13.097     0.000     0.000   |a| =    13.096909
 CELL| Vector b [angstrom]:      -0.000     4.478     0.000   |b| =     4.478021
 CELL| Vector c [angstrom]:      -0.000     0.000     5.778   |c| =     5.778025
 CELL| Angle (b,c), alpha [degree]:                                    89.999871
 CELL| Angle (a,c), beta  [degree]:                                    90.000000
 CELL| Angle (a,b), gamma [degree]:                                    90.000000
 CELL| Numerically orthorhombic:                                              NO
 CELL| Periodicity                                                           XYZ

 Extrapolation method: ASPC

 Number of electrons:                                                         96
 Number of occupied orbitals:                                                 48
 Number of molecular orbitals:                                                80

 Number of orbital functions:                                                 80
 Number of independent orbital functions:                                     80


 SCF WAVEFUNCTION OPTIMIZATION

  Step     Update method      Time    Convergence         Total energy    Change
  ------------------------------------------------------------------------------
     1 TBLite/Diag 0.40E+00    0.0     0.02179648       -57.9184955200 -5.79E+01
     2 TBLite/Diag 0.40E+00    0.0     0.00106199       -57.9185083810 -1.29E-05
     3 TBLite/Diag 0.40E+00    0.0     0.00082477       -57.9185090443 -6.63E-07
     4 TBLite/Diag 0.40E+00    0.0     0.00046969       -57.9185108001 -1.76E-06
     5 TBLite/Diag 0.40E+00    0.0     0.00008593       -57.9185108631 -6.30E-08
     6 TBLite/Diag 0.40E+00    0.0     0.00004336       -57.9185108768 -1.37E-08
     7 TBLite/Diag 0.40E+00    0.0     0.00001100       -57.9185108777 -9.40E-10
     8 TBLite/Diag 0.40E+00    0.0     0.00000224       -57.9185108777 -3.51E-11
     9 TBLite/Diag 0.40E+00    0.0     0.00000085       -57.9185108778 -5.09E-12
    10 TBLite/Diag 0.40E+00    0.0     0.00000012       -57.9185108778 -6.39E-14
    11 TBLite/Diag 0.40E+00    0.0     0.00000004       -57.9185108778 -5.68E-14
    12 TBLite/Diag 0.40E+00    0.0     0.00000001       -57.9185108778  4.26E-14
    13 TBLite/Diag 0.40E+00    0.0     4.1831E-09       -57.9185108778  2.84E-14
    14 TBLite/Diag 0.40E+00    0.0     7.5236E-10       -57.9185108778  7.11E-15

  *** SCF run converged in    14 steps ***


  Core Hamiltonian energy:                                    -58.57841924558773
  Repulsive potential energy:                                   0.53123594994931
  Electrostatic energy:                                         0.17406699482753
  Self-consistent dispersion energy:                           -0.05461786661994
  Non-self consistent dispersion energy:                        0.00922328967678
  Correction for halogen bonding:                               0.00000000000000
  Electronic entropic energy:                                  -0.00000000000000
  Fermi energy:                                                -0.27659672271662

  Total energy:                                               -57.91851087775404
  Total energy (extrapolated to T->0):                        -57.91851087775404

 ENERGY| Total FORCE_EVAL ( QS ) energy [hartree]            -57.918510877754045

 OPT| **************************************************************************
 OPT| Step number                                                              9
 OPT| Optimization method                                                   BFGS
 OPT| Total energy [hartree]                                      -57.9185108778
 OPT| Internal pressure [bar]                                    1351.0525695468
 OPT| Effective energy change [hartree]                            -0.0013990832
 OPT| Predicted energy change [hartree]                            -0.0010441210
 OPT| Scaling factor                                                0.0000000000
 OPT| Step size                                                     0.1020903394
 OPT| Trust radius                                                  0.4724315332
 OPT| Decrease in energy                                                     YES
 OPT| Used time [s]                                                        0.744
 OPT|
 OPT| Maximum step size                                             0.1020903394
 OPT| Convergence limit for maximum step size                       0.0030000000
 OPT| Maximum step size is converged                                          NO
 OPT|
 OPT| RMS step size                                                 0.0158251462
 OPT| Convergence limit for RMS step size                           0.0015000000
 OPT| RMS step size is converged                                              NO
 OPT|
 OPT| Maximum gradient                                              0.0046985872
 OPT| Convergence limit for maximum gradient                        0.0004500000
 OPT| Maximum gradient is converged                                           NO
 OPT|
 OPT| RMS gradient                                                  0.0022290661
 OPT| Convergence limit for RMS gradient                            0.0003000000
 OPT| RMS gradient is converged                                               NO
 OPT|
 OPT| Pressure deviation [bar]                                   1351.0525695468
 OPT| Pressure tolerance [bar]                                    100.0000000000
 OPT| Pressure is converged                                                   NO
 OPT| **************************************************************************
 OPT| Estimated peak process memory after this step [MiB]                    166

 --------------------------
 OPTIMIZATION STEP:     10
 --------------------------

 CELL| Volume [angstrom^3]:                                           339.952729
 CELL| Vector a [angstrom]:      13.090     0.000     0.000   |a| =    13.089697
 CELL| Vector b [angstrom]:      -0.000     4.504     0.000   |b| =     4.503626
 CELL| Vector c [angstrom]:      -0.000     0.000     5.767   |c| =     5.766690
 CELL| Angle (b,c), alpha [degree]:                                    89.999838
 CELL| Angle (a,c), beta  [degree]:                                    90.000000
 CELL| Angle (a,b), gamma [degree]:                                    90.000000
 CELL| Numerically orthorhombic:                                              NO
 CELL| Periodicity                                                           XYZ

 Extrapolation method: ASPC

 Number of electrons:                                                         96
 Number of occupied orbitals:                                                 48
 Number of molecular orbitals:                                                80

 Number of orbital functions:                                                 80
 Number of independent orbital functions:                                     80


 SCF WAVEFUNCTION OPTIMIZATION

  Step     Update method      Time    Convergence         Total energy    Change
  ------------------------------------------------------------------------------
     1 TBLite/Diag 0.40E+00    0.0     0.01208880       -57.9192292902 -5.79E+01
     2 TBLite/Diag 0.40E+00    0.0     0.00038196       -57.9192319706 -2.68E-06
     3 TBLite/Diag 0.40E+00    0.0     0.00032170       -57.9192323743 -4.04E-07
     4 TBLite/Diag 0.40E+00    0.0     0.00019516       -57.9192325602 -1.86E-07
     5 TBLite/Diag 0.40E+00    0.0     0.00005494       -57.9192325876 -2.74E-08
     6 TBLite/Diag 0.40E+00    0.0     0.00001578       -57.9192325900 -2.41E-09
     7 TBLite/Diag 0.40E+00    0.0     0.00000423       -57.9192325902 -1.92E-10
     8 TBLite/Diag 0.40E+00    0.0     0.00000100       -57.9192325902 -7.85E-12
     9 TBLite/Diag 0.40E+00    0.0     0.00000050       -57.9192325902 -1.43E-12
    10 TBLite/Diag 0.40E+00    0.0     0.00000007       -57.9192325902  1.42E-14
    11 TBLite/Diag 0.40E+00    0.0     0.00000001       -57.9192325902  3.55E-14
    12 TBLite/Diag 0.40E+00    0.0     6.0111E-09       -57.9192325902  7.82E-14
    13 TBLite/Diag 0.40E+00    0.0     2.5562E-09       -57.9192325902 -6.39E-14
    14 TBLite/Diag 0.40E+00    0.0     4.0406E-10       -57.9192325902 -7.11E-15

  *** SCF run converged in    14 steps ***


  Core Hamiltonian energy:                                    -58.57771425919441
  Repulsive potential energy:                                   0.52975129252334
  Electrostatic energy:                                         0.17399095889663
  Self-consistent dispersion energy:                           -0.05443095532311
  Non-self consistent dispersion energy:                        0.00917037292937
  Correction for halogen bonding:                               0.00000000000000
  Electronic entropic energy:                                  -0.00000000000000
  Fermi energy:                                                -0.27659748104265

  Total energy:                                               -57.91923259016818
  Total energy (extrapolated to T->0):                        -57.91923259016818

 ENERGY| Total FORCE_EVAL ( QS ) energy [hartree]            -57.919232590168178

 OPT| **************************************************************************
 OPT| Step number                                                             10
 OPT| Optimization method                                                   BFGS
 OPT| Total energy [hartree]                                      -57.9192325902
 OPT| Internal pressure [bar]                                     424.0527131113
 OPT| Effective energy change [hartree]                            -0.0007217124
 OPT| Predicted energy change [hartree]                            -0.0004543021
 OPT| Scaling factor                                                0.0000000000
 OPT| Step size                                                     0.0483876810
 OPT| Trust radius                                                  0.4724315332
 OPT| Decrease in energy                                                     YES
 OPT| Used time [s]                                                        0.738
 OPT|
 OPT| Maximum step size                                             0.0483876810
 OPT| Convergence limit for maximum step size                       0.0030000000
 OPT| Maximum step size is converged                                          NO
 OPT|
 OPT| RMS step size                                                 0.0078183684
 OPT| Convergence limit for RMS step size                           0.0015000000
 OPT| RMS step size is converged                                              NO
 OPT|
 OPT| Maximum gradient                                              0.0059385017
 OPT| Convergence limit for maximum gradient                        0.0004500000
 OPT| Maximum gradient is converged                                           NO
 OPT|
 OPT| RMS gradient                                                  0.0021637894
 OPT| Convergence limit for RMS gradient                            0.0003000000
 OPT| RMS gradient is converged                                               NO
 OPT|
 OPT| Pressure deviation [bar]                                    424.0527131113
 OPT| Pressure tolerance [bar]                                    100.0000000000
 OPT| Pressure is converged                                                   NO
 OPT| **************************************************************************
 OPT| Estimated peak process memory after this step [MiB]                    166

 --------------------------
 OPTIMIZATION STEP:     11
 --------------------------

 CELL| Volume [angstrom^3]:                                           341.666247
 CELL| Vector a [angstrom]:      13.078     0.000     0.000   |a| =    13.078084
 CELL| Vector b [angstrom]:       0.000     4.543     0.000   |b| =     4.542770
 CELL| Vector c [angstrom]:      -0.000     0.000     5.751   |c| =     5.750918
 CELL| Angle (b,c), alpha [degree]:                                    89.999782
 CELL| Angle (a,c), beta  [degree]:                                    90.000000
 CELL| Angle (a,b), gamma [degree]:                                    90.000000
 CELL| Numerically orthorhombic:                                              NO
 CELL| Periodicity                                                           XYZ

 Extrapolation method: ASPC

 Number of electrons:                                                         96
 Number of occupied orbitals:                                                 48
 Number of molecular orbitals:                                                80

 Number of orbital functions:                                                 80
 Number of independent orbital functions:                                     80


 SCF WAVEFUNCTION OPTIMIZATION

  Step     Update method      Time    Convergence         Total energy    Change
  ------------------------------------------------------------------------------
     1 TBLite/Diag 0.40E+00    0.0     0.01882275       -57.9204068539 -5.79E+01
     2 TBLite/Diag 0.40E+00    0.0     0.00039279       -57.9204100078 -3.15E-06
     3 TBLite/Diag 0.40E+00    0.0     0.00046883       -57.9204107418 -7.34E-07
     4 TBLite/Diag 0.40E+00    0.0     0.00016373       -57.9204108365 -9.47E-08
     5 TBLite/Diag 0.40E+00    0.0     0.00006150       -57.9204108644 -2.79E-08
     6 TBLite/Diag 0.40E+00    0.0     0.00001971       -57.9204108672 -2.79E-09
     7 TBLite/Diag 0.40E+00    0.0     0.00000547       -57.9204108674 -2.31E-10
     8 TBLite/Diag 0.40E+00    0.0     0.00000044       -57.9204108674 -2.64E-12
     9 TBLite/Diag 0.40E+00    0.0     0.00000060       -57.9204108674 -1.43E-12
    10 TBLite/Diag 0.40E+00    0.0     0.00000006       -57.9204108674 -2.84E-14
    11 TBLite/Diag 0.40E+00    0.0     0.00000001       -57.9204108674 -2.84E-14
    12 TBLite/Diag 0.40E+00    0.0     6.1332E-09       -57.9204108674  0.00E+00
    13 TBLite/Diag 0.40E+00    0.0     2.7239E-09       -57.9204108674  2.13E-14
    14 TBLite/Diag 0.40E+00    0.0     2.7297E-10       -57.9204108674  4.97E-14

  *** SCF run converged in    14 steps ***


  Core Hamiltonian energy:                                    -58.57439366366313
  Repulsive potential energy:                                   0.52495090606287
  Electrostatic energy:                                         0.17408443986999
  Self-consistent dispersion energy:                           -0.05413803556559
  Non-self consistent dispersion energy:                        0.00908548585359
  Correction for halogen bonding:                               0.00000000000000
  Electronic entropic energy:                                  -0.00000000000000
  Fermi energy:                                                -0.27666162754361

  Total energy:                                               -57.92041086744226
  Total energy (extrapolated to T->0):                        -57.92041086744226

 ENERGY| Total FORCE_EVAL ( QS ) energy [hartree]            -57.920410867442264

 OPT| **************************************************************************
 OPT| Step number                                                             11
 OPT| Optimization method                                                   BFGS
 OPT| Total energy [hartree]                                      -57.9204108674
 OPT| Internal pressure [bar]                                   -2572.6137015006
 OPT| Effective energy change [hartree]                            -0.0011782773
 OPT| Predicted energy change [hartree]                            -0.0007465140
 OPT| Scaling factor                                                0.0000000000
 OPT| Step size                                                     0.0739711950
 OPT| Trust radius                                                  0.4724315332
 OPT| Decrease in energy                                                     YES
 OPT| Used time [s]                                                        0.736
 OPT|
 OPT| Maximum step size                                             0.0739711950
 OPT| Convergence limit for maximum step size                       0.0030000000
 OPT| Maximum step size is converged                                          NO
 OPT|
 OPT| RMS step size                                                 0.0127240358
 OPT| Convergence limit for RMS step size                           0.0015000000
 OPT| RMS step size is converged                                              NO
 OPT|
 OPT| Maximum gradient                                              0.0066711455
 OPT| Convergence limit for maximum gradient                        0.0004500000
 OPT| Maximum gradient is converged                                           NO
 OPT|
 OPT| RMS gradient                                                  0.0024774989
 OPT| Convergence limit for RMS gradient                            0.0003000000
 OPT| RMS gradient is converged                                               NO
 OPT|
 OPT| Pressure deviation [bar]                                  -2572.6137015006
 OPT| Pressure tolerance [bar]                                    100.0000000000
[...]
 OPT| Estimated peak process memory after this step [MiB]                    167

 --------------------------
 OPTIMIZATION STEP:    193
 --------------------------

 CELL| Volume [angstrom^3]:                                           285.775287
 CELL| Vector a [angstrom]:      12.897     0.000     0.000   |a| =    12.896637
 CELL| Vector b [angstrom]:      -0.000     4.962     0.000   |b| =     4.961742
 CELL| Vector c [angstrom]:       0.000    -0.003     4.466   |c| =     4.465953
 CELL| Angle (b,c), alpha [degree]:                                    90.038470
 CELL| Angle (a,c), beta  [degree]:                                    89.999988
 CELL| Angle (a,b), gamma [degree]:                                    90.000000
 CELL| Numerically orthorhombic:                                              NO
 CELL| Periodicity                                                           XYZ

 Extrapolation method: ASPC

 Number of electrons:                                                         96
 Number of occupied orbitals:                                                 48
 Number of molecular orbitals:                                                80

 Number of orbital functions:                                                 80
 Number of independent orbital functions:                                     80


 SCF WAVEFUNCTION OPTIMIZATION

  Step     Update method      Time    Convergence         Total energy    Change
  ------------------------------------------------------------------------------
     1 TBLite/Diag 0.40E+00    0.0     0.00012989       -57.9601926097 -5.80E+01
     2 TBLite/Diag 0.40E+00    0.0     0.00001557       -57.9601926105 -8.18E-10
     3 TBLite/Diag 0.40E+00    0.0     0.00000588       -57.9601926105 -1.06E-11
     4 TBLite/Diag 0.40E+00    0.0     0.00000347       -57.9601926106 -4.79E-11
     5 TBLite/Diag 0.40E+00    0.0     0.00000067       -57.9601926106 -2.60E-12
     6 TBLite/Diag 0.40E+00    0.0     0.00000013       -57.9601926106 -2.84E-14
     7 TBLite/Diag 0.40E+00    0.0     0.00000002       -57.9601926106 -4.26E-14
     8 TBLite/Diag 0.40E+00    0.0     0.00000001       -57.9601926106  3.55E-14
     9 TBLite/Diag 0.40E+00    0.0     4.2261E-09       -57.9601926106 -4.26E-14
    10 TBLite/Diag 0.40E+00    0.0     2.0313E-09       -57.9601926106  5.68E-14
    11 TBLite/Diag 0.40E+00    0.0     2.9128E-10       -57.9601926106 -7.11E-15

  *** SCF run converged in    11 steps ***


  Core Hamiltonian energy:                                    -58.59305458992235
  Repulsive potential energy:                                   0.51884778388769
  Electrostatic energy:                                         0.16712041016740
  Self-consistent dispersion energy:                           -0.06582257687493
  Non-self consistent dispersion energy:                        0.01271636218870
  Correction for halogen bonding:                               0.00000000000000
  Electronic entropic energy:                                  -0.00000000000000
  Fermi energy:                                                -0.26839526813030

  Total energy:                                               -57.96019261055348
  Total energy (extrapolated to T->0):                        -57.96019261055348

 ENERGY| Total FORCE_EVAL ( QS ) energy [hartree]            -57.960192610553477

 OPT| **************************************************************************
 OPT| Step number                                                            193
 OPT| Optimization method                                                   BFGS
 OPT| Total energy [hartree]                                      -57.9601926106
 OPT| Internal pressure [bar]                                     -94.2494923379
 OPT| Effective energy change [hartree]                            -0.0000001805
 OPT| Predicted energy change [hartree]                            -0.0000001206
 OPT| Scaling factor                                                0.4860216128
 OPT| Step size                                                     0.0009014436
 OPT| Trust radius                                                  0.4724315332
 OPT| Decrease in energy                                                     YES
 OPT| Used time [s]                                                        0.894
 OPT|
 OPT| Maximum step size                                             0.0009014436
 OPT| Convergence limit for maximum step size                       0.0030000000
 OPT| Maximum step size is converged                                         YES
 OPT|
 OPT| RMS step size                                                 0.0002140139
 OPT| Convergence limit for RMS step size                           0.0015000000
 OPT| RMS step size is converged                                             YES
 OPT|
 OPT| Maximum gradient                                              0.0000788916
 OPT| Convergence limit for maximum gradient                        0.0004500000
 OPT| Maximum gradient is converged                                          YES
 OPT|
 OPT| RMS gradient                                                  0.0000350662
 OPT| Convergence limit for RMS gradient                            0.0003000000
 OPT| RMS gradient is converged                                              YES
 OPT|
 OPT| Pressure deviation [bar]                                    -94.2494923379
 OPT| Pressure tolerance [bar]                                    100.0000000000
 OPT| Pressure is converged                                                  YES
 OPT| **************************************************************************
 OPT| Estimated peak process memory after this step [MiB]                    167

 *******************************************************************************
 ***                    GEOMETRY OPTIMIZATION COMPLETED                      ***
 *******************************************************************************

 write_final_structure: Optimization converged, writing XYZ file gladly:
  acetic_acid_GFN2_gamma_cell_opt-FINAL-1_193.xyz

 write_final_structure: Optimization converged, writing CIF file gladly:
  acetic_acid_GFN2_gamma_cell_opt-FINAL-1_193.cif

 write_final_structure: Done!

                    Reevaluating energy at the minimum

 CELL| Volume [angstrom^3]:                                           285.775287
 CELL| Vector a [angstrom]:      12.897     0.000     0.000   |a| =    12.896637
 CELL| Vector b [angstrom]:      -0.000     4.962     0.000   |b| =     4.961742
 CELL| Vector c [angstrom]:       0.000    -0.003     4.466   |c| =     4.465953
 CELL| Angle (b,c), alpha [degree]:                                    90.038470
 CELL| Angle (a,c), beta  [degree]:                                    89.999988
 CELL| Angle (a,b), gamma [degree]:                                    90.000000
 CELL| Numerically orthorhombic:                                              NO
 CELL| Periodicity                                                           XYZ

 Extrapolation method: ASPC

 Number of electrons:                                                         96
 Number of occupied orbitals:                                                 48
 Number of molecular orbitals:                                                80

 Number of orbital functions:                                                 80
 Number of independent orbital functions:                                     80


 SCF WAVEFUNCTION OPTIMIZATION

  Step     Update method      Time    Convergence         Total energy    Change
  ------------------------------------------------------------------------------
     1 TBLite/Diag 0.40E+00    0.0     2.3763E-10       -57.9601926106 -5.80E+01

  *** SCF run converged in     1 steps ***


  Core Hamiltonian energy:                                    -58.59305459002925
  Repulsive potential energy:                                   0.51884778388769
  Electrostatic energy:                                         0.16712041027411
  Self-consistent dispersion energy:                           -0.06582257687471
  Non-self consistent dispersion energy:                        0.01271636218870
  Correction for halogen bonding:                               0.00000000000000
  Electronic entropic energy:                                  -0.00000000000000
  Fermi energy:                                                -0.26839526813549

  Total energy:                                               -57.96019261055346
  Total energy (extrapolated to T->0):                        -57.96019261055346

 ENERGY| Total FORCE_EVAL ( QS ) energy [hartree]            -57.960192610553456

 -------------------------------------------------------------------------------
 -                                                                             -
 -                                DBCSR STATISTICS                             -
 -                                                                             -
 -------------------------------------------------------------------------------
 COUNTER                                    TOTAL       BLAS       SMM       ACC
 flops     1 x    16 x     1              7864320       0.0%    100.0%      0.0%     
 flops     4 x    16 x     1             31457280       0.0%    100.0%      0.0%     
 flops     1 x    16 x     4             31457280       0.0%    100.0%      0.0%     
 flops     1 x    32 x     1             31457280       0.0%    100.0%      0.0%     
 flops     1 x     1 x    80             66999040       0.0%    100.0%      0.0%     
 flops     4 x    16 x     4            124835840       0.0%    100.0%      0.0%     
 flops     4 x    32 x     1            125829120       0.0%    100.0%      0.0%     
 flops     1 x    32 x     4            125829120       0.0%    100.0%      0.0%     
 flops     4 x     1 x    80            252231680       0.0%    100.0%      0.0%     
 flops     1 x     4 x    80            252231680       0.0%    100.0%      0.0%     
 flops     4 x    32 x     4            499343360       0.0%    100.0%      0.0%     
 flops     4 x     4 x    80           1063997440       0.0%    100.0%      0.0%     
 flops inhomo. stacks                           0       0.0%      0.0%      0.0%
 flops total                         2.613533E+09       0.0%    100.0%      0.0%
 flops max/rank                      2.613533E+09       0.0%    100.0%      0.0%
 matmuls inhomo. stacks                         0       0.0%      0.0%      0.0%
 matmuls total                            4565892       0.0%    100.0%      0.0%
 number of processed stacks                 19996       0.0%    100.0%      0.0%
 average stack size                                     0.0     228.3       0.0
 marketing flops                     2.874778E+09
 -------------------------------------------------------------------------------
 # multiplications                           4039
 max memory usage/rank              13.673316E+09
 # max total images/rank                        1
 # max 3D layers                                1
 # MPI messages exchanged                       0
 -------------------------------------------------------------------------------
 -                                                                             -
 -                      DBCSR MESSAGE PASSING PERFORMANCE                      -
 -                                                                             -
 -------------------------------------------------------------------------------
 ROUTINE             CALLS      AVE VOLUME [Bytes]
 MP_Bcast               13                     12.
 MP_Allreduce        18318                      8.
 MP_Alltoall        134008                  36429.
 MP_ISend            16156                   4121.
 MP_IRecv            16156                   4121.
 -------------------------------------------------------------------------------

 -------------------------------------------------------------------------------
 -                                                                             -
 -                          OFFLOAD MEMPOOL STATISTICS                         -
 -                                                                             -
 -------------------------------------------------------------------------------
 Memory consumption                Number of allocations  Used [MiB]  Size [MiB]
 Device                                                2           0           0
 Host                                                  2           0           0
 -------------------------------------------------------------------------------

 MEMORY| Estimated peak process memory [MiB]                                 167

 -------------------------------------------------------------------------------
 -                                                                             -
 -                         MESSAGE PASSING PERFORMANCE                         -
 -                                                                             -
 -------------------------------------------------------------------------------

 ROUTINE             CALLS      AVE VOLUME [Bytes]
 MP_Group              194
 MP_Bcast             6156                    328.
 MP_Allreduce        94998                    241.
 MP_Sync              3272
 MP_comm_split        3078
 -------------------------------------------------------------------------------


 -------------------------------------------------------------------------------
 -                                                                             -
 -                           R E F E R E N C E S                               -
 -                                                                             -
 -------------------------------------------------------------------------------
 
 CP2K version 2026.1 (Development Version), the CP2K developers group (2026).
 CP2K is freely available from https://www.cp2k.org/ .
 
 M. Iannuzzi, J. Wilhelm, F. Stein, A. Bussy, H. Elgabarty, D. Golze, A. Hehn, 
 M. Graml, S. Marek, B. Sertcan Gökmen, C. Schran, H. Forbert, R. Z. 
 Khaliullin, A. Kozhevnikov, M. Taillefumier, R. Meli, V. V. Rybkin, M. Brehm, 
 R. Schade, O. Schütt, J. V. Pototschnig, H. Mirhosseini, A. Knüpfer, D. Marx, 
 M. Krack, J. Hutter, T. D. Kühne.
 J. Phys. Chem. B 130, 1237-1310 (2026).
 The CP2K Program Package Made Simple.
 https://doi.org/10.1021/acs.jpcb.5c05851

 A. Katbashev, M. Stahn, T. Rose, V. Alizadeh, M. Friede, C. Plett, P. 
 Steinbach, S. Ehlert.
 J. Phys. Chem. A 129, 2667-2682 (2025).
 Overview on Building Blocks and Applications of Efficient and Robust Extended 
 Tight Binding.
 https://doi.org/10.1021/acs.jpca.4c08263

 T. D. Kühne, M. Iannuzzi, M. Del Ben, V. V. Rybkin, P. Seewald, F. Stein, T. 
 Laino, R. Z. Khaliullin, O. Schütt, F. Schiffmann, D. Golze, J. Wilhelm, S. 
 Chulkov, M. H. Bani-Hashemian, V. Weber, U. Borstnik, M. Taillefumier, A. S. 
 Jakobovits, A. Lazzaro, H. Pabst, T. Müller, R. Schade, M. Guidon, S. 
 Andermatt, N. Holmberg, G. K. Schenter, A. Hehn, A. Bussy, F. Belleflamme, G. 
 Tabacchi, A. Glöß, M. Lass, I. Bethune, C. J. Mundy, C. Plessl, M. Watkins, 
 J. VandeVondele, M. Krack, J. Hutter.
 J. Chem. Phys. 152, 194103 (2020).
 CP2K: An electronic structure and molecular dynamics software package - 
 Quickstep: Efficient and accurate electronic structure calculations.
 https://doi.org/10.1063/5.0007045

 P. Pracht, E. Caldeweyher, S. Ehlert, S. Grimme.
 ChemRxiv, (2019).
 A Robust Non-Self-Consistent Tight-Binding Quantum Chemistry Method for large 
 Molecules.
 https://doi.org/10.26434/chemrxiv.8326202.v1

 S. Grimme, C. Bannwarth, P. Shushkov.
 J. Chem. Theory Comput. 13, 1989 (2017).
 A Robust and Accurate Tight-Binding Quantum Chemical Method for Structures, 
 Vibrational Frequencies, and Noncovalent Interactions of Large Molecular 
 Systems Parametrized for All spd-Block Elements (Z = 1-86).
 https://doi.org/10.1021/acs.jctc.7b00118

 O. Schuett, P. Messmer, J. Hutter, J. VandeVondele.
 Electronic Structure Calculations on Graphics Processing Units, 173-190 (2016).
 GPU-Accelerated Sparse Matrix-Matrix Multiplication for Linear Scaling Density 
 Functional Theory.
 https://doi.org/10.1002/9781118670712.ch8

 A. Heinecke, G. Henry, M. Hutchinson, H. Pabst.
 Proceedings of Intl. Supercomputing Conference, 981-991 (2016).
 LIBXSMM: Accelerating Small Matrix Multiplications by Runtime Code Generation.
 https://doi.org/10.1109/SC.2016.83

 U. Borstnik, J. VandeVondele, V. Weber, J. Hutter.
 Parallel Comput. 40, 47-58 (2014).
 Sparse matrix multiplication: The distributed block-compressed sparse row 
 library.
 https://doi.org/10.1016/j.parco.2014.03.012

 T. D. Kühne, M. Krack, F. R. Mohamed, M. Parrinello.
 Phys. Rev. Lett. 98, 066401 (2007).
 Efficient and accurate Car-Parrinello-like approach to Born-Oppenheimer 
 molecular dynamics.
 https://doi.org/10.1103/PhysRevLett.98.066401

 M. Frigo, S. G. Johnson.
 Proc. IEEE 93, 216-231 (2005).
 The design and implementation of FFTW3.
 https://doi.org/10.1109/JPROC.2004.840301

 J. Kolafa.
 J. Comput. Chem. 25, 335-342 (2004).
 Time-reversible always stable predictor-corrector method for molecular dynamics 
 of polarizable molecules.
 https://doi.org/10.1002/jcc.10385

 N. D. Mermin.
 Phys. Rev. 137, A1441-A1443 (1965).
 Thermal Properties of the Inhomogeneous Electron Gas.
 https://doi.org/10.1103/PhysRev.137.A1441


 -------------------------------------------------------------------------------
 -                                                                             -
 -                                T I M I N G                                  -
 -                                                                             -
 -------------------------------------------------------------------------------
 SUBROUTINE                       CALLS  ASD         SELF TIME        TOTAL TIME
                                MAXIMUM       AVERAGE  MAXIMUM  AVERAGE  MAXIMUM
 CP2K                                 1  1.0    0.002    0.002  228.208  228.208
 cp_cell_opt                          1  2.0    0.000    0.000  228.202  228.202
 geoopt_bfgs                          1  3.0    0.021    0.021  228.202  228.202
 cp_eval_at                         195  4.0    0.021    0.021  227.853  227.853
 qs_forces                          194  5.0    0.011    0.011  227.613  227.613
 build_tblite_matrices              389  7.0  192.076  192.076  196.244  196.244
 qs_energies                        195  6.0    0.006    0.006   68.256   68.256
 qs_energies_init_hamiltonians      195  7.0    0.001    0.001   55.359   55.359
 rebuild_ks_matrix                 2885  9.8    0.003    0.003   21.706   21.706
 build_tblite_ks_matrix            2885 10.8   21.646   21.646   21.703   21.703
 qs_ks_update_qs_env_forces         194  6.0    0.001    0.001   18.419   18.419
 scf_env_do_scf                     195  7.0    0.003    0.003   11.535   11.535
 scf_env_do_scf_inner_loop         2691  8.0    1.715    1.715   11.521   11.521
 qs_scf_new_mos                    2691  9.0    0.012    0.012    6.028    6.028
 -------------------------------------------------------------------------------

 The number of warnings for this run is : 0
 
 -------------------------------------------------------------------------------
  **** **** ******  **  PROGRAM ENDED AT                 2026-05-23 22:50:57.384
 ***** ** ***  *** **   PROGRAM RAN ON                                spark-c86c
 **    ****   ******    PROGRAM RAN BY                                  kuehne88
 ***** **    ** ** **   PROGRAM PROCESS ID                               2267747
  **** **  *******  **  PROGRAM STOPPED IN /home/kuehne88/periodic-gfn2-benchmar
                                           ks/X23b/runs/cellopt_gamma/GFN2/aceti
                                           c_acid_GFN2_gamma_cellopt
