 DBCSR| CPU Multiplication driver                                           BLAS (U)
 DBCSR| Multrec recursion limit                                              512 (U)
 DBCSR| Multiplication stack size                                           1000 (D)
 DBCSR| Maximum elements for images                                    UNLIMITED (U)
 DBCSR| Multiplicative factor virtual images                                   1 (U)
 DBCSR| Use multiplication densification                                       T (D)
 DBCSR| Multiplication size stacks                                             3 (U)
 DBCSR| Use memory pool for CPU allocation                                     F (U)
 DBCSR| Number of 3D layers                                               SINGLE (U)
 DBCSR| Use MPI memory allocation                                              F (U)
 DBCSR| Use RMA algorithm                                                      F (U)
 DBCSR| Use Communication thread                                               T (U)
 DBCSR| Communication thread load                                             87 (D)
 DBCSR| MPI: My process id                                                     0
 DBCSR| MPI: Number of processes                                               1
 DBCSR| OMP: Current number of threads                                         1
 DBCSR| OMP: Max number of threads                                             1
 DBCSR| Split modifier for TAS multiplication algorithm                  1.0E+00 (U)


  **** **** ******  **  PROGRAM STARTED AT               2026-07-16 20:14:28.950
 ***** ** ***  *** **   PROGRAM STARTED ON        MacBook-Pro-von-Thomas-3.local
 **    ****   ******    PROGRAM STARTED BY                               tkuehne
 ***** **    ** ** **   PROGRAM PROCESS ID                                 94643
  **** **  *******  **  PROGRAM STARTED IN /private/tmp/gxtb-transform-qualifica
                                           tion-20260716/runs/ch4_k290_dense_pri
                                           nted

 CP2K| version string:                 CP2K version 2026.1 (Development Version)
 CP2K| source code revision number:                                   28df9380ab
 CP2K| cp2kflags: lsan omp parallel scalapack no_statm_access has_ieee_exception
 CP2K|            s spglib s_dftd3 mctc-lib tblite tblite_gxtb check_diag
 CP2K| is freely available from                            https://www.cp2k.org/
 CP2K| Program compiled at                                   2026-07-16 18:57:29
 CP2K| Program compiled on                                                      
 CP2K| Program compiled for                                                arm64
 CP2K| Data directory path               /private/tmp/cp2k_gxtb_symmetry_v2/data
 CP2K| Input file name        /private/tmp/gxtb-transform-qualification-20260716

 GLOBAL| Force Environment number                                              1
 GLOBAL| Basis set file name                                           BASIS_SET
 GLOBAL| Potential file name                                           POTENTIAL
 GLOBAL| MM Potential file name                                     MM_POTENTIAL
 GLOBAL| Coordinate file name                                      __STD_INPUT__
 GLOBAL| Method name                                                        CP2K
 GLOBAL| Project name                                         CH4_gxtb_kp_spglib
 GLOBAL| Run type                                                   ENERGY_FORCE
 GLOBAL| FFT library                                                       FFTW3
 GLOBAL| Diagonalization library                                       ScaLAPACK
 GLOBAL| Cholesky decomposition library                                ScaLAPACK
 GLOBAL| DGEMM library                                                      BLAS
 GLOBAL| Direct generalized diagonalization requested                          F
 GLOBAL| Orthonormality check for eigenvectors enabled                 5.000E-14
 GLOBAL| Matrix multiplication library                                 ScaLAPACK
 GLOBAL| All-to-all communication in single precision                          F
 GLOBAL| FFTs using library dependent lengths                                  F
 GLOBAL| Grid backend                                                       AUTO
 GLOBAL| Global print level                                               MEDIUM
 GLOBAL| MPI I/O enabled                                                       T
 GLOBAL| Total number of message passing processes                             1
 GLOBAL| Number of distributed systems (nodes)                                 1
 GLOBAL| Number of threads for this process                                    1
 GLOBAL| This output is from process                                           0
 GLOBAL| OpenMP stack size per thread (OMP_STACKSIZE)                    default
 GLOBAL| CPU model name                                                  UNKNOWN
 GLOBAL| CPUID                                                              2000

 MEMORY| system memory details [Kb]
 MEMORY|                        rank 0           min           max       average
 MEMORY| MemTotal                    0             0             0             0
 MEMORY| MemFree                     0             0             0             0
 MEMORY| Buffers                     0             0             0             0
 MEMORY| Cached                      0             0             0             0
 MEMORY| Slab                        0             0             0             0
 MEMORY| SReclaimable                0             0             0             0
 MEMORY| MemLikelyFree               0             0             0             0


 *** WARNING in environment.F:1095 :: FFT library FFTW3 is not available. ***
 *** Trying FFT library FFTSG.                                            ***


 *** Fundamental physical constants (SI units) ***

 *** Literature: B. J. Mohr and B. N. Taylor,
 ***             CODATA recommended values of the fundamental physical
 ***             constants: 2006, Web Version 5.1
 ***             http://physics.nist.gov/constants

 Speed of light in vacuum [m/s]                             2.99792458000000E+08
 Magnetic constant or permeability of vacuum [N/A**2]       1.25663706143592E-06
 Electric constant or permittivity of vacuum [F/m]          8.85418781762039E-12
 Planck constant (h) [J*s]                                  6.62606896000000E-34
 Planck constant (h-bar) [J*s]                              1.05457162825177E-34
 Elementary charge [C]                                      1.60217648700000E-19
 Electron mass [kg]                                         9.10938215000000E-31
 Electron g factor [ ]                                     -2.00231930436220E+00
 Proton mass [kg]                                           1.67262163700000E-27
 Fine-structure constant                                    7.29735253760000E-03
 Rydberg constant [1/m]                                     1.09737315685270E+07
 Avogadro constant [1/mol]                                  6.02214179000000E+23
 Boltzmann constant [J/K]                                   1.38065040000000E-23
 Atomic mass unit [kg]                                      1.66053878200000E-27
 Bohr radius [m]                                            5.29177208590000E-11

 *** Conversion factors ***

 [u] -> [a.u.]                                              1.82288848426455E+03
 [Angstrom] -> [Bohr] = [a.u.]                              1.88972613288564E+00
 [a.u.] = [Bohr] -> [Angstrom]                              5.29177208590000E-01
 [a.u.] -> [s]                                              2.41888432650478E-17
 [a.u.] -> [fs]                                             2.41888432650478E-02
 [a.u.] -> [J]                                              4.35974393937059E-18
 [a.u.] -> [N]                                              8.23872205491840E-08
 [a.u.] -> [K]                                              3.15774647902944E+05
 [a.u.] -> [kJ/mol]                                         2.62549961709828E+03
 [a.u.] -> [kcal/mol]                                       6.27509468713739E+02
 [a.u.] -> [Pa]                                             2.94210107994716E+13
 [a.u.] -> [bar]                                            2.94210107994716E+08
 [a.u.] -> [atm]                                            2.90362800883016E+08
 [a.u.] -> [eV]                                             2.72113838565563E+01
 [a.u.] -> [Hz]                                             6.57968392072181E+15
 [a.u.] -> [1/cm] (wave numbers)                            2.19474631370540E+05
 [a.u./Bohr**2] -> [1/cm]                                   5.14048714338585E+03
 

 CELL| Volume [angstrom^3]:                                           512.000000
 CELL| Vector a [angstrom]:       8.000     0.000     0.000   |a| =     8.000000
 CELL| Vector b [angstrom]:       0.000     8.000     0.000   |b| =     8.000000
 CELL| Vector c [angstrom]:       0.000     0.000     8.000   |c| =     8.000000
 CELL| Angle (b,c), alpha [degree]:                                    90.000000
 CELL| Angle (a,c), beta  [degree]:                                    90.000000
 CELL| Angle (a,b), gamma [degree]:                                    90.000000
 CELL| Requested initial symmetry:                                         CUBIC
 CELL| Numerically orthorhombic:                                             YES
 CELL| Periodicity                                                           XYZ

 CELL_REF| Volume [angstrom^3]:                                       512.000000
 CELL_REF| Vector a [angstrom     8.000     0.000     0.000   |a| =     8.000000
 CELL_REF| Vector b [angstrom     0.000     8.000     0.000   |b| =     8.000000
 CELL_REF| Vector c [angstrom     0.000     0.000     8.000   |c| =     8.000000
 CELL_REF| Angle (b,c), alpha [degree]:                                90.000000
 CELL_REF| Angle (a,c), beta  [degree]:                                90.000000
 CELL_REF| Angle (a,b), gamma [degree]:                                90.000000
 CELL_REF| Requested initial symmetry:                                     CUBIC
 CELL_REF| Numerically orthorhombic:                                         YES
 CELL_REF| Periodicity                                                       XYZ

 GENERATE|  Preliminary Number of Bonds generated:                             0
 GENERATE|  Achieved consistency in connectivity generation.


                  #####   #####        #     #   #     #       #          
                 #     # #     #      #    ##### #     #   # #####  ####  
                 #     # #           #       #   ###   #       #   #    # 
                 #     #  #####     #        #   #  #  #   #   #   ###### 
                 #   # #       #   #         #   #   # #   #   #   #      
                 #    #  #     #  #          #   #  #  # # #   #    #   # 
                  #### #  #####  #           #   ###   ##  #   #     ###  

                                     g-xTB   
                                 Version 0.0                       
                            Johann V. Pototschnig                  

                tblite provider: SAVE
                tblite source revision: unknown
                g-xTB support: enabled

 xTB| Parameter file                                             xTB1_parameters
 xTB| Basis expansion STO-NG                                                   6
 xTB| Basis expansion STO-NG for Hydrogen                                      4
 xTB| Repulsive pair potential accuracy                               0.1000E-09
 xTB| Repulsive enhancement factor                                      0.000000
 xTB| Halogen interaction potential                                            T
 xTB| Halogen interaction potential cutoff radius                         20.000
 xTB| Nonbonded interactions                                                   F
 xTB| vdW potential type:                                              DFTD3(BJ)
 xTB| D3 Dispersion: Parameter                                         dftd3.dat
 xTB| Huckel constants ks kp kd                        1.850     2.250     2.000
 xTB| Huckel constants ksp k2sh                                  2.080     2.850
 xTB| Mataga-Nishimoto exponent                                            2.000
 xTB| Repulsion potential exponent                                         1.500
 xTB| Coordination number scaling kcn(s) kcn(p) kc     0.006    -0.003    -0.005
 xTB| Electronegativity scaling                                           -0.007
 xTB| Halogen potential scaling kxr kx2                          1.300     0.440
 xTB| SCC mixer:                                                       AUTO
 xTB| tblite accuracy:                                                 1.000E+00
 xTB| tblite SCC mixer damping:                                            0.400
 xTB| tblite SCC mixer iterations:                                           250
 xTB| tblite SCC mixer memory:                                               250
 xTB| tblite SCC mixer solver:                                         GVD
 xTB| tblite SCC mixer omega0:                                         1.000E-02
 xTB| tblite SCC mixer min weight:                                     1.000E+00
 xTB| tblite SCC mixer max weight:                                     1.000E+05
 xTB| tblite SCC mixer weight factor:                                  1.000E-02




 ATOMIC KIND INFORMATION

  1. Atomic kind: C                                     Number of atoms:       1

     Orbital Basis Set                                                 C _STO-6G

       Number of orbital shell sets:                                           2
       Number of orbital shells:                                               2
       Number of primitive Cartesian functions:                               12
       Number of Cartesian basis functions:                                    4
       Number of spherical basis functions:                                    4
       Norm type:                                                              3

       Normalised Cartesian orbitals:

                        Set   Shell   Orbital            Exponent    Coefficient

                          1       1    1s                2.208628      -1.157490
                                                         1.917959       0.886555
                                                         0.497153       0.232010
                                                         0.192182       0.116485
                                                         0.150531      -0.033296
                                                         0.078189       0.019361

                          2       1    2px              24.597336       0.464082
                                                         6.488161       0.691437
                                                         2.226359       0.612655
                                                         0.776897       0.415112
                                                         0.283425       0.113030
                                                         0.098628       0.020433
                          2       1    2py              24.597336       0.464082
                                                         6.488161       0.691437
                                                         2.226359       0.612655
                                                         0.776897       0.415112
                                                         0.283425       0.113030
                                                         0.098628       0.020433
                          2       1    2pz              24.597336       0.464082
                                                         6.488161       0.691437
                                                         2.226359       0.612655
                                                         0.776897       0.415112
                                                         0.283425       0.113030
                                                         0.098628       0.020433

     AE Potential information for                                         Carbon

       Description:                                       Bare Coulomb Potential
                                                             Valence charge only

       Gaussian exponent of the core charge distribution:               3.373250
       Electronic configuration (s p d ...):                       2   2   0   0

  2. Atomic kind: H                                     Number of atoms:       4

     Orbital Basis Set                                                 H _STO-8G

       Number of orbital shell sets:                                           1
       Number of orbital shells:                                               1
       Number of primitive Cartesian functions:                                8
       Number of Cartesian basis functions:                                    1
       Number of spherical basis functions:                                    1
       Norm type:                                                              3

       Normalised Cartesian orbitals:

                        Set   Shell   Orbital            Exponent    Coefficient

                          1       1    1s              337.005012       0.032613
                                                        53.310531       0.058991
                                                        12.208253       0.102844
                                                         3.418827       0.159923
                                                         1.108790       0.193518
                                                         0.478718       0.121328
                                                         0.212137       0.085046
                                                         0.069058       0.011171

     AE Potential information for                                       Hydrogen

       Description:                                       Bare Coulomb Potential
                                                              Full atomic charge

       Gaussian exponent of the core charge distribution:              12.500000
       Electronic configuration (s p d ...):                       1   0   0   0


 MOLECULE KIND INFORMATION


 All atoms are their own molecule, skipping detailed information


 TOTAL NUMBERS AND MAXIMUM NUMBERS

  Total number of            - Atomic kinds:                                   2
                             - Atoms:                                          5
                             - Shell sets:                                     6
                             - Shells:                                         6
                             - Primitive Cartesian functions:                 44
                             - Cartesian basis functions:                      8
                             - Spherical basis functions:                      8

  Maximum angular momentum of the orbital basis functions:                     1


 MODULE QUICKSTEP: ATOMIC COORDINATES IN ANGSTROM

   Atom Kind Element         X             Y             Z       Z(eff)     Mass
      1    1 C     6      4.000000      4.000000      4.000000   4.0000  12.0107
      2    2 H     1      4.692820      4.692820      4.692820   1.0000   1.0079
      3    2 H     1      4.692820      3.307180      3.307180   1.0000   1.0079
      4    2 H     1      3.307180      4.692820      3.307180   1.0000   1.0079
      5    2 H     1      3.307180      3.307180      4.692820   1.0000   1.0079



 SCF PARAMETERS         Density guess:                                     MOPAC
                        --------------------------------------------------------
                        max_scf:                                             300
                        max_scf_history:                                       0
                        max_diis:                                              4
                        --------------------------------------------------------
                        eps_scf:                                        1.00E-10
                        eps_scf_history:                                0.00E+00
                        eps_diis:                                       1.00E-01
                        eps_eigval:                                     1.00E-05
                        --------------------------------------------------------
                        level_shift [a.u.]:                             0.000000
                        added MOs                                         4    0
                        --------------------------------------------------------
                        Mixing method:                           DIRECT_P_MIXING
                        --------------------------------------------------------
                        Smear method:                                FERMI_DIRAC
                        Electronic temperature [K]:                        300.0
                        Electronic temperature [a.u.]:                  9.50E-04
                        Accuracy threshold:                             1.00E-06
                        --------------------------------------------------------
                        No outer SCF

 PW_GRID| Information for grid number                                          1
 PW_GRID| Cutoff [a.u.]                                                      1.0
 PW_GRID| spherical cutoff:                                                   NO
 PW_GRID|   Bounds   1             -4       3                Points:           8
 PW_GRID|   Bounds   2             -4       3                Points:           8
 PW_GRID|   Bounds   3             -4       3                Points:           8
 PW_GRID| Volume element (a.u.^3)   6.748         Volume (a.u.^3)      3455.1473
 PW_GRID| Grid span                                                    FULLSPACE

 POISSON| Solver                                                        PERIODIC
 POISSON| Periodicity                                                        XYZ

 RS_GRID| Information for grid number                                          1
 RS_GRID|   Bounds   1             -4       3                Points:           8
 RS_GRID|   Bounds   2             -4       3                Points:           8
 RS_GRID|   Bounds   3             -4       3                Points:           8

 *******************************************************************************
 **                      Special K-Point Generation by K290                   **
 *******************************************************************************
 KPSYM| NUMBER OF ATOMS (STRUCT):     5
 KPSYM|          K   TYPE              X(K)
 KPSYM|          1     1   7.55890   7.55890   7.55890
 KPSYM|          2     2   8.86815   8.86815   8.86815
 KPSYM|          3     2   8.86815   6.24966   6.24966
 KPSYM|          4     2   6.24966   8.86815   6.24966
 KPSYM|          5     2   6.24966   6.24966   8.86815

 KPSYM| THE CRYSTAL SYSTEM IS CUBIC WITH 24 OPERATIONS:
    1            2[ 10 0]     2[ 01 0]     2[ 00 1]     3[-1-1-1]
    3[ 11-1]     3[-11 1]     3[ 1-11]     3[ 11 1]     3[-11-1] 
    3[-1-11]     3[ 1-1-1]   -2[-11 0]    -4[ 00 1]    -4[ 00-1] 
   -2[ 11 0]    -2[ 0-11]    -2[ 01 1]    -4[ 10 0]    -4[-10 0] 
   -2[-10 1]    -4[ 0-10]    -2[ 10 1]    -4[ 01 0] 
 KPSYM| THE SPACE GROUP OF THE CRYSTAL IS SYMMORPHIC
 KPSYM| THE POINT GROUP OF THE CRYSTAL IS  <4>3m(td)   [INDEX=31]
 KPSYM| NUMBER OF PRIMITIVE CELL:                               1

 KPSYM| ALTHOUGH THE POINT GROUP OF THE CRYSTAL DOES NOT
 KPSYM| CONTAIN INVERSION, THE SPECIAL POINT GENERATION ALGORITHM
 KPSYM| WILL CONSIDER IT AS A SYMMETRY OPERATION

 KPSYM| CRYSTALLOGRAPHIC DATA:
    A1  15.11781   0.00000   0.00000          B1   0.06615  -0.00000   0.00000
    A2   0.00000  15.11781   0.00000          B2  -0.00000   0.06615  -0.00000
    A3   0.00000   0.00000  15.11781          B3   0.00000  -0.00000   0.06615

 KPSYM| GROUP-THEORETICAL INFORMATION:
 KPSYM|    POINT GROUP OF THE PRIMITIVE LATTICE: CUBIC        SYSTEM
 KPSYM|    SYMMORPHIC GROUP
 KPSYM|    NO INVERSION SYMMETRY
 KPSYM|    TOTAL NUMBER OF ELEMENTS IN THE POINT GROUP: 24
 KPSYM|    TO SUM UP: (5  1  1  0 24 31)

 KPSYM|    LIST OF THE ROTATIONS:
          1   2   3   4   5   6   7   8   9  10  11  12
         37  38  39  40  41  42  43  44  45  46  47  48

 KPSYM|    ATOM TRANSFORMATION TABLE (MARADUDIN,VOSKO):
    R  AT->AT    R  AT->AT    R  AT->AT    R  AT->AT    R  AT->AT
    1 [Identity]
    2   1   1    2   2   3    2   3   2    2   4   5    2   5   4
    3   1   1    3   2   4    3   3   5    3   4   2    3   5   3
    4   1   1    4   2   5    4   3   4    4   4   3    4   5   2
    5   1   1    5   2   2    5   3   5    5   4   3    5   5   4
    6   1   1    6   2   3    6   3   4    6   4   2    6   5   5
    7   1   1    7   2   4    7   3   3    7   4   5    7   5   2
    8   1   1    8   2   5    8   3   2    8   4   4    8   5   3
    9   1   1    9   2   2    9   3   4    9   4   5    9   5   3
   10   1   1   10   2   3   10   3   5   10   4   4   10   5   2
   11   1   1   11   2   4   11   3   2   11   4   3   11   5   5
   12   1   1   12   2   5   12   3   3   12   4   2   12   5   4
   37   1   1   37   2   2   37   3   4   37   4   3   37   5   5
   38   1   1   38   2   3   38   3   5   38   4   2   38   5   4
   39   1   1   39   2   4   39   3   2   39   4   5   39   5   3
   40   1   1   40   2   5   40   3   3   40   4   4   40   5   2
   41   1   1   41   2   2   41   3   3   41   4   5   41   5   4
   42   1   1   42   2   3   42   3   2   42   4   4   42   5   5
   43   1   1   43   2   4   43   3   5   43   4   3   43   5   2
   44   1   1   44   2   5   44   3   4   44   4   2   44   5   3
   45   1   1   45   2   2   45   3   5   45   4   4   45   5   3
   46   1   1   46   2   3   46   3   4   46   4   5   46   5   2
   47   1   1   47   2   4   47   3   3   47   4   2   47   5   5
   48   1   1   48   2   5   48   3   2   48   4   3   48   5   4

 KPSYM|    LIST OF THE 3 X 3 ROTATION MATRICES:
      1 ( 1:  1        )       1.000000      0.000000      0.000000
                               0.000000      1.000000      0.000000
                               0.000000      0.000000      1.000000
      2 ( 2:  2[ 10 0] )       1.000000      0.000000      0.000000
                               0.000000     -1.000000      0.000000
                               0.000000      0.000000     -1.000000
      3 ( 3:  2[ 01 0] )      -1.000000      0.000000      0.000000
                               0.000000      1.000000      0.000000
                               0.000000      0.000000     -1.000000
      4 ( 4:  2[ 00 1] )      -1.000000      0.000000      0.000000
                               0.000000     -1.000000      0.000000
                               0.000000      0.000000      1.000000
      5 ( 5:  3[-1-1-1])       0.000000      1.000000      0.000000
                               0.000000      0.000000      1.000000
                               1.000000      0.000000      0.000000
      6 ( 6:  3[ 11-1] )       0.000000      1.000000      0.000000
                               0.000000      0.000000     -1.000000
                              -1.000000      0.000000      0.000000
      7 ( 7:  3[-11 1] )       0.000000     -1.000000      0.000000
                               0.000000      0.000000      1.000000
                              -1.000000      0.000000      0.000000
      8 ( 8:  3[ 1-11] )       0.000000     -1.000000      0.000000
                               0.000000      0.000000     -1.000000
                               1.000000      0.000000      0.000000
      9 ( 9:  3[ 11 1] )       0.000000      0.000000      1.000000
                               1.000000      0.000000      0.000000
                               0.000000      1.000000      0.000000
     10 (10:  3[-11-1] )       0.000000      0.000000      1.000000
                              -1.000000      0.000000      0.000000
                               0.000000     -1.000000      0.000000
     11 (11:  3[-1-11] )       0.000000      0.000000     -1.000000
                               1.000000      0.000000      0.000000
                               0.000000     -1.000000      0.000000
     12 (12:  3[ 1-1-1])       0.000000      0.000000     -1.000000
                              -1.000000      0.000000      0.000000
                               0.000000      1.000000      0.000000
     13 (37: -2[-11 0] )      -0.000000      1.000000     -0.000000
                               1.000000     -0.000000     -0.000000
                              -0.000000     -0.000000      1.000000
     14 (38: -4[ 00 1] )      -0.000000      1.000000     -0.000000
                              -1.000000     -0.000000     -0.000000
                              -0.000000     -0.000000     -1.000000
     15 (39: -4[ 00-1] )      -0.000000     -1.000000     -0.000000
                               1.000000     -0.000000     -0.000000
                              -0.000000     -0.000000     -1.000000
     16 (40: -2[ 11 0] )      -0.000000     -1.000000     -0.000000
                              -1.000000     -0.000000     -0.000000
                              -0.000000     -0.000000      1.000000
     17 (41: -2[ 0-11] )       1.000000     -0.000000     -0.000000
                              -0.000000     -0.000000      1.000000
                              -0.000000      1.000000     -0.000000
     18 (42: -2[ 01 1] )       1.000000     -0.000000     -0.000000
                              -0.000000     -0.000000     -1.000000
                              -0.000000     -1.000000     -0.000000
     19 (43: -4[ 10 0] )      -1.000000     -0.000000     -0.000000
                              -0.000000     -0.000000      1.000000
                              -0.000000     -1.000000     -0.000000
     20 (44: -4[-10 0] )      -1.000000     -0.000000     -0.000000
                              -0.000000     -0.000000     -1.000000
                              -0.000000      1.000000     -0.000000
     21 (45: -2[-10 1] )      -0.000000     -0.000000      1.000000
                              -0.000000      1.000000     -0.000000
                               1.000000     -0.000000     -0.000000
     22 (46: -4[ 0-10] )      -0.000000     -0.000000      1.000000
                              -0.000000     -1.000000     -0.000000
                              -1.000000     -0.000000     -0.000000
     23 (47: -2[ 10 1] )      -0.000000     -0.000000     -1.000000
                              -0.000000      1.000000     -0.000000
                              -1.000000     -0.000000     -0.000000
     24 (48: -4[ 01 0] )      -0.000000     -0.000000     -1.000000
                              -0.000000     -1.000000     -0.000000
                               1.000000     -0.000000     -0.000000

 KPSYM| THE POINT GROUP OF THE CRYSTAL IS THE FULL CUBIC GROUP
 KPSYM| THE SPACE GROUP OF THE CRYSTAL IS SYMMORPHIC
 KPSYM| THE POINT GROUP OF THE CRYSTAL IS  m3m(oh)     [INDEX=32]
 KPSYM| NUMBER OF PRIMITIVE CELL:                               1
 KPSYM| THE POINT GROUP OF THE CRYSTAL CONTAINS THE INVERSION


 ******************* GENERATION OF SPECIAL POINTS *************************
 KPSYM| MONKHORST-PACK PARAMETERS (GENERALIZED) IQ1,IQ2,IQ3:
     2    2    2
 KPSYM| CONSTANT VECTOR SHIFT (MACDONALD) OF THIS MESH:
    0.00000   0.00000   0.00000
 KPSYM| SYMMETRIZATION SWITCH:   1 (SYMMETRIZATION OF MONKHORST-PACK MESH)
 KPSYM| The 1st Brillouin zone is confined by (at most)  3 planes
 KPSYM| as defined by the +/- halves of the vectors:
 KPSYM|     1.0000   -0.0000    0.0000
 KPSYM|    -0.0000    1.0000   -0.0000
 KPSYM|     0.0000   -0.0000    1.0000
 KPSYM|
 KPSYM| THE WAVEVECTOR MESH CONTAINS     8 POINTS
 KPSYM| THE POINTS ARE:
     1    0.2500    0.2500    0.2500     2    0.2500   -0.2500   -0.2500
     3   -0.2500    0.2500   -0.2500     4   -0.2500   -0.2500    0.2500
     5   -0.2500   -0.2500   -0.2500     6   -0.2500    0.2500    0.2500
     7    0.2500   -0.2500    0.2500     8    0.2500    0.2500   -0.2500


 KPSYM|    CROSS TABLE RELATING MESH POINTS WITH SPECIAL POINTS:
    IK -> SK    IK -> SK    IK -> SK    IK -> SK    IK -> SK
     1     1     2     1     3     1     4     1     5     1
     6     1     7     1     8     1

 KPSYM|     1 SPECIAL POINTS GENERATED
        WAVEVECTOR K            WEIGHT    UNFOLDING ROTATIONS
     1  0.2500  0.2500  0.2500       8     1 -1  2 -2  3 -3  4 -4
                        TOTAL:       8
 *******************************************************************************
 **                              Finished K290                                **
 *******************************************************************************

 Crystal Symmetry Information
       International Symbol:                                               P-43m
       Point Group Symbol:                                                  -43m
       Schoenflies Symbol:                                                  Td^1
       Number of Symmetry Operations:                                         24

 K-point Symmetry Information
       Number of Special K-points:                                             1
                   Wavevector Basis                                       Weight
          1  -0.25000  -0.25000  -0.25000                                      8

       K-point Mesh:                                               2     2     2
                   Wavevector Basis                   Special Points    Rotation
          1  -0.25000  -0.25000  -0.25000              1           1           1
          2  -0.25000  -0.25000   0.25000              1           1          -4
          3  -0.25000   0.25000  -0.25000              1           1          -3
          4  -0.25000   0.25000   0.25000              1           1           2
          5   0.25000  -0.25000  -0.25000              1           1          -2
          6   0.25000  -0.25000   0.25000              1           1           3
          7   0.25000   0.25000  -0.25000              1           1           4
          8   0.25000   0.25000   0.25000              1           1          -1

       Atom Transformation Table
          Rot=    1     1    2    3    4    5
          Rot=    2     1    3    2    5    4
          Rot=    3     1    4    5    2    3
          Rot=    4     1    5    4    3    2
          Rot=    5     1    2    5    3    4
          Rot=    6     1    3    4    2    5
          Rot=    7     1    4    3    5    2
          Rot=    8     1    5    2    4    3
          Rot=    9     1    2    4    5    3
          Rot=   10     1    3    5    4    2
          Rot=   11     1    4    2    3    5
          Rot=   12     1    5    3    2    4
          Rot=   37     1    2    4    3    5
          Rot=   38     1    3    5    2    4
          Rot=   39     1    4    2    5    3
          Rot=   40     1    5    3    4    2
          Rot=   41     1    2    3    5    4
          Rot=   42     1    3    2    4    5
          Rot=   43     1    4    5    3    2
          Rot=   44     1    5    4    2    3
          Rot=   45     1    2    5    4    3
          Rot=   46     1    3    4    5    2
          Rot=   47     1    4    3    2    5
          Rot=   48     1    5    2    3    4

 *******************************************************************************
                                    Kpoints
 *******************************************************************************
 BRILLOUIN| K-point scheme                                        Monkhorst-Pack
 BRILLOUIN| K-Point grid                                             2    2    2
 BRILLOUIN| K-point symmetry accuracy                               0.100000E-07
 BRILLOUIN| K-Point point group symmetrization                                ON
 BRILLOUIN| Symmetry backend                                               K290
 BRILLOUIN| Symmetry reduction method                                      K290
 BRILLOUIN| Wavefunction type                                            COMPLEX
 BRILLOUIN| List of Kpoints [2 Pi/Bohr]                                        1
 BRILLOUIN| Number           Weight            X              Y              Z
 BRILLOUIN|     1           1.00000       -0.25000       -0.25000       -0.25000
 *******************************************************************************

 Extrapolation method: initial_guess

 Number of electrons:                                                          8
 Number of occupied orbitals:                                                  4
 Number of molecular orbitals:                                                 8

 Number of orbital functions:                                                  8
 Number of independent orbital functions:                                      8


 SCF WAVEFUNCTION OPTIMIZATION

  Step     Update method      Time    Convergence         Total energy    Change
  ------------------------------------------------------------------------------
     1 GXTB-Raw    0.10E+01    0.1     0.82979700       -40.4488101775 -4.04E+01
     2 GXTB-Simple 0.20E+00    0.0     0.04788247       -40.4610431014 -1.22E-02
     3 GXTB-Simple 0.20E+00    0.1     0.03337886       -40.4671918126 -6.15E-03
     4 GXTB-FDIIS  0.10E+01    0.1     0.05524366       -40.4725636158 -5.37E-03
     5 GXTB-FDIIS  0.10E+01    0.1     0.03381046       -40.4737574771 -1.19E-03
     6 GXTB-FDIIS  0.10E+01    0.0     0.00193792       -40.4737570582  4.19E-07
     7 GXTB-FDIIS  0.10E+01    0.1     0.00101935       -40.4737581571 -1.10E-06
     8 GXTB-FDIIS  0.10E+01    0.0     0.00003683       -40.4737581591 -1.98E-09
     9 GXTB-FDIIS  0.10E+01    0.0     0.00000780       -40.4737581592 -6.37E-11
    10 GXTB-FDIIS  0.10E+01    0.1     0.00000009       -40.4737581592 -1.42E-14
    11 GXTB-FDIIS  0.10E+01    0.0     1.3332E-11       -40.4737581592  7.11E-15

  *** SCF run converged in    11 steps ***


  Core Hamiltonian energy:                                     -3.07154157743218
  Repulsive potential energy:                                   0.37448426636229
  Electrostatic energy:                                         0.01774355862855
  Self-consistent dispersion energy:                           -0.00112258111387
  Non-self consistent dispersion energy:                        0.00003895111946
  Correction for halogen bonding:                               0.00000000000000
  Electronic entropic energy:                                  -0.00000000000000
  Fermi energy:                                                -0.21273198638631

  Total energy:                                               -40.47375815918122
  Total energy (extrapolated to T->0):                        -40.47375815918122


 MULLIKEN POPULATION ANALYSIS

  # Atom   Element   Kind        Atomic population                    Net charge
       1     C          1                 4.286001                     -0.286001
       2     H          2                 0.928500                      0.071500
       3     H          2                 0.928500                      0.071500
       4     H          2                 0.928500                      0.071500
       5     H          2                 0.928500                      0.071500
 # Total charge                           8.000000                      0.000000


 ENERGY| Total FORCE_EVAL ( QS ) energy [hartree]            -40.473758159181223

 FORCES| Atomic forces [hartree/bohr]
 FORCES|   Atom     x               y               z               |f|
 FORCES|      1  1.18192657E-16  1.49407043E-16  2.08893160E-16   2.82715972E-16
 FORCES|      2 -3.20262835E-02 -3.20262835E-02 -3.20262835E-02   5.54711502E-02
 FORCES|      3 -3.20262835E-02  3.20262835E-02  3.20262835E-02   5.54711502E-02
 FORCES|      4  3.20262835E-02 -3.20262835E-02  3.20262835E-02   5.54711502E-02
 FORCES|      5  3.20262835E-02  3.20262835E-02 -3.20262835E-02   5.54711502E-02
 FORCES| Sum     1.11022302E-16  9.71445147E-17  6.93889390E-17
 FORCES| Total atomic force                                       1.63027094E-16

 STRESS| Stress tensor components (GPW/GAPW) [bar]
 STRESS|                                           1/3 Trace         Determinant
 STRESS| Overlap                           0.00000000000E+00   0.00000000000E+00
 STRESS| Kinetic energy                    0.00000000000E+00   0.00000000000E+00
 STRESS| Local pseudopotential/core        0.00000000000E+00   0.00000000000E+00
 STRESS| Nonlocal pseudopotential          0.00000000000E+00   0.00000000000E+00
 STRESS| Core charge overlap               0.00000000000E+00   0.00000000000E+00
 STRESS| Hartree                           0.00000000000E+00   0.00000000000E+00
 STRESS| Exchange-correlation              0.00000000000E+00   0.00000000000E+00
 STRESS| Exact exchange (EXX)              0.00000000000E+00   0.00000000000E+00
 STRESS| vdW correction                    0.00000000000E+00   0.00000000000E+00
 STRESS| Moller-Plesset (MP2)              0.00000000000E+00   0.00000000000E+00
 STRESS| Nonlinear core correction (NLCC)  0.00000000000E+00   0.00000000000E+00
 STRESS| Local atomic parts (GAPW)         0.00000000000E+00   0.00000000000E+00
 STRESS| Resolution-of-the-identity (LRI)  0.00000000000E+00   0.00000000000E+00
 STRESS| Sum of components                 0.00000000000E+00   0.00000000000E+00
 STRESS| Total                            -1.50321621258E+04  -3.39675601626E+12

 STRESS| Analytical stress tensor [bar]
 STRESS|                        x                   y                   z
 STRESS|      x       -1.50321621258E+04  -1.04802471097E-11  -1.54643351528E-11
 STRESS|      y       -1.04802471097E-11  -1.50321621258E+04  -1.00791295392E-11
 STRESS|      z       -1.54643351528E-11  -1.00791295392E-11  -1.50321621258E+04
 STRESS| 1/3 Trace                                            -1.50321621258E+04
 STRESS| Determinant                                          -3.39675601626E+12

 STRESS| Eigenvectors and eigenvalues of the analytical stress tensor [bar]
 STRESS|                        1                   2                   3
 STRESS| Eigenvalues  -1.50321621258E+04  -1.50321621258E+04  -1.50321621258E+04
 STRESS|      x           0.000000000000      1.000000000000      0.000000000000
 STRESS|      y           1.000000000000      0.000000000000      0.000000000000
 STRESS|      z           0.000000000000      0.000000000000      1.000000000000

 -------------------------------------------------------------------------------
 -                                                                             -
 -                                DBCSR STATISTICS                             -
 -                                                                             -
 -------------------------------------------------------------------------------
 COUNTER                                    TOTAL       BLAS       SMM       ACC
 flops inhomo. stacks                           0       0.0%      0.0%      0.0%
 flops total                         0.000000E+00       0.0%      0.0%      0.0%
 flops max/rank                      0.000000E+00       0.0%      0.0%      0.0%
 matmuls inhomo. stacks                         0       0.0%      0.0%      0.0%
 matmuls total                                  0       0.0%      0.0%      0.0%
 number of processed stacks                     0       0.0%      0.0%      0.0%
 average stack size                                     0.0       0.0       0.0
 marketing flops                     0.000000E+00
 -------------------------------------------------------------------------------
 -                                                                             -
 -                      DBCSR MESSAGE PASSING PERFORMANCE                      -
 -                                                                             -
 -------------------------------------------------------------------------------
 ROUTINE             CALLS      AVE VOLUME [Bytes]
 MP_Bcast                1                     12.
 MP_Allreduce           19                     21.
 MP_Alltoall           964                    568.
 -------------------------------------------------------------------------------

 -------------------------------------------------------------------------------
 -                                                                             -
 -                          OFFLOAD MEMPOOL STATISTICS                         -
 -                                                                             -
 -------------------------------------------------------------------------------
 Memory consumption                Number of allocations  Used [MiB]  Size [MiB]
 Host                                                  1           0           0
 -------------------------------------------------------------------------------

 MEMORY| Estimated peak process memory [MiB]                                   0

 -------------------------------------------------------------------------------
 ----                             MULTIGRID INFO                            ----
 -------------------------------------------------------------------------------
 total grid count     :           420              cutoff [a.u.]            1.00

 -------------------------------------------------------------------------------
 -                                                                             -
 -                         MESSAGE PASSING PERFORMANCE                         -
 -                                                                             -
 -------------------------------------------------------------------------------

 ROUTINE             CALLS      AVE VOLUME [Bytes]
 MP_Group                1
 MP_Bcast             1019                      7.
 MP_Allreduce       110929                     54.
 MP_Sync                 1
 MP_Wait               840
 MP_ISend             1176                     79.
 MP_IRecv             1176                     79.
 -------------------------------------------------------------------------------


 -------------------------------------------------------------------------------
 -                                                                             -
 -                           R E F E R E N C E S                               -
 -                                                                             -
 -------------------------------------------------------------------------------
 
 CP2K version 2026.1 (Development Version), the CP2K developers group (2026).
 CP2K is freely available from https://www.cp2k.org/ .
 
 M. Iannuzzi, J. Wilhelm, F. Stein, A. Bussy, H. Elgabarty, D. Golze, A. Hehn, 
 M. Graml, S. Marek, B. Sertcan Gökmen, C. Schran, H. Forbert, R. Z. 
 Khaliullin, A. Kozhevnikov, M. Taillefumier, R. Meli, V. V. Rybkin, M. Brehm, 
 R. Schade, O. Schütt, J. V. Pototschnig, H. Mirhosseini, A. Knüpfer, D. Marx, 
 M. Krack, J. Hutter, T. D. Kühne.
 J. Phys. Chem. B 130, 1237-1310 (2026).
 The CP2K Program Package Made Simple.
 https://doi.org/10.1021/acs.jpcb.5c05851

 A. Katbashev, M. Stahn, T. Rose, V. Alizadeh, M. Friede, C. Plett, P. 
 Steinbach, S. Ehlert.
 J. Phys. Chem. A 129, 2667-2682 (2025).
 Overview on Building Blocks and Applications of Efficient and Robust Extended 
 Tight Binding.
 https://doi.org/10.1021/acs.jpca.4c08263

 T. D. Kühne, M. Iannuzzi, M. Del Ben, V. V. Rybkin, P. Seewald, F. Stein, T. 
 Laino, R. Z. Khaliullin, O. Schütt, F. Schiffmann, D. Golze, J. Wilhelm, S. 
 Chulkov, M. H. Bani-Hashemian, V. Weber, U. Borstnik, M. Taillefumier, A. S. 
 Jakobovits, A. Lazzaro, H. Pabst, T. Müller, R. Schade, M. Guidon, S. 
 Andermatt, N. Holmberg, G. K. Schenter, A. Hehn, A. Bussy, F. Belleflamme, G. 
 Tabacchi, A. Glöß, M. Lass, I. Bethune, C. J. Mundy, C. Plessl, M. Watkins, 
 J. VandeVondele, M. Krack, J. Hutter.
 J. Chem. Phys. 152, 194103 (2020).
 CP2K: An electronic structure and molecular dynamics software package - 
 Quickstep: Efficient and accurate electronic structure calculations.
 https://doi.org/10.1063/5.0007045

 P. Pracht, E. Caldeweyher, S. Ehlert, S. Grimme.
 ChemRxiv, (2019).
 A Robust Non-Self-Consistent Tight-Binding Quantum Chemistry Method for large 
 Molecules.
 https://doi.org/10.26434/chemrxiv.8326202.v1

 A. Togo, I. Tanaka.
 arXiv, 1808.01590 (2018).
 Spglib : a software library for crystal symmetry search.

 S. Grimme, C. Bannwarth, P. Shushkov.
 J. Chem. Theory Comput. 13, 1989 (2017).
 A Robust and Accurate Tight-Binding Quantum Chemical Method for Structures, 
 Vibrational Frequencies, and Noncovalent Interactions of Large Molecular 
 Systems Parametrized for All spd-Block Elements (Z = 1-86).
 https://doi.org/10.1021/acs.jctc.7b00118

 O. Schuett, P. Messmer, J. Hutter, J. VandeVondele.
 Electronic Structure Calculations on Graphics Processing Units, 173-190 (2016).
 GPU-Accelerated Sparse Matrix-Matrix Multiplication for Linear Scaling Density 
 Functional Theory.
 https://doi.org/10.1002/9781118670712.ch8

 U. Borstnik, J. VandeVondele, V. Weber, J. Hutter.
 Parallel Comput. 40, 47-58 (2014).
 Sparse matrix multiplication: The distributed block-compressed sparse row 
 library.
 https://doi.org/10.1016/j.parco.2014.03.012

 M. Frigo, S. G. Johnson.
 Proc. IEEE 93, 216-231 (2005).
 The design and implementation of FFTW3.
 https://doi.org/10.1109/JPROC.2004.840301

 T. G. Worlton, J. L. Warren.
 Comput. Phys. Commun. 3, 88-117 (1972).
 Group-theoretical analysis of lattice vibrations.
 https://doi.org/10.1016/0010-4655(72)90058-6

 N. D. Mermin.
 Phys. Rev. 137, A1441-A1443 (1965).
 Thermal Properties of the Inhomogeneous Electron Gas.
 https://doi.org/10.1103/PhysRev.137.A1441


 -------------------------------------------------------------------------------
 -                                                                             -
 -                                T I M I N G                                  -
 -                                                                             -
 -------------------------------------------------------------------------------
 SUBROUTINE                       CALLS  ASD         SELF TIME        TOTAL TIME
                                MAXIMUM       AVERAGE  MAXIMUM  AVERAGE  MAXIMUM
 CP2K                                 1  1.0    0.006    0.006    1.361    1.361
 qs_forces                            1  2.0    0.000    0.000    1.339    1.339
 qs_energies                          1  3.0    0.001    0.001    0.950    0.950
 build_tblite_matrices                2  4.0    0.049    0.049    0.683    0.683
 cp_dbcsr_alloc_block_from_nbl    18324  5.1    0.591    0.591    0.629    0.629
 scf_env_do_scf                       1  4.0    0.000    0.000    0.554    0.554
 scf_env_do_scf_inner_loop           11  5.0    0.098    0.098    0.554    0.554
 qs_energies_init_hamiltonians        1  4.0    0.000    0.000    0.369    0.369
 rebuild_ks_matrix                   12  6.8    0.000    0.000    0.300    0.300
 build_tblite_ks_matrix              12  7.8    0.167    0.167    0.300    0.300
 qs_ks_update_qs_env                 11  6.0    0.000    0.000    0.260    0.260
 rskp_transform                     275  7.2    0.096    0.096    0.096    0.096
 dbcsr_iterator_start            111861  7.6    0.063    0.063    0.079    0.079
 qs_scf_new_mos_kp                   11  6.0    0.000    0.000    0.065    0.065
 do_general_diag_kp                  11  7.0    0.007    0.007    0.065    0.065
 qs_ks_update_qs_env_forces           1  3.0    0.000    0.000    0.059    0.059
 dbcsr_iterator_stop             111861  7.6    0.044    0.044    0.057    0.057
 kpoint_density_transform            13  7.6    0.002    0.002    0.044    0.044
 dbcsr_dot                        10363  8.2    0.022    0.022    0.038    0.038
 evaluate_core_matrix_traces         23  6.4    0.000    0.000    0.037    0.037
 calculate_ptrace_kp                 23  7.4    0.003    0.003    0.037    0.037
 transform_dmat                     104  8.6    0.035    0.035    0.035    0.035
 dbcsr_reserve_blocks             18351  6.1    0.024    0.024    0.033    0.033
 dbcsr_create_new                 28519  6.2    0.021    0.021    0.031    0.031
 -------------------------------------------------------------------------------

 The number of warnings for this run is : 1
 
 -------------------------------------------------------------------------------
  **** **** ******  **  PROGRAM ENDED AT                 2026-07-16 20:14:30.377
 ***** ** ***  *** **   PROGRAM RAN ON            MacBook-Pro-von-Thomas-3.local
 **    ****   ******    PROGRAM RAN BY                                   tkuehne
 ***** **    ** ** **   PROGRAM PROCESS ID                                 94643
  **** **  *******  **  PROGRAM STOPPED IN /private/tmp/gxtb-transform-qualifica
                                           tion-20260716/runs/ch4_k290_dense_pri
                                           nted
