 DBCSR| CPU Multiplication driver                                           BLAS (U)
 DBCSR| Multrec recursion limit                                              512 (U)
 DBCSR| Multiplication stack size                                           1000 (D)
 DBCSR| Maximum elements for images                                    UNLIMITED (U)
 DBCSR| Multiplicative factor virtual images                                   1 (U)
 DBCSR| Use multiplication densification                                       T (D)
 DBCSR| Multiplication size stacks                                             3 (U)
 DBCSR| Use memory pool for CPU allocation                                     F (U)
 DBCSR| Number of 3D layers                                               SINGLE (U)
 DBCSR| Use MPI memory allocation                                              F (U)
 DBCSR| Use RMA algorithm                                                      F (U)
 DBCSR| Use Communication thread                                               T (U)
 DBCSR| Communication thread load                                             87 (D)
 DBCSR| MPI: My process id                                                     0
 DBCSR| MPI: Number of processes                                               1
 DBCSR| OMP: Current number of threads                                         1
 DBCSR| OMP: Max number of threads                                             1
 DBCSR| Split modifier for TAS multiplication algorithm                  1.0E+00 (U)


  **** **** ******  **  PROGRAM STARTED AT               2026-07-21 12:40:53.202
 ***** ** ***  *** **   PROGRAM STARTED ON                                 terok
 **    ****   ******    PROGRAM STARTED BY                              kuehne88
 ***** **    ** ** **   PROGRAM PROCESS ID                                489564
  **** **  *******  **  PROGRAM STARTED IN /home/kuehne88/work/kpoint-reduction-
                                           audit-20260721/results/round3/ch4_k66
                                           6_k290_fused

 CP2K| version string:                 CP2K version 2026.2 (Development Version)
 CP2K| source code revision number:                                    8520b2e59
 CP2K| cp2kflags: omp parallel scalapack spglib s_dftd3 mctc-lib tblite tblite_g
 CP2K|            xtb
 CP2K| is freely available from                            https://www.cp2k.org/
 CP2K| Program compiled at                                   2026-07-18 23:48:15
 CP2K| Program compiled on                                                 terok
 CP2K| Program compiled for                                               x86_64
 CP2K| Data directory path                            /usr/local/share/cp2k/data
 CP2K| Input file name        /home/kuehne88/work/kpoint-reduction-audit-2026072

 GLOBAL| Force Environment number                                              1
 GLOBAL| Basis set file name                                           BASIS_SET
 GLOBAL| Potential file name                                           POTENTIAL
 GLOBAL| MM Potential file name                                     MM_POTENTIAL
 GLOBAL| Coordinate file name                                      __STD_INPUT__
 GLOBAL| Method name                                                        CP2K
 GLOBAL| Project name                                        ch4_k666_k290_fused
 GLOBAL| Run type                                                         ENERGY
 GLOBAL| FFT library                                                       FFTW3
 GLOBAL| Diagonalization library                                       ScaLAPACK
 GLOBAL| Cholesky decomposition library                                ScaLAPACK
 GLOBAL| DGEMM library                                                      BLAS
 GLOBAL| Direct generalized diagonalization requested                          F
 GLOBAL| Orthonormality check for eigenvectors                          DISABLED
 GLOBAL| Matrix multiplication library                                 ScaLAPACK
 GLOBAL| All-to-all communication in single precision                          F
 GLOBAL| FFTs using library dependent lengths                                  F
 GLOBAL| Grid backend                                                       AUTO
 GLOBAL| Global print level                                               MEDIUM
 GLOBAL| MPI I/O enabled                                                       T
 GLOBAL| Total number of message passing processes                             1
 GLOBAL| Number of distributed systems (nodes)                                 1
 GLOBAL| Number of threads for this process                                    1
 GLOBAL| This output is from process                                           0
 GLOBAL| OpenMP stack size per thread (OMP_STACKSIZE)                    default
 GLOBAL| CPU model name                                       AMD EPYC Processor
 GLOBAL| CPUID                                                              1002

 MEMORY| system memory details [Kb]
 MEMORY|                        rank 0           min           max       average
 MEMORY| MemTotal            528104804     528104804     528104804     528104804
 MEMORY| MemFree             511533000     511533000     511533000     511533000
 MEMORY| Buffers                    20            20            20            20
 MEMORY| Cached               12068164      12068164      12068164      12068164
 MEMORY| Slab                  2342708       2342708       2342708       2342708
 MEMORY| SReclaimable           993896        993896        993896        993896
 MEMORY| MemLikelyFree       524595080     524595080     524595080     524595080


 *** WARNING in environment.F:1098 :: FFT library FFTW3 is not available. ***
 *** Trying FFT library FFTSG.                                            ***


 *** Fundamental physical constants (SI units) ***

 *** Literature: B. J. Mohr and B. N. Taylor,
 ***             CODATA recommended values of the fundamental physical
 ***             constants: 2006, Web Version 5.1
 ***             http://physics.nist.gov/constants

 Speed of light in vacuum [m/s]                             2.99792458000000E+08
 Magnetic constant or permeability of vacuum [N/A**2]       1.25663706143592E-06
 Electric constant or permittivity of vacuum [F/m]          8.85418781762039E-12
 Planck constant (h) [J*s]                                  6.62606896000000E-34
 Planck constant (h-bar) [J*s]                              1.05457162825177E-34
 Elementary charge [C]                                      1.60217648700000E-19
 Electron mass [kg]                                         9.10938215000000E-31
 Electron g factor [ ]                                     -2.00231930436220E+00
 Proton mass [kg]                                           1.67262163700000E-27
 Fine-structure constant                                    7.29735253760000E-03
 Rydberg constant [1/m]                                     1.09737315685270E+07
 Avogadro constant [1/mol]                                  6.02214179000000E+23
 Boltzmann constant [J/K]                                   1.38065040000000E-23
 Atomic mass unit [kg]                                      1.66053878200000E-27
 Bohr radius [m]                                            5.29177208590000E-11

 *** Conversion factors ***

 [u] -> [a.u.]                                              1.82288848426455E+03
 [Angstrom] -> [Bohr] = [a.u.]                              1.88972613288564E+00
 [a.u.] = [Bohr] -> [Angstrom]                              5.29177208590000E-01
 [a.u.] -> [s]                                              2.41888432650478E-17
 [a.u.] -> [fs]                                             2.41888432650478E-02
 [a.u.] -> [J]                                              4.35974393937059E-18
 [a.u.] -> [N]                                              8.23872205491840E-08
 [a.u.] -> [K]                                              3.15774647902944E+05
 [a.u.] -> [kJ/mol]                                         2.62549961709828E+03
 [a.u.] -> [kcal/mol]                                       6.27509468713739E+02
 [a.u.] -> [Pa]                                             2.94210107994716E+13
 [a.u.] -> [bar]                                            2.94210107994716E+08
 [a.u.] -> [atm]                                            2.90362800883016E+08
 [a.u.] -> [eV]                                             2.72113838565563E+01
 [a.u.] -> [Hz]                                             6.57968392072181E+15
 [a.u.] -> [1/cm] (wave numbers)                            2.19474631370540E+05
 [a.u./Bohr**2] -> [1/cm]                                   5.14048714338585E+03
 

 CELL| Volume [angstrom^3]:                                           512.000000
 CELL| Vector a [angstrom]:       8.000     0.000     0.000   |a| =     8.000000
 CELL| Vector b [angstrom]:       0.000     8.000     0.000   |b| =     8.000000
 CELL| Vector c [angstrom]:       0.000     0.000     8.000   |c| =     8.000000
 CELL| Angle (b,c), alpha [degree]:                                    90.000000
 CELL| Angle (a,c), beta  [degree]:                                    90.000000
 CELL| Angle (a,b), gamma [degree]:                                    90.000000
 CELL| Requested initial symmetry:                                         CUBIC
 CELL| Numerically orthorhombic:                                             YES
 CELL| Periodicity                                                           XYZ

 CELL_REF| Volume [angstrom^3]:                                       512.000000
 CELL_REF| Vector a [angstrom     8.000     0.000     0.000   |a| =     8.000000
 CELL_REF| Vector b [angstrom     0.000     8.000     0.000   |b| =     8.000000
 CELL_REF| Vector c [angstrom     0.000     0.000     8.000   |c| =     8.000000
 CELL_REF| Angle (b,c), alpha [degree]:                                90.000000
 CELL_REF| Angle (a,c), beta  [degree]:                                90.000000
 CELL_REF| Angle (a,b), gamma [degree]:                                90.000000
 CELL_REF| Requested initial symmetry:                                     CUBIC
 CELL_REF| Numerically orthorhombic:                                         YES
 CELL_REF| Periodicity                                                       XYZ

 GENERATE|  Preliminary Number of Bonds generated:                             0
 GENERATE|  Achieved consistency in connectivity generation.


                  #####   #####        #     #   #     #       #          
                 #     # #     #      #    ##### #     #   # #####  ####  
                 #     # #           #       #   ###   #       #   #    # 
                 #     #  #####     #        #   #  #  #   #   #   ###### 
                 #   # #       #   #         #   #   # #   #   #   #      
                 #    #  #     #  #          #   #  #  # # #   #    #   # 
                  #### #  #####  #           #   ###   ##  #   #     ###  

                                     g-xTB   
                                 Version 0.0                       
                            Johann V. Pototschnig                  

                tblite provider: SAVE
                tblite source revision: 15915c9435644eb257178ca8f8bf7220c38b1a84
                g-xTB support: enabled

 xTB| Parameter file                                             xTB1_parameters
 xTB| Basis expansion STO-NG                                                   6
 xTB| Basis expansion STO-NG for Hydrogen                                      4
 xTB| Repulsive pair potential accuracy                               0.1000E-09
 xTB| Repulsive enhancement factor                                      0.000000
 xTB| Halogen interaction potential                                            T
 xTB| Halogen interaction potential cutoff radius                         20.000
 xTB| Nonbonded interactions                                                   F
 xTB| vdW potential type:                                              DFTD3(BJ)
 xTB| D3 Dispersion: Parameter                                         dftd3.dat
 xTB| Huckel constants ks kp kd                        1.850     2.250     2.000
 xTB| Huckel constants ksp k2sh                                  2.080     2.850
 xTB| Mataga-Nishimoto exponent                                            2.000
 xTB| Repulsion potential exponent                                         1.500
 xTB| Coordination number scaling kcn(s) kcn(p) kc     0.006    -0.003    -0.005
 xTB| Electronegativity scaling                                           -0.007
 xTB| Halogen potential scaling kxr kx2                          1.300     0.440
 xTB| SCC mixer:                                                       AUTO
 xTB| tblite accuracy:                                                 1.000E+00
 xTB| tblite SCC mixer damping:                                            0.400
 xTB| tblite SCC mixer iterations:                                           250
 xTB| tblite SCC mixer memory:                                               250
 xTB| tblite SCC mixer solver:                                         GVD
 xTB| tblite SCC mixer omega0:                                         1.000E-02
 xTB| tblite SCC mixer min weight:                                     1.000E+00
 xTB| tblite SCC mixer max weight:                                     1.000E+05
 xTB| tblite SCC mixer weight factor:                                  1.000E-02




 ATOMIC KIND INFORMATION

  1. Atomic kind: C                                     Number of atoms:       1

     Orbital Basis Set                                                 C _STO-6G

       Number of orbital shell sets:                                           2
       Number of orbital shells:                                               2
       Number of primitive Cartesian functions:                               12
       Number of Cartesian basis functions:                                    4
       Number of spherical basis functions:                                    4
       Norm type:                                                              3

       Normalised Cartesian orbitals:

                        Set   Shell   Orbital            Exponent    Coefficient

                          1       1    1s                2.208628      -1.157490
                                                         1.917959       0.886555
                                                         0.497153       0.232010
                                                         0.192182       0.116485
                                                         0.150531      -0.033296
                                                         0.078189       0.019361

                          2       1    2px              24.597336       0.464082
                                                         6.488161       0.691437
                                                         2.226359       0.612655
                                                         0.776897       0.415112
                                                         0.283425       0.113030
                                                         0.098628       0.020433
                          2       1    2py              24.597336       0.464082
                                                         6.488161       0.691437
                                                         2.226359       0.612655
                                                         0.776897       0.415112
                                                         0.283425       0.113030
                                                         0.098628       0.020433
                          2       1    2pz              24.597336       0.464082
                                                         6.488161       0.691437
                                                         2.226359       0.612655
                                                         0.776897       0.415112
                                                         0.283425       0.113030
                                                         0.098628       0.020433

     AE Potential information for                                         Carbon

       Description:                                       Bare Coulomb Potential
                                                             Valence charge only

       Gaussian exponent of the core charge distribution:               3.373250
       Electronic configuration (s p d ...):                       2   2   0   0

  2. Atomic kind: H                                     Number of atoms:       4

     Orbital Basis Set                                                 H _STO-8G

       Number of orbital shell sets:                                           1
       Number of orbital shells:                                               1
       Number of primitive Cartesian functions:                                8
       Number of Cartesian basis functions:                                    1
       Number of spherical basis functions:                                    1
       Norm type:                                                              3

       Normalised Cartesian orbitals:

                        Set   Shell   Orbital            Exponent    Coefficient

                          1       1    1s              337.005012       0.032613
                                                        53.310531       0.058991
                                                        12.208253       0.102844
                                                         3.418827       0.159923
                                                         1.108790       0.193518
                                                         0.478718       0.121328
                                                         0.212137       0.085046
                                                         0.069058       0.011171

     AE Potential information for                                       Hydrogen

       Description:                                       Bare Coulomb Potential
                                                              Full atomic charge

       Gaussian exponent of the core charge distribution:              12.500000
       Electronic configuration (s p d ...):                       1   0   0   0


 MOLECULE KIND INFORMATION


 All atoms are their own molecule, skipping detailed information


 TOTAL NUMBERS AND MAXIMUM NUMBERS

  Total number of            - Atomic kinds:                                   2
                             - Atoms:                                          5
                             - Shell sets:                                     6
                             - Shells:                                         6
                             - Primitive Cartesian functions:                 44
                             - Cartesian basis functions:                      8
                             - Spherical basis functions:                      8

  Maximum angular momentum of the orbital basis functions:                     1


 MODULE QUICKSTEP: ATOMIC COORDINATES IN ANGSTROM

   Atom Kind Element         X             Y             Z       Z(eff)     Mass
      1    1 C     6      4.000000      4.000000      4.000000   4.0000  12.0107
      2    2 H     1      4.692820      4.692820      4.692820   1.0000   1.0079
      3    2 H     1      4.692820      3.307180      3.307180   1.0000   1.0079
      4    2 H     1      3.307180      4.692820      3.307180   1.0000   1.0079
      5    2 H     1      3.307180      3.307180      4.692820   1.0000   1.0079



 SCF PARAMETERS         Density guess:                                     MOPAC
                        --------------------------------------------------------
                        max_scf:                                             300
                        max_scf_history:                                       0
                        max_diis:                                              4
                        --------------------------------------------------------
                        eps_scf:                                        1.00E-10
                        eps_scf_history:                                0.00E+00
                        eps_diis:                                       1.00E-01
                        eps_eigval:                                     1.00E-05
                        --------------------------------------------------------
                        level_shift [a.u.]:                             0.000000
                        added MOs                                         4    0
                        --------------------------------------------------------
                        Mixing method:                           DIRECT_P_MIXING
                        --------------------------------------------------------
                        No outer SCF

 PW_GRID| Information for grid number                                          1
 PW_GRID| Cutoff [a.u.]                                                      1.0
 PW_GRID| spherical cutoff:                                                   NO
 PW_GRID|   Bounds   1             -4       3                Points:           8
 PW_GRID|   Bounds   2             -4       3                Points:           8
 PW_GRID|   Bounds   3             -4       3                Points:           8
 PW_GRID| Volume element (a.u.^3)   6.748         Volume (a.u.^3)      3455.1473
 PW_GRID| Grid span                                                    FULLSPACE

 POISSON| Solver                                                        PERIODIC
 POISSON| Periodicity                                                        XYZ

 RS_GRID| Information for grid number                                          1
 RS_GRID|   Bounds   1             -4       3                Points:           8
 RS_GRID|   Bounds   2             -4       3                Points:           8
 RS_GRID|   Bounds   3             -4       3                Points:           8

 *******************************************************************************
 **                      Special K-Point Generation by K290                   **
 *******************************************************************************
 KPSYM| NUMBER OF ATOMS (STRUCT):     5
 KPSYM|          K   TYPE              X(K)
 KPSYM|          1     1   7.55890   7.55890   7.55890
 KPSYM|          2     2   8.86815   8.86815   8.86815
 KPSYM|          3     2   8.86815   6.24966   6.24966
 KPSYM|          4     2   6.24966   8.86815   6.24966
 KPSYM|          5     2   6.24966   6.24966   8.86815

 KPSYM| THE CRYSTAL SYSTEM IS CUBIC WITH 24 OPERATIONS:
    1            2[ 10 0]     2[ 01 0]     2[ 00 1]     3[-1-1-1]
    3[ 11-1]     3[-11 1]     3[ 1-11]     3[ 11 1]     3[-11-1] 
    3[-1-11]     3[ 1-1-1]   -2[-11 0]    -4[ 00 1]    -4[ 00-1] 
   -2[ 11 0]    -2[ 0-11]    -2[ 01 1]    -4[ 10 0]    -4[-10 0] 
   -2[-10 1]    -4[ 0-10]    -2[ 10 1]    -4[ 01 0] 
 KPSYM| THE SPACE GROUP OF THE CRYSTAL IS SYMMORPHIC
 KPSYM| THE POINT GROUP OF THE CRYSTAL IS  <4>3m(td)   [INDEX=31]
 KPSYM| NUMBER OF PRIMITIVE CELL:                               1

 KPSYM| ALTHOUGH THE POINT GROUP OF THE CRYSTAL DOES NOT
 KPSYM| CONTAIN INVERSION, THE SPECIAL POINT GENERATION ALGORITHM
 KPSYM| WILL CONSIDER IT AS A SYMMETRY OPERATION

 KPSYM| CRYSTALLOGRAPHIC DATA:
    A1  15.11781   0.00000   0.00000          B1   0.06615  -0.00000   0.00000
    A2   0.00000  15.11781   0.00000          B2  -0.00000   0.06615  -0.00000
    A3   0.00000   0.00000  15.11781          B3   0.00000  -0.00000   0.06615

 KPSYM| GROUP-THEORETICAL INFORMATION:
 KPSYM|    POINT GROUP OF THE PRIMITIVE LATTICE: CUBIC        SYSTEM
 KPSYM|    SYMMORPHIC GROUP
 KPSYM|    NO INVERSION SYMMETRY
 KPSYM|    TOTAL NUMBER OF ELEMENTS IN THE POINT GROUP: 24
 KPSYM|    TO SUM UP: (5  1  1  0 24 31)

 KPSYM|    LIST OF THE ROTATIONS:
          1   2   3   4   5   6   7   8   9  10  11  12
         37  38  39  40  41  42  43  44  45  46  47  48

 KPSYM|    ATOM TRANSFORMATION TABLE (MARADUDIN,VOSKO):
    R  AT->AT    R  AT->AT    R  AT->AT    R  AT->AT    R  AT->AT
    1 [Identity]
    2   1   1    2   2   3    2   3   2    2   4   5    2   5   4
    3   1   1    3   2   4    3   3   5    3   4   2    3   5   3
    4   1   1    4   2   5    4   3   4    4   4   3    4   5   2
    5   1   1    5   2   2    5   3   5    5   4   3    5   5   4
    6   1   1    6   2   3    6   3   4    6   4   2    6   5   5
    7   1   1    7   2   4    7   3   3    7   4   5    7   5   2
    8   1   1    8   2   5    8   3   2    8   4   4    8   5   3
    9   1   1    9   2   2    9   3   4    9   4   5    9   5   3
   10   1   1   10   2   3   10   3   5   10   4   4   10   5   2
   11   1   1   11   2   4   11   3   2   11   4   3   11   5   5
   12   1   1   12   2   5   12   3   3   12   4   2   12   5   4
   37   1   1   37   2   2   37   3   4   37   4   3   37   5   5
   38   1   1   38   2   3   38   3   5   38   4   2   38   5   4
   39   1   1   39   2   4   39   3   2   39   4   5   39   5   3
   40   1   1   40   2   5   40   3   3   40   4   4   40   5   2
   41   1   1   41   2   2   41   3   3   41   4   5   41   5   4
   42   1   1   42   2   3   42   3   2   42   4   4   42   5   5
   43   1   1   43   2   4   43   3   5   43   4   3   43   5   2
   44   1   1   44   2   5   44   3   4   44   4   2   44   5   3
   45   1   1   45   2   2   45   3   5   45   4   4   45   5   3
   46   1   1   46   2   3   46   3   4   46   4   5   46   5   2
   47   1   1   47   2   4   47   3   3   47   4   2   47   5   5
   48   1   1   48   2   5   48   3   2   48   4   3   48   5   4

 KPSYM|    LIST OF THE 3 X 3 ROTATION MATRICES:
      1 ( 1:  1        )       1.000000      0.000000      0.000000
                               0.000000      1.000000      0.000000
                               0.000000      0.000000      1.000000
      2 ( 2:  2[ 10 0] )       1.000000      0.000000      0.000000
                               0.000000     -1.000000      0.000000
                               0.000000      0.000000     -1.000000
      3 ( 3:  2[ 01 0] )      -1.000000      0.000000      0.000000
                               0.000000      1.000000      0.000000
                               0.000000      0.000000     -1.000000
      4 ( 4:  2[ 00 1] )      -1.000000      0.000000      0.000000
                               0.000000     -1.000000      0.000000
                               0.000000      0.000000      1.000000
      5 ( 5:  3[-1-1-1])       0.000000      1.000000      0.000000
                               0.000000      0.000000      1.000000
                               1.000000      0.000000      0.000000
      6 ( 6:  3[ 11-1] )       0.000000      1.000000      0.000000
                               0.000000      0.000000     -1.000000
                              -1.000000      0.000000      0.000000
      7 ( 7:  3[-11 1] )       0.000000     -1.000000      0.000000
                               0.000000      0.000000      1.000000
                              -1.000000      0.000000      0.000000
      8 ( 8:  3[ 1-11] )       0.000000     -1.000000      0.000000
                               0.000000      0.000000     -1.000000
                               1.000000      0.000000      0.000000
      9 ( 9:  3[ 11 1] )       0.000000      0.000000      1.000000
                               1.000000      0.000000      0.000000
                               0.000000      1.000000      0.000000
     10 (10:  3[-11-1] )       0.000000      0.000000      1.000000
                              -1.000000      0.000000      0.000000
                               0.000000     -1.000000      0.000000
     11 (11:  3[-1-11] )       0.000000      0.000000     -1.000000
                               1.000000      0.000000      0.000000
                               0.000000     -1.000000      0.000000
     12 (12:  3[ 1-1-1])       0.000000      0.000000     -1.000000
                              -1.000000      0.000000      0.000000
                               0.000000      1.000000      0.000000
     13 (37: -2[-11 0] )      -0.000000      1.000000     -0.000000
                               1.000000     -0.000000     -0.000000
                              -0.000000     -0.000000      1.000000
     14 (38: -4[ 00 1] )      -0.000000      1.000000     -0.000000
                              -1.000000     -0.000000     -0.000000
                              -0.000000     -0.000000     -1.000000
     15 (39: -4[ 00-1] )      -0.000000     -1.000000     -0.000000
                               1.000000     -0.000000     -0.000000
                              -0.000000     -0.000000     -1.000000
     16 (40: -2[ 11 0] )      -0.000000     -1.000000     -0.000000
                              -1.000000     -0.000000     -0.000000
                              -0.000000     -0.000000      1.000000
     17 (41: -2[ 0-11] )       1.000000     -0.000000     -0.000000
                              -0.000000     -0.000000      1.000000
                              -0.000000      1.000000     -0.000000
     18 (42: -2[ 01 1] )       1.000000     -0.000000     -0.000000
                              -0.000000     -0.000000     -1.000000
                              -0.000000     -1.000000     -0.000000
     19 (43: -4[ 10 0] )      -1.000000     -0.000000     -0.000000
                              -0.000000     -0.000000      1.000000
                              -0.000000     -1.000000     -0.000000
     20 (44: -4[-10 0] )      -1.000000     -0.000000     -0.000000
                              -0.000000     -0.000000     -1.000000
                              -0.000000      1.000000     -0.000000
     21 (45: -2[-10 1] )      -0.000000     -0.000000      1.000000
                              -0.000000      1.000000     -0.000000
                               1.000000     -0.000000     -0.000000
     22 (46: -4[ 0-10] )      -0.000000     -0.000000      1.000000
                              -0.000000     -1.000000     -0.000000
                              -1.000000     -0.000000     -0.000000
     23 (47: -2[ 10 1] )      -0.000000     -0.000000     -1.000000
                              -0.000000      1.000000     -0.000000
                              -1.000000     -0.000000     -0.000000
     24 (48: -4[ 01 0] )      -0.000000     -0.000000     -1.000000
                              -0.000000     -1.000000     -0.000000
                               1.000000     -0.000000     -0.000000

 KPSYM| THE POINT GROUP OF THE CRYSTAL IS THE FULL CUBIC GROUP
 KPSYM| THE SPACE GROUP OF THE CRYSTAL IS SYMMORPHIC
 KPSYM| THE POINT GROUP OF THE CRYSTAL IS  m3m(oh)     [INDEX=32]
 KPSYM| NUMBER OF PRIMITIVE CELL:                               1
 KPSYM| THE POINT GROUP OF THE CRYSTAL CONTAINS THE INVERSION


 ******************* GENERATION OF SPECIAL POINTS *************************
 KPSYM| MONKHORST-PACK PARAMETERS (GENERALIZED) IQ1,IQ2,IQ3:
     6    6    6
 KPSYM| CONSTANT VECTOR SHIFT (MACDONALD) OF THIS MESH:
    0.00000   0.00000   0.00000
 KPSYM| SYMMETRIZATION SWITCH:   1 (SYMMETRIZATION OF MONKHORST-PACK MESH)
 KPSYM| The 1st Brillouin zone is confined by (at most)  3 planes
 KPSYM| as defined by the +/- halves of the vectors:
 KPSYM|     1.0000   -0.0000    0.0000
 KPSYM|    -0.0000    1.0000   -0.0000
 KPSYM|     0.0000   -0.0000    1.0000
 KPSYM|
 KPSYM| THE WAVEVECTOR MESH CONTAINS   216 POINTS
 KPSYM| THE POINTS ARE:
     1    0.4167    0.4167    0.4167     2    0.4167   -0.4167   -0.4167
     3   -0.4167    0.4167   -0.4167     4   -0.4167   -0.4167    0.4167
     5   -0.4167   -0.4167   -0.4167     6   -0.4167    0.4167    0.4167
     7    0.4167   -0.4167    0.4167     8    0.4167    0.4167   -0.4167
     9    0.4167    0.4167    0.2500    10    0.4167   -0.4167   -0.2500
    11   -0.4167    0.4167   -0.2500    12   -0.4167   -0.4167    0.2500
    13    0.4167    0.2500    0.4167    14    0.4167   -0.2500   -0.4167
    15   -0.4167    0.2500   -0.4167    16   -0.4167   -0.2500    0.4167
    17    0.2500    0.4167    0.4167    18    0.2500   -0.4167   -0.4167
    19   -0.2500    0.4167   -0.4167    20   -0.2500   -0.4167    0.4167
    21   -0.4167   -0.4167   -0.2500    22   -0.4167    0.4167    0.2500
    23    0.4167   -0.4167    0.2500    24    0.4167    0.4167   -0.2500
    25   -0.4167   -0.2500   -0.4167    26   -0.4167    0.2500    0.4167
    27    0.4167   -0.2500    0.4167    28    0.4167    0.2500   -0.4167
    29   -0.2500   -0.4167   -0.4167    30   -0.2500    0.4167    0.4167
    31    0.2500   -0.4167    0.4167    32    0.2500    0.4167   -0.4167
    33    0.4167    0.4167    0.0833    34    0.4167   -0.4167   -0.0833
    35   -0.4167    0.4167   -0.0833    36   -0.4167   -0.4167    0.0833
    37    0.4167    0.0833    0.4167    38    0.4167   -0.0833   -0.4167
    39   -0.4167    0.0833   -0.4167    40   -0.4167   -0.0833    0.4167
    41    0.0833    0.4167    0.4167    42    0.0833   -0.4167   -0.4167
    43   -0.0833    0.4167   -0.4167    44   -0.0833   -0.4167    0.4167
    45   -0.4167   -0.4167   -0.0833    46   -0.4167    0.4167    0.0833
    47    0.4167   -0.4167    0.0833    48    0.4167    0.4167   -0.0833
    49   -0.4167   -0.0833   -0.4167    50   -0.4167    0.0833    0.4167
    51    0.4167   -0.0833    0.4167    52    0.4167    0.0833   -0.4167
    53   -0.0833   -0.4167   -0.4167    54   -0.0833    0.4167    0.4167
    55    0.0833   -0.4167    0.4167    56    0.0833    0.4167   -0.4167
    57    0.4167    0.2500    0.2500    58    0.4167   -0.2500   -0.2500
    59   -0.4167    0.2500   -0.2500    60   -0.4167   -0.2500    0.2500
    61    0.2500    0.2500    0.4167    62    0.2500   -0.2500   -0.4167
    63   -0.2500    0.2500   -0.4167    64   -0.2500   -0.2500    0.4167
    65    0.2500    0.4167    0.2500    66    0.2500   -0.4167   -0.2500
    67   -0.2500    0.4167   -0.2500    68   -0.2500   -0.4167    0.2500
    69   -0.2500   -0.4167   -0.2500    70   -0.2500    0.4167    0.2500
    71    0.2500   -0.4167    0.2500    72    0.2500    0.4167   -0.2500
    73   -0.4167   -0.2500   -0.2500    74   -0.4167    0.2500    0.2500
    75    0.4167   -0.2500    0.2500    76    0.4167    0.2500   -0.2500
    77   -0.2500   -0.2500   -0.4167    78   -0.2500    0.2500    0.4167
    79    0.2500   -0.2500    0.4167    80    0.2500    0.2500   -0.4167
    81    0.4167    0.2500    0.0833    82    0.4167   -0.2500   -0.0833
    83   -0.4167    0.2500   -0.0833    84   -0.4167   -0.2500    0.0833
    85    0.2500    0.0833    0.4167    86    0.2500   -0.0833   -0.4167
    87   -0.2500    0.0833   -0.4167    88   -0.2500   -0.0833    0.4167
    89    0.0833    0.4167    0.2500    90    0.0833   -0.4167   -0.2500
    91   -0.0833    0.4167   -0.2500    92   -0.0833   -0.4167    0.2500
    93   -0.2500   -0.4167   -0.0833    94   -0.2500    0.4167    0.0833
    95    0.2500   -0.4167    0.0833    96    0.2500    0.4167   -0.0833
    97   -0.4167   -0.0833   -0.2500    98   -0.4167    0.0833    0.2500
    99    0.4167   -0.0833    0.2500   100    0.4167    0.0833   -0.2500
   101   -0.0833   -0.2500   -0.4167   102   -0.0833    0.2500    0.4167
   103    0.0833   -0.2500    0.4167   104    0.0833    0.2500   -0.4167
   105   -0.4167   -0.2500   -0.0833   106   -0.4167    0.2500    0.0833
   107    0.4167   -0.2500    0.0833   108    0.4167    0.2500   -0.0833
   109   -0.2500   -0.0833   -0.4167   110   -0.2500    0.0833    0.4167
   111    0.2500   -0.0833    0.4167   112    0.2500    0.0833   -0.4167
   113   -0.0833   -0.4167   -0.2500   114   -0.0833    0.4167    0.2500
   115    0.0833   -0.4167    0.2500   116    0.0833    0.4167   -0.2500
   117    0.2500    0.4167    0.0833   118    0.2500   -0.4167   -0.0833
   119   -0.2500    0.4167   -0.0833   120   -0.2500   -0.4167    0.0833
   121    0.4167    0.0833    0.2500   122    0.4167   -0.0833   -0.2500
   123   -0.4167    0.0833   -0.2500   124   -0.4167   -0.0833    0.2500
   125    0.0833    0.2500    0.4167   126    0.0833   -0.2500   -0.4167
   127   -0.0833    0.2500   -0.4167   128   -0.0833   -0.2500    0.4167
   129    0.4167    0.0833    0.0833   130    0.4167   -0.0833   -0.0833
   131   -0.4167    0.0833   -0.0833   132   -0.4167   -0.0833    0.0833
   133    0.0833    0.0833    0.4167   134    0.0833   -0.0833   -0.4167
   135   -0.0833    0.0833   -0.4167   136   -0.0833   -0.0833    0.4167
   137    0.0833    0.4167    0.0833   138    0.0833   -0.4167   -0.0833
   139   -0.0833    0.4167   -0.0833   140   -0.0833   -0.4167    0.0833
   141   -0.0833   -0.4167   -0.0833   142   -0.0833    0.4167    0.0833
   143    0.0833   -0.4167    0.0833   144    0.0833    0.4167   -0.0833
   145   -0.4167   -0.0833   -0.0833   146   -0.4167    0.0833    0.0833
   147    0.4167   -0.0833    0.0833   148    0.4167    0.0833   -0.0833
   149   -0.0833   -0.0833   -0.4167   150   -0.0833    0.0833    0.4167
   151    0.0833   -0.0833    0.4167   152    0.0833    0.0833   -0.4167
   153    0.2500    0.2500    0.2500   154    0.2500   -0.2500   -0.2500
   155   -0.2500    0.2500   -0.2500   156   -0.2500   -0.2500    0.2500
   157   -0.2500   -0.2500   -0.2500   158   -0.2500    0.2500    0.2500
   159    0.2500   -0.2500    0.2500   160    0.2500    0.2500   -0.2500
   161    0.2500    0.2500    0.0833   162    0.2500   -0.2500   -0.0833
   163   -0.2500    0.2500   -0.0833   164   -0.2500   -0.2500    0.0833
   165    0.2500    0.0833    0.2500   166    0.2500   -0.0833   -0.2500
   167   -0.2500    0.0833   -0.2500   168   -0.2500   -0.0833    0.2500
   169    0.0833    0.2500    0.2500   170    0.0833   -0.2500   -0.2500
   171   -0.0833    0.2500   -0.2500   172   -0.0833   -0.2500    0.2500
   173   -0.2500   -0.2500   -0.0833   174   -0.2500    0.2500    0.0833
   175    0.2500   -0.2500    0.0833   176    0.2500    0.2500   -0.0833
   177   -0.2500   -0.0833   -0.2500   178   -0.2500    0.0833    0.2500
   179    0.2500   -0.0833    0.2500   180    0.2500    0.0833   -0.2500
   181   -0.0833   -0.2500   -0.2500   182   -0.0833    0.2500    0.2500
   183    0.0833   -0.2500    0.2500   184    0.0833    0.2500   -0.2500
   185    0.2500    0.0833    0.0833   186    0.2500   -0.0833   -0.0833
   187   -0.2500    0.0833   -0.0833   188   -0.2500   -0.0833    0.0833
   189    0.0833    0.0833    0.2500   190    0.0833   -0.0833   -0.2500
   191   -0.0833    0.0833   -0.2500   192   -0.0833   -0.0833    0.2500
   193    0.0833    0.2500    0.0833   194    0.0833   -0.2500   -0.0833
   195   -0.0833    0.2500   -0.0833   196   -0.0833   -0.2500    0.0833
   197   -0.0833   -0.2500   -0.0833   198   -0.0833    0.2500    0.0833
   199    0.0833   -0.2500    0.0833   200    0.0833    0.2500   -0.0833
   201   -0.2500   -0.0833   -0.0833   202   -0.2500    0.0833    0.0833
   203    0.2500   -0.0833    0.0833   204    0.2500    0.0833   -0.0833
   205   -0.0833   -0.0833   -0.2500   206   -0.0833    0.0833    0.2500
   207    0.0833   -0.0833    0.2500   208    0.0833    0.0833   -0.2500
   209    0.0833    0.0833    0.0833   210    0.0833   -0.0833   -0.0833
   211   -0.0833    0.0833   -0.0833   212   -0.0833   -0.0833    0.0833
   213   -0.0833   -0.0833   -0.0833   214   -0.0833    0.0833    0.0833
   215    0.0833   -0.0833    0.0833   216    0.0833    0.0833   -0.0833


 KPSYM|    CROSS TABLE RELATING MESH POINTS WITH SPECIAL POINTS:
    IK -> SK    IK -> SK    IK -> SK    IK -> SK    IK -> SK
     1     1     2     1     3     1     4     1     5     1
     6     1     7     1     8     1     9     2    10     2
    11     2    12     2    13     2    14     2    15     2
    16     2    17     2    18     2    19     2    20     2
    21     2    22     2    23     2    24     2    25     2
    26     2    27     2    28     2    29     2    30     2
    31     2    32     2    33     3    34     3    35     3
    36     3    37     3    38     3    39     3    40     3
    41     3    42     3    43     3    44     3    45     3
    46     3    47     3    48     3    49     3    50     3
    51     3    52     3    53     3    54     3    55     3
    56     3    57     4    58     4    59     4    60     4
    61     4    62     4    63     4    64     4    65     4
    66     4    67     4    68     4    69     4    70     4
    71     4    72     4    73     4    74     4    75     4
    76     4    77     4    78     4    79     4    80     4
    81     5    82     5    83     5    84     5    85     5
    86     5    87     5    88     5    89     5    90     5
    91     5    92     5    93     5    94     5    95     5
    96     5    97     5    98     5    99     5   100     5
   101     5   102     5   103     5   104     5   105     5
   106     5   107     5   108     5   109     5   110     5
   111     5   112     5   113     5   114     5   115     5
   116     5   117     5   118     5   119     5   120     5
   121     5   122     5   123     5   124     5   125     5
   126     5   127     5   128     5   129     6   130     6
   131     6   132     6   133     6   134     6   135     6
   136     6   137     6   138     6   139     6   140     6
   141     6   142     6   143     6   144     6   145     6
   146     6   147     6   148     6   149     6   150     6
   151     6   152     6   153     7   154     7   155     7
   156     7   157     7   158     7   159     7   160     7
   161     8   162     8   163     8   164     8   165     8
   166     8   167     8   168     8   169     8   170     8
   171     8   172     8   173     8   174     8   175     8
   176     8   177     8   178     8   179     8   180     8
   181     8   182     8   183     8   184     8   185     9
   186     9   187     9   188     9   189     9   190     9
   191     9   192     9   193     9   194     9   195     9
   196     9   197     9   198     9   199     9   200     9
   201     9   202     9   203     9   204     9   205     9
   206     9   207     9   208     9   209    10   210    10
   211    10   212    10   213    10   214    10   215    10
   216    10

 KPSYM|    10 SPECIAL POINTS GENERATED
        WAVEVECTOR K            WEIGHT    UNFOLDING ROTATIONS
     1  0.4167  0.4167  0.4167       8     1 -1  2 -2  3 -3  4 -4
     2  0.4167  0.4167  0.2500      24     1 -1  2 -2  3 -3  4 -4  5 -5  6 -6
                                           7 -7  8 -8  9 -9 10-10 11-11 12-12
     3  0.4167  0.4167  0.0833      24     1 -1  2 -2  3 -3  4 -4  5 -5  6 -6
                                           7 -7  8 -8  9 -9 10-10 11-11 12-12
     4  0.4167  0.2500  0.2500      24     1 -1  2 -2  3 -3  4 -4  5 -5  6 -6
                                           7 -7  8 -8  9 -9 10-10 11-11 12-12
     5  0.4167  0.2500  0.0833      48     1 -1  2 -2  3 -3  4 -4  5 -5  6 -6
                                           7 -7  8 -8  9 -9 10-10 11-11 12-12
                                          37-37 38-38 39-39 40-40 41-41 42-42
                                          43-43 44-44 45-45 46-46 47-47 48-48
     6  0.4167  0.0833  0.0833      24     1 -1  2 -2  3 -3  4 -4  5 -5  6 -6
                                           7 -7  8 -8  9 -9 10-10 11-11 12-12
     7  0.2500  0.2500  0.2500       8     1 -1  2 -2  3 -3  4 -4
     8  0.2500  0.2500  0.0833      24     1 -1  2 -2  3 -3  4 -4  5 -5  6 -6
                                           7 -7  8 -8  9 -9 10-10 11-11 12-12
     9  0.2500  0.0833  0.0833      24     1 -1  2 -2  3 -3  4 -4  5 -5  6 -6
                                           7 -7  8 -8  9 -9 10-10 11-11 12-12
    10  0.0833  0.0833  0.0833       8     1 -1  2 -2  3 -3  4 -4
                        TOTAL:     216
 *******************************************************************************
 **                              Finished K290                                **
 *******************************************************************************

 Crystal Symmetry Information
       International Symbol:                                               P-43m
       Point Group Symbol:                                                  -43m
       Schoenflies Symbol:                                                  Td^1
       Number of Symmetry Operations:                                         24

 K-point Symmetry Information
       Number of Special K-points:                                            10
                   Wavevector Basis                                       Weight
          1  -0.41667  -0.41667  -0.41667                                      8
          2  -0.41667  -0.41667  -0.25000                                     24
          3  -0.41667  -0.41667  -0.08333                                     24
          4  -0.41667  -0.25000  -0.25000                                     24
          5  -0.41667  -0.25000  -0.08333                                     48
          6  -0.41667  -0.08333  -0.08333                                     24
          7  -0.25000  -0.25000  -0.25000                                      8
          8  -0.25000  -0.25000  -0.08333                                     24
          9  -0.25000  -0.08333  -0.08333                                     24
         10  -0.08333  -0.08333  -0.08333                                      8

       K-point Mesh:                                               6     6     6
                   Wavevector Basis                   Special Points    Rotation
          1  -0.41667  -0.41667  -0.41667              1           1           1
          2  -0.41667  -0.41667  -0.25000              2           2           1
          3  -0.41667  -0.41667  -0.08333              3           3           1
          4  -0.41667  -0.41667   0.08333              3           3          -4
          5  -0.41667  -0.41667   0.25000              2           2          -4
          6  -0.41667  -0.41667   0.41667              1           1          -4
          7  -0.41667  -0.25000  -0.41667              2           2           5
          8  -0.41667  -0.25000  -0.25000              8           4           1
          9  -0.41667  -0.25000  -0.08333              9           5           1
         10  -0.41667  -0.25000   0.08333              9           5          -4
         11  -0.41667  -0.25000   0.25000              8           4          -4
         12  -0.41667  -0.25000   0.41667              2           2          -8
         13  -0.41667  -0.08333  -0.41667              3           3           5
         14  -0.41667  -0.08333  -0.25000              9           5          41
         15  -0.41667  -0.08333  -0.08333             15           6           1
         16  -0.41667  -0.08333   0.08333             15           6          -4
         17  -0.41667  -0.08333   0.25000              9           5         -44
         18  -0.41667  -0.08333   0.41667              3           3          -8
         19  -0.41667   0.08333  -0.41667              3           3          -7
         20  -0.41667   0.08333  -0.25000              9           5         -43
         21  -0.41667   0.08333  -0.08333             15           6          -3
         22  -0.41667   0.08333   0.08333             15           6           2
         23  -0.41667   0.08333   0.25000              9           5          42
         24  -0.41667   0.08333   0.41667              3           3           6
         25  -0.41667   0.25000  -0.41667              2           2          -7
         26  -0.41667   0.25000  -0.25000              8           4          -3
         27  -0.41667   0.25000  -0.08333              9           5          -3
         28  -0.41667   0.25000   0.08333              9           5           2
         29  -0.41667   0.25000   0.25000              8           4           2
         30  -0.41667   0.25000   0.41667              2           2           6
         31  -0.41667   0.41667  -0.41667              1           1          -3
         32  -0.41667   0.41667  -0.25000              2           2          -3
         33  -0.41667   0.41667  -0.08333              3           3          -3
         34  -0.41667   0.41667   0.08333              3           3           2
         35  -0.41667   0.41667   0.25000              2           2           2
         36  -0.41667   0.41667   0.41667              1           1           2
         37  -0.25000  -0.41667  -0.41667              2           2           9
         38  -0.25000  -0.41667  -0.25000              8           4           9
         39  -0.25000  -0.41667  -0.08333              9           5          37
         40  -0.25000  -0.41667   0.08333              9           5         -40
         41  -0.25000  -0.41667   0.25000              8           4         -12
         42  -0.25000  -0.41667   0.41667              2           2         -12
         43  -0.25000  -0.25000  -0.41667              8           4           5
         44  -0.25000  -0.25000  -0.25000             44           7           1
         45  -0.25000  -0.25000  -0.08333             45           8           1
         46  -0.25000  -0.25000   0.08333             45           8          -4
         47  -0.25000  -0.25000   0.25000             44           7          -4
         48  -0.25000  -0.25000   0.41667              8           4          -8
         49  -0.25000  -0.08333  -0.41667              9           5           5
         50  -0.25000  -0.08333  -0.25000             45           8           5
         51  -0.25000  -0.08333  -0.08333             51           9           1
         52  -0.25000  -0.08333   0.08333             51           9          -4
         53  -0.25000  -0.08333   0.25000             45           8          -8
         54  -0.25000  -0.08333   0.41667              9           5          -8
         55  -0.25000   0.08333  -0.41667              9           5          -7
         56  -0.25000   0.08333  -0.25000             45           8          -7
         57  -0.25000   0.08333  -0.08333             51           9          -3
         58  -0.25000   0.08333   0.08333             51           9           2
         59  -0.25000   0.08333   0.25000             45           8           6
         60  -0.25000   0.08333   0.41667              9           5           6
         61  -0.25000   0.25000  -0.41667              8           4          -7
         62  -0.25000   0.25000  -0.25000             44           7          -3
         63  -0.25000   0.25000  -0.08333             45           8          -3
         64  -0.25000   0.25000   0.08333             45           8           2
         65  -0.25000   0.25000   0.25000             44           7           2
         66  -0.25000   0.25000   0.41667              8           4           6
         67  -0.25000   0.41667  -0.41667              2           2         -11
         68  -0.25000   0.41667  -0.25000              8           4         -11
         69  -0.25000   0.41667  -0.08333              9           5         -39
         70  -0.25000   0.41667   0.08333              9           5          38
         71  -0.25000   0.41667   0.25000              8           4          10
         72  -0.25000   0.41667   0.41667              2           2          10
         73  -0.08333  -0.41667  -0.41667              3           3           9
         74  -0.08333  -0.41667  -0.25000              9           5           9
         75  -0.08333  -0.41667  -0.08333             15           6           9
         76  -0.08333  -0.41667   0.08333             15           6         -12
         77  -0.08333  -0.41667   0.25000              9           5         -12
         78  -0.08333  -0.41667   0.41667              3           3         -12
         79  -0.08333  -0.25000  -0.41667              9           5          45
         80  -0.08333  -0.25000  -0.25000             45           8           9
         81  -0.08333  -0.25000  -0.08333             51           9           9
         82  -0.08333  -0.25000   0.08333             51           9         -12
         83  -0.08333  -0.25000   0.25000             45           8         -12
         84  -0.08333  -0.25000   0.41667              9           5         -48
         85  -0.08333  -0.08333  -0.41667             15           6           5
         86  -0.08333  -0.08333  -0.25000             51           9           5
         87  -0.08333  -0.08333  -0.08333             87          10           1
         88  -0.08333  -0.08333   0.08333             87          10          -4
         89  -0.08333  -0.08333   0.25000             51           9          -8
         90  -0.08333  -0.08333   0.41667             15           6          -8
         91  -0.08333   0.08333  -0.41667             15           6          -7
         92  -0.08333   0.08333  -0.25000             51           9          -7
         93  -0.08333   0.08333  -0.08333             87          10          -3
         94  -0.08333   0.08333   0.08333             87          10           2
         95  -0.08333   0.08333   0.25000             51           9           6
         96  -0.08333   0.08333   0.41667             15           6           6
         97  -0.08333   0.25000  -0.41667              9           5         -47
         98  -0.08333   0.25000  -0.25000             45           8         -11
         99  -0.08333   0.25000  -0.08333             51           9         -11
        100  -0.08333   0.25000   0.08333             51           9          10
        101  -0.08333   0.25000   0.25000             45           8          10
        102  -0.08333   0.25000   0.41667              9           5          46
        103  -0.08333   0.41667  -0.41667              3           3         -11
        104  -0.08333   0.41667  -0.25000              9           5         -11
        105  -0.08333   0.41667  -0.08333             15           6         -11
        106  -0.08333   0.41667   0.08333             15           6          10
        107  -0.08333   0.41667   0.25000              9           5          10
        108  -0.08333   0.41667   0.41667              3           3          10
        109   0.08333  -0.41667  -0.41667              3           3         -10
        110   0.08333  -0.41667  -0.25000              9           5         -10
        111   0.08333  -0.41667  -0.08333             15           6         -10
        112   0.08333  -0.41667   0.08333             15           6          11
        113   0.08333  -0.41667   0.25000              9           5          11
        114   0.08333  -0.41667   0.41667              3           3          11
        115   0.08333  -0.25000  -0.41667              9           5         -46
        116   0.08333  -0.25000  -0.25000             45           8         -10
        117   0.08333  -0.25000  -0.08333             51           9         -10
        118   0.08333  -0.25000   0.08333             51           9          11
        119   0.08333  -0.25000   0.25000             45           8          11
        120   0.08333  -0.25000   0.41667              9           5          47
        121   0.08333  -0.08333  -0.41667             15           6          -6
        122   0.08333  -0.08333  -0.25000             51           9          -6
        123   0.08333  -0.08333  -0.08333             87          10          -2
        124   0.08333  -0.08333   0.08333             87          10           3
        125   0.08333  -0.08333   0.25000             51           9           7
        126   0.08333  -0.08333   0.41667             15           6           7
        127   0.08333   0.08333  -0.41667             15           6           8
        128   0.08333   0.08333  -0.25000             51           9           8
        129   0.08333   0.08333  -0.08333             87          10           4
        130   0.08333   0.08333   0.08333             87          10          -1
        131   0.08333   0.08333   0.25000             51           9          -5
        132   0.08333   0.08333   0.41667             15           6          -5
        133   0.08333   0.25000  -0.41667              9           5          48
        134   0.08333   0.25000  -0.25000             45           8          12
        135   0.08333   0.25000  -0.08333             51           9          12
        136   0.08333   0.25000   0.08333             51           9          -9
        137   0.08333   0.25000   0.25000             45           8          -9
        138   0.08333   0.25000   0.41667              9           5         -45
        139   0.08333   0.41667  -0.41667              3           3          12
        140   0.08333   0.41667  -0.25000              9           5          12
        141   0.08333   0.41667  -0.08333             15           6          12
        142   0.08333   0.41667   0.08333             15           6          -9
        143   0.08333   0.41667   0.25000              9           5          -9
        144   0.08333   0.41667   0.41667              3           3          -9
        145   0.25000  -0.41667  -0.41667              2           2         -10
        146   0.25000  -0.41667  -0.25000              8           4         -10
        147   0.25000  -0.41667  -0.08333              9           5         -38
        148   0.25000  -0.41667   0.08333              9           5          39
        149   0.25000  -0.41667   0.25000              8           4          11
        150   0.25000  -0.41667   0.41667              2           2          11
        151   0.25000  -0.25000  -0.41667              8           4          -6
        152   0.25000  -0.25000  -0.25000             44           7          -2
        153   0.25000  -0.25000  -0.08333             45           8          -2
        154   0.25000  -0.25000   0.08333             45           8           3
        155   0.25000  -0.25000   0.25000             44           7           3
        156   0.25000  -0.25000   0.41667              8           4           7
        157   0.25000  -0.08333  -0.41667              9           5          -6
        158   0.25000  -0.08333  -0.25000             45           8          -6
        159   0.25000  -0.08333  -0.08333             51           9          -2
        160   0.25000  -0.08333   0.08333             51           9           3
        161   0.25000  -0.08333   0.25000             45           8           7
        162   0.25000  -0.08333   0.41667              9           5           7
        163   0.25000   0.08333  -0.41667              9           5           8
        164   0.25000   0.08333  -0.25000             45           8           8
        165   0.25000   0.08333  -0.08333             51           9           4
        166   0.25000   0.08333   0.08333             51           9          -1
        167   0.25000   0.08333   0.25000             45           8          -5
        168   0.25000   0.08333   0.41667              9           5          -5
        169   0.25000   0.25000  -0.41667              8           4           8
        170   0.25000   0.25000  -0.25000             44           7           4
        171   0.25000   0.25000  -0.08333             45           8           4
        172   0.25000   0.25000   0.08333             45           8          -1
        173   0.25000   0.25000   0.25000             44           7          -1
        174   0.25000   0.25000   0.41667              8           4          -5
        175   0.25000   0.41667  -0.41667              2           2          12
        176   0.25000   0.41667  -0.25000              8           4          12
        177   0.25000   0.41667  -0.08333              9           5          40
        178   0.25000   0.41667   0.08333              9           5         -37
        179   0.25000   0.41667   0.25000              8           4          -9
        180   0.25000   0.41667   0.41667              2           2          -9
        181   0.41667  -0.41667  -0.41667              1           1          -2
        182   0.41667  -0.41667  -0.25000              2           2          -2
        183   0.41667  -0.41667  -0.08333              3           3          -2
        184   0.41667  -0.41667   0.08333              3           3           3
        185   0.41667  -0.41667   0.25000              2           2           3
        186   0.41667  -0.41667   0.41667              1           1           3
        187   0.41667  -0.25000  -0.41667              2           2          -6
        188   0.41667  -0.25000  -0.25000              8           4          -2
        189   0.41667  -0.25000  -0.08333              9           5          -2
        190   0.41667  -0.25000   0.08333              9           5           3
        191   0.41667  -0.25000   0.25000              8           4           3
        192   0.41667  -0.25000   0.41667              2           2           7
        193   0.41667  -0.08333  -0.41667              3           3          -6
        194   0.41667  -0.08333  -0.25000              9           5         -42
        195   0.41667  -0.08333  -0.08333             15           6          -2
        196   0.41667  -0.08333   0.08333             15           6           3
        197   0.41667  -0.08333   0.25000              9           5          43
        198   0.41667  -0.08333   0.41667              3           3           7
        199   0.41667   0.08333  -0.41667              3           3           8
        200   0.41667   0.08333  -0.25000              9           5          44
        201   0.41667   0.08333  -0.08333             15           6           4
        202   0.41667   0.08333   0.08333             15           6          -1
        203   0.41667   0.08333   0.25000              9           5         -41
        204   0.41667   0.08333   0.41667              3           3          -5
        205   0.41667   0.25000  -0.41667              2           2           8
        206   0.41667   0.25000  -0.25000              8           4           4
        207   0.41667   0.25000  -0.08333              9           5           4
        208   0.41667   0.25000   0.08333              9           5          -1
        209   0.41667   0.25000   0.25000              8           4          -1
        210   0.41667   0.25000   0.41667              2           2          -5
        211   0.41667   0.41667  -0.41667              1           1           4
        212   0.41667   0.41667  -0.25000              2           2           4
        213   0.41667   0.41667  -0.08333              3           3           4
        214   0.41667   0.41667   0.08333              3           3          -1
        215   0.41667   0.41667   0.25000              2           2          -1
        216   0.41667   0.41667   0.41667              1           1          -1

       Atom Transformation Table
          Rot=    1     1    2    3    4    5
          Rot=    2     1    3    2    5    4
          Rot=    3     1    4    5    2    3
          Rot=    4     1    5    4    3    2
          Rot=    5     1    2    5    3    4
          Rot=    6     1    3    4    2    5
          Rot=    7     1    4    3    5    2
          Rot=    8     1    5    2    4    3
          Rot=    9     1    2    4    5    3
          Rot=   10     1    3    5    4    2
          Rot=   11     1    4    2    3    5
          Rot=   12     1    5    3    2    4
          Rot=   37     1    2    4    3    5
          Rot=   38     1    3    5    2    4
          Rot=   39     1    4    2    5    3
          Rot=   40     1    5    3    4    2
          Rot=   41     1    2    3    5    4
          Rot=   42     1    3    2    4    5
          Rot=   43     1    4    5    3    2
          Rot=   44     1    5    4    2    3
          Rot=   45     1    2    5    4    3
          Rot=   46     1    3    4    5    2
          Rot=   47     1    4    3    2    5
          Rot=   48     1    5    2    3    4

 *******************************************************************************
                                    Kpoints
 *******************************************************************************
 BRILLOUIN| K-point scheme                                        Monkhorst-Pack
 BRILLOUIN| K-Point grid                                             6    6    6
 BRILLOUIN| K-point symmetry accuracy                               0.100000E-07
 BRILLOUIN| K-Point point group symmetrization                                ON
 BRILLOUIN| Symmetry backend                                               K290
 BRILLOUIN| Symmetry reduction method                                      K290
 BRILLOUIN| Wavefunction type                                            COMPLEX
 BRILLOUIN| List of Kpoints [2 Pi/Bohr]                                       10
 BRILLOUIN| Number           Weight            X              Y              Z
 BRILLOUIN|     1           0.03704       -0.41667       -0.41667       -0.41667
 BRILLOUIN|     2           0.11111       -0.41667       -0.41667       -0.25000
 BRILLOUIN|     3           0.11111       -0.41667       -0.41667       -0.08333
 BRILLOUIN|     4           0.11111       -0.41667       -0.25000       -0.25000
 BRILLOUIN|     5           0.22222       -0.41667       -0.25000       -0.08333
 BRILLOUIN|     6           0.11111       -0.41667       -0.08333       -0.08333
 BRILLOUIN|     7           0.03704       -0.25000       -0.25000       -0.25000
 BRILLOUIN|     8           0.11111       -0.25000       -0.25000       -0.08333
 BRILLOUIN|     9           0.11111       -0.25000       -0.08333       -0.08333
 BRILLOUIN|    10           0.03704       -0.08333       -0.08333       -0.08333
 *******************************************************************************

 Extrapolation method: initial_guess

 Number of electrons:                                                          8
 Number of occupied orbitals:                                                  4
 Number of molecular orbitals:                                                 8

 Number of orbital functions:                                                  8
 Number of independent orbital functions:                                      8


 SCF WAVEFUNCTION OPTIMIZATION

  Step     Update method      Time    Convergence         Total energy    Change
  ------------------------------------------------------------------------------
 GXTB-SYMMETRY-FUSED-OVERLAP-COVARIANCE maxResidual=  8.882858E-16 maxAdjointResidual=  1.065613E-15 tolerance=  1.000000E-10
 GXTB-SYMMETRY-FUSED nred=10, nfull=216, requestedBatch=8, effectiveBatch=8, cachedRepresentativeOverlaps=10, persistentFullExchangeStarMatrices=0
 GXTB-MIXER-STAR-STREAMED denseFullComplexAvoided=13824, peakComplex=192, covariance=  5.716172E-17, roundtrip=  6.661338E-16
 GXTB-SYMMETRY-FUSED nred=10, nfull=216, requestedBatch=8, effectiveBatch=8, cachedRepresentativeOverlaps=10, persistentFullExchangeStarMatrices=0
     1 GXTB-Raw    0.10E+01   46.3     0.54061414       -40.4418582981 -4.04E+01
     2 GXTB-Simple 0.20E+00    0.8     0.04966823       -40.4549713285 -1.31E-02
     3 GXTB-Simple 0.20E+00    0.8     0.03454644       -40.4615420495 -6.57E-03
     4 GXTB-FDIIS  0.10E+01    0.8     0.05595321       -40.4671816398 -5.64E-03
     5 GXTB-FDIIS  0.10E+01    0.8     0.03572787       -40.4685333874 -1.35E-03
     6 GXTB-FDIIS  0.10E+01    0.8     0.00209286       -40.4685329312  4.56E-07
     7 GXTB-FDIIS  0.10E+01    0.8     0.00109189       -40.4685342014 -1.27E-06
     8 GXTB-FDIIS  0.10E+01    0.8     0.00003810       -40.4685342036 -2.16E-09
     9 GXTB-FDIIS  0.10E+01    0.8     0.00000851       -40.4685342037 -7.60E-11
    10 GXTB-FDIIS  0.10E+01    0.8     0.00000009       -40.4685342037 -7.11E-15
    11 GXTB-FDIIS  0.10E+01    0.8     7.1114E-11       -40.4685342037 -7.11E-15

  *** SCF run converged in    11 steps ***


  Core Hamiltonian energy:                                     -3.06810214126279
  Repulsive potential energy:                                   0.37445740804946
  Electrostatic energy:                                         0.01420612097240
  Self-consistent dispersion energy:                           -0.00114279589946
  Non-self consistent dispersion energy:                        0.00003895111946
  Correction for halogen bonding:                               0.00000000000000

  Total energy:                                               -40.46853420367020


 MULLIKEN POPULATION ANALYSIS

  # Atom   Element   Kind        Atomic population                    Net charge
       1     C          1                 4.271933                     -0.271933
       2     H          2                 0.932017                      0.067983
       3     H          2                 0.932017                      0.067983
       4     H          2                 0.932017                      0.067983
       5     H          2                 0.932017                      0.067983
 # Total charge                           8.000000                     -0.000000


 ENERGY| Total FORCE_EVAL ( QS ) energy [hartree]            -40.468534203670202

 -------------------------------------------------------------------------------
 -                                                                             -
 -                                DBCSR STATISTICS                             -
 -                                                                             -
 -------------------------------------------------------------------------------
 COUNTER                                    TOTAL       BLAS       SMM       ACC
 flops inhomo. stacks                           0       0.0%      0.0%      0.0%
 flops total                         0.000000E+00       0.0%      0.0%      0.0%
 flops max/rank                      0.000000E+00       0.0%      0.0%      0.0%
 matmuls inhomo. stacks                         0       0.0%      0.0%      0.0%
 matmuls total                                  0       0.0%      0.0%      0.0%
 number of processed stacks                     0       0.0%      0.0%      0.0%
 average stack size                                     0.0       0.0       0.0
 marketing flops                     0.000000E+00
 -------------------------------------------------------------------------------
 -                                                                             -
 -                      DBCSR MESSAGE PASSING PERFORMANCE                      -
 -                                                                             -
 -------------------------------------------------------------------------------
 ROUTINE             CALLS      AVE VOLUME [Bytes]
 MP_Bcast                1                     12.
 MP_Allreduce           19                     21.
 MP_Alltoall          9360                    572.
 -------------------------------------------------------------------------------

 -------------------------------------------------------------------------------
 -                                                                             -
 -                          OFFLOAD MEMPOOL STATISTICS                         -
 -                                                                             -
 -------------------------------------------------------------------------------
 Memory consumption                Number of allocations  Used [MiB]  Size [MiB]
 Host                                                  1           0           0
 -------------------------------------------------------------------------------

 MEMORY| Estimated peak process memory [MiB]                                1028

 -------------------------------------------------------------------------------
 ----                             MULTIGRID INFO                            ----
 -------------------------------------------------------------------------------
 total grid count     :           420              cutoff [a.u.]            1.00

 -------------------------------------------------------------------------------
 -                                                                             -
 -                         MESSAGE PASSING PERFORMANCE                         -
 -                                                                             -
 -------------------------------------------------------------------------------

 ROUTINE             CALLS      AVE VOLUME [Bytes]
 MP_Group                1
 MP_Bcast             9371                      7.
 MP_Allreduce       115591                     51.
 MP_Sync                 1
 MP_Wait              7800
 MP_ISend            10920                     79.
 MP_IRecv            10920                     79.
 -------------------------------------------------------------------------------


 -------------------------------------------------------------------------------
 -                                                                             -
 -                           R E F E R E N C E S                               -
 -                                                                             -
 -------------------------------------------------------------------------------
 
 CP2K version 2026.2 (Development Version), the CP2K developers group (2026).
 CP2K is freely available from https://www.cp2k.org/ .
 
 M. Iannuzzi, J. Wilhelm, F. Stein, A. Bussy, H. Elgabarty, D. Golze, A. Hehn, 
 M. Graml, S. Marek, B. Sertcan Gökmen, C. Schran, H. Forbert, R. Z. 
 Khaliullin, A. Kozhevnikov, M. Taillefumier, R. Meli, V. V. Rybkin, M. Brehm, 
 R. Schade, O. Schütt, J. V. Pototschnig, H. Mirhosseini, A. Knüpfer, D. Marx, 
 M. Krack, J. Hutter, T. D. Kühne.
 J. Phys. Chem. B 130, 1237-1310 (2026).
 The CP2K Program Package Made Simple.
 https://doi.org/10.1021/acs.jpcb.5c05851

 A. Katbashev, M. Stahn, T. Rose, V. Alizadeh, M. Friede, C. Plett, P. 
 Steinbach, S. Ehlert.
 J. Phys. Chem. A 129, 2667-2682 (2025).
 Overview on Building Blocks and Applications of Efficient and Robust Extended 
 Tight Binding.
 https://doi.org/10.1021/acs.jpca.4c08263

 T. D. Kühne, M. Iannuzzi, M. Del Ben, V. V. Rybkin, P. Seewald, F. Stein, T. 
 Laino, R. Z. Khaliullin, O. Schütt, F. Schiffmann, D. Golze, J. Wilhelm, S. 
 Chulkov, M. H. Bani-Hashemian, V. Weber, U. Borstnik, M. Taillefumier, A. S. 
 Jakobovits, A. Lazzaro, H. Pabst, T. Müller, R. Schade, M. Guidon, S. 
 Andermatt, N. Holmberg, G. K. Schenter, A. Hehn, A. Bussy, F. Belleflamme, G. 
 Tabacchi, A. Glöß, M. Lass, I. Bethune, C. J. Mundy, C. Plessl, M. Watkins, 
 J. VandeVondele, M. Krack, J. Hutter.
 J. Chem. Phys. 152, 194103 (2020).
 CP2K: An electronic structure and molecular dynamics software package - 
 Quickstep: Efficient and accurate electronic structure calculations.
 https://doi.org/10.1063/5.0007045

 P. Pracht, E. Caldeweyher, S. Ehlert, S. Grimme.
 ChemRxiv, (2019).
 A Robust Non-Self-Consistent Tight-Binding Quantum Chemistry Method for large 
 Molecules.
 https://doi.org/10.26434/chemrxiv.8326202.v1

 A. Togo, I. Tanaka.
 arXiv, 1808.01590 (2018).
 Spglib : a software library for crystal symmetry search.

 S. Grimme, C. Bannwarth, P. Shushkov.
 J. Chem. Theory Comput. 13, 1989 (2017).
 A Robust and Accurate Tight-Binding Quantum Chemical Method for Structures, 
 Vibrational Frequencies, and Noncovalent Interactions of Large Molecular 
 Systems Parametrized for All spd-Block Elements (Z = 1-86).
 https://doi.org/10.1021/acs.jctc.7b00118

 O. Schuett, P. Messmer, J. Hutter, J. VandeVondele.
 Electronic Structure Calculations on Graphics Processing Units, 173-190 (2016).
 GPU-Accelerated Sparse Matrix-Matrix Multiplication for Linear Scaling Density 
 Functional Theory.
 https://doi.org/10.1002/9781118670712.ch8

 U. Borstnik, J. VandeVondele, V. Weber, J. Hutter.
 Parallel Comput. 40, 47-58 (2014).
 Sparse matrix multiplication: The distributed block-compressed sparse row 
 library.
 https://doi.org/10.1016/j.parco.2014.03.012

 M. Frigo, S. G. Johnson.
 Proc. IEEE 93, 216-231 (2005).
 The design and implementation of FFTW3.
 https://doi.org/10.1109/JPROC.2004.840301

 C.-L. Fu, K.-M. Ho.
 Phys. Rev. B 28, 5480-5486 (1983).
 First-principles calculation of the equilibrium ground-state properties of 
 transition metals: Applications to Nb and Mo.
 https://doi.org/10.1103/PhysRevB.28.5480

 T. G. Worlton, J. L. Warren.
 Comput. Phys. Commun. 3, 88-117 (1972).
 Group-theoretical analysis of lattice vibrations.
 https://doi.org/10.1016/0010-4655(72)90058-6


 -------------------------------------------------------------------------------
 -                                                                             -
 -                                T I M I N G                                  -
 -                                                                             -
 -------------------------------------------------------------------------------
 SUBROUTINE                       CALLS  ASD         SELF TIME        TOTAL TIME
                                MAXIMUM       AVERAGE  MAXIMUM  AVERAGE  MAXIMUM
 CP2K                                 1  1.0    0.020    0.020   55.333   55.333
 qs_energies                          1  2.0    0.001    0.001   55.281   55.281
 scf_env_do_scf                       1  3.0    0.000    0.000   54.348   54.348
 scf_env_do_scf_inner_loop           11  4.0    3.116    3.116   54.348   54.348
 qs_ks_update_qs_env                 11  5.0    0.000    0.000   48.945   48.945
 rebuild_ks_matrix                   11  6.0    0.000    0.000   48.921   48.921
 build_tblite_ks_matrix              11  7.0   48.579   48.579   48.921   48.921
 qs_scf_new_mos_kp                   11  5.0    0.000    0.000    2.068    2.068
 do_general_diag_kp                  11  6.0    0.057    0.057    2.068    2.068
 kpoint_density_transform            11  7.0    0.007    0.007    1.702    1.702
 transform_dmat                    2376  8.0    1.635    1.635    1.635    1.635
 -------------------------------------------------------------------------------

 The number of warnings for this run is : 1
 
 -------------------------------------------------------------------------------
  **** **** ******  **  PROGRAM ENDED AT                 2026-07-21 12:41:50.334
 ***** ** ***  *** **   PROGRAM RAN ON                                     terok
 **    ****   ******    PROGRAM RAN BY                                  kuehne88
 ***** **    ** ** **   PROGRAM PROCESS ID                                489564
  **** **  *******  **  PROGRAM STOPPED IN /home/kuehne88/work/kpoint-reduction-
                                           audit-20260721/results/round3/ch4_k66
                                           6_k290_fused
