 DBCSR| CPU Multiplication driver                                           BLAS (U)
 DBCSR| Multrec recursion limit                                              512 (U)
 DBCSR| Multiplication stack size                                           1000 (D)
 DBCSR| Maximum elements for images                                    UNLIMITED (U)
 DBCSR| Multiplicative factor virtual images                                   1 (U)
 DBCSR| Use multiplication densification                                       T (D)
 DBCSR| Multiplication size stacks                                             3 (U)
 DBCSR| Use memory pool for CPU allocation                                     F (U)
 DBCSR| Number of 3D layers                                               SINGLE (U)
 DBCSR| Use MPI memory allocation                                              F (U)
 DBCSR| Use RMA algorithm                                                      F (U)
 DBCSR| Use Communication thread                                               T (U)
 DBCSR| Communication thread load                                             60 (D)
 DBCSR| MPI: My process id                                                     0
 DBCSR| MPI: Number of processes                                               1
 DBCSR| OMP: Current number of threads                                         8
 DBCSR| OMP: Max number of threads                                             8
 DBCSR| Split modifier for TAS multiplication algorithm                  1.0E+00 (U)


  **** **** ******  **  PROGRAM STARTED AT               2026-07-16 13:27:13.547
 ***** ** ***  *** **   PROGRAM STARTED ON                                 terok
 **    ****   ******    PROGRAM STARTED BY                              kuehne88
 ***** **    ** ** **   PROGRAM PROCESS ID                               1787903
  **** **  *******  **  PROGRAM STARTED IN                        /home/kuehne88

 CP2K| version string:                 CP2K version 2026.1 (Development Version)
 CP2K| source code revision number:                                   28df9380ab
 CP2K| cp2kflags: omp fftw3 libxc parallel scalapack spglib s_dftd3 mctc-lib tbl
 CP2K|            ite tblite_gxtb
 CP2K| is freely available from                            https://www.cp2k.org/
 CP2K| Program compiled at                                   2026-07-16 07:46:36
 CP2K| Program compiled on                                                 terok
 CP2K| Program compiled for                                               x86_64
 CP2K| Data directory path    /home/kuehne88/work/codex-gxtb-symmetry-v2-runtime
 CP2K| Input file name        /home/kuehne88/work/codex-gxtb-symmetry-v2-runtime

 GLOBAL| Force Environment number                                              1
 GLOBAL| Basis set file name                                           BASIS_SET
 GLOBAL| Potential file name                                           POTENTIAL
 GLOBAL| MM Potential file name                                     MM_POTENTIAL
 GLOBAL| Coordinate file name                                      __STD_INPUT__
 GLOBAL| Method name                                                        CP2K
 GLOBAL| Project name                                      Si_shifted_full_debug
 GLOBAL| Run type                                                          DEBUG
 GLOBAL| FFT library                                                       FFTW3
 GLOBAL| Diagonalization library                                       ScaLAPACK
 GLOBAL| Cholesky decomposition library                                ScaLAPACK
 GLOBAL| DGEMM library                                                      BLAS
 GLOBAL| Direct generalized diagonalization requested                          F
 GLOBAL| Orthonormality check for eigenvectors                          DISABLED
 GLOBAL| Matrix multiplication library                                 ScaLAPACK
 GLOBAL| All-to-all communication in single precision                          F
 GLOBAL| FFTs using library dependent lengths                                  F
 GLOBAL| Grid backend                                                       AUTO
 GLOBAL| Global print level                                               MEDIUM
 GLOBAL| MPI I/O enabled                                                       T
 GLOBAL| Total number of message passing processes                             1
 GLOBAL| Number of distributed systems (nodes)                                 1
 GLOBAL| Number of threads for this process                                    8
 GLOBAL| This output is from process                                           0
 GLOBAL| OpenMP stack size per thread (OMP_STACKSIZE)                    default
 GLOBAL| CPU model name                                       AMD EPYC Processor
 GLOBAL| CPUID                                                              1002

 MEMORY| system memory details [Kb]
 MEMORY|                        rank 0           min           max       average
 MEMORY| MemTotal            528104804     528104804     528104804     528104804
 MEMORY| MemFree             391173020     391173020     391173020     391173020
 MEMORY| Buffers                    20            20            20            20
 MEMORY| Cached              123039700     123039700     123039700     123039700
 MEMORY| Slab                  9542316       9542316       9542316       9542316
 MEMORY| SReclaimable          7159496       7159496       7159496       7159496
 MEMORY| MemLikelyFree       521372236     521372236     521372236     521372236


 *** Fundamental physical constants (SI units) ***

 *** Literature: B. J. Mohr and B. N. Taylor,
 ***             CODATA recommended values of the fundamental physical
 ***             constants: 2006, Web Version 5.1
 ***             http://physics.nist.gov/constants

 Speed of light in vacuum [m/s]                             2.99792458000000E+08
 Magnetic constant or permeability of vacuum [N/A**2]       1.25663706143592E-06
 Electric constant or permittivity of vacuum [F/m]          8.85418781762039E-12
 Planck constant (h) [J*s]                                  6.62606896000000E-34
 Planck constant (h-bar) [J*s]                              1.05457162825177E-34
 Elementary charge [C]                                      1.60217648700000E-19
 Electron mass [kg]                                         9.10938215000000E-31
 Electron g factor [ ]                                     -2.00231930436220E+00
 Proton mass [kg]                                           1.67262163700000E-27
 Fine-structure constant                                    7.29735253760000E-03
 Rydberg constant [1/m]                                     1.09737315685270E+07
 Avogadro constant [1/mol]                                  6.02214179000000E+23
 Boltzmann constant [J/K]                                   1.38065040000000E-23
 Atomic mass unit [kg]                                      1.66053878200000E-27
 Bohr radius [m]                                            5.29177208590000E-11

 *** Conversion factors ***

 [u] -> [a.u.]                                              1.82288848426455E+03
 [Angstrom] -> [Bohr] = [a.u.]                              1.88972613288564E+00
 [a.u.] = [Bohr] -> [Angstrom]                              5.29177208590000E-01
 [a.u.] -> [s]                                              2.41888432650478E-17
 [a.u.] -> [fs]                                             2.41888432650478E-02
 [a.u.] -> [J]                                              4.35974393937059E-18
 [a.u.] -> [N]                                              8.23872205491840E-08
 [a.u.] -> [K]                                              3.15774647902944E+05
 [a.u.] -> [kJ/mol]                                         2.62549961709828E+03
 [a.u.] -> [kcal/mol]                                       6.27509468713739E+02
 [a.u.] -> [Pa]                                             2.94210107994716E+13
 [a.u.] -> [bar]                                            2.94210107994716E+08
 [a.u.] -> [atm]                                            2.90362800883016E+08
 [a.u.] -> [eV]                                             2.72113838565563E+01
 [a.u.] -> [Hz]                                             6.57968392072181E+15
 [a.u.] -> [1/cm] (wave numbers)                            2.19474631370540E+05
 [a.u./Bohr**2] -> [1/cm]                                   5.14048714338585E+03
 

 CELL| Volume [angstrom^3]:                                            40.047869
 CELL| Vector a [angstrom]:       3.840     0.000     0.000   |a| =     3.840297
 CELL| Vector b [angstrom]:       1.920     3.326     0.000   |b| =     3.840297
 CELL| Vector c [angstrom]:       1.920     1.109     3.136   |c| =     3.840297
 CELL| Angle (b,c), alpha [degree]:                                    60.000000
 CELL| Angle (a,c), beta  [degree]:                                    60.000000
 CELL| Angle (a,b), gamma [degree]:                                    60.000000
 CELL| Numerically orthorhombic:                                              NO
 CELL| Periodicity                                                           XYZ

 CELL_REF| Volume [angstrom^3]:                                        40.047869
 CELL_REF| Vector a [angstrom     3.840     0.000     0.000   |a| =     3.840297
 CELL_REF| Vector b [angstrom     1.920     3.326     0.000   |b| =     3.840297
 CELL_REF| Vector c [angstrom     1.920     1.109     3.136   |c| =     3.840297
 CELL_REF| Angle (b,c), alpha [degree]:                                60.000000
 CELL_REF| Angle (a,c), beta  [degree]:                                60.000000
 CELL_REF| Angle (a,b), gamma [degree]:                                60.000000
 CELL_REF| Numerically orthorhombic:                                          NO
 CELL_REF| Periodicity                                                       XYZ

 GENERATE|  Preliminary Number of Bonds generated:                             0
 GENERATE|  Achieved consistency in connectivity generation.


                  #####   #####        #     #   #     #       #          
                 #     # #     #      #    ##### #     #   # #####  ####  
                 #     # #           #       #   ###   #       #   #    # 
                 #     #  #####     #        #   #  #  #   #   #   ###### 
                 #   # #       #   #         #   #   # #   #   #   #      
                 #    #  #     #  #          #   #  #  # # #   #    #   # 
                  #### #  #####  #           #   ###   ##  #   #     ###  

                                     g-xTB   
                                 Version 0.0                       
                            Johann V. Pototschnig                  

                tblite provider: SAVE
                tblite source revision: unknown
                g-xTB support: enabled

 xTB| Parameter file                                             xTB1_parameters
 xTB| Basis expansion STO-NG                                                   6
 xTB| Basis expansion STO-NG for Hydrogen                                      4
 xTB| Repulsive pair potential accuracy                               0.1000E-09
 xTB| Repulsive enhancement factor                                      0.000000
 xTB| Halogen interaction potential                                            T
 xTB| Halogen interaction potential cutoff radius                         20.000
 xTB| Nonbonded interactions                                                   F
 xTB| vdW potential type:                                              DFTD3(BJ)
 xTB| D3 Dispersion: Parameter                                         dftd3.dat
 xTB| Huckel constants ks kp kd                        1.850     2.250     2.000
 xTB| Huckel constants ksp k2sh                                  2.080     2.850
 xTB| Mataga-Nishimoto exponent                                            2.000
 xTB| Repulsion potential exponent                                         1.500
 xTB| Coordination number scaling kcn(s) kcn(p) kc     0.006    -0.003    -0.005
 xTB| Electronegativity scaling                                           -0.007
 xTB| Halogen potential scaling kxr kx2                          1.300     0.440
 xTB| SCC mixer:                                                       AUTO
 xTB| tblite accuracy:                                                 1.000E+00
 xTB| tblite SCC mixer damping:                                            0.400
 xTB| tblite SCC mixer iterations:                                           250
 xTB| tblite SCC mixer memory:                                               250
 xTB| tblite SCC mixer solver:                                         GVD
 xTB| tblite SCC mixer omega0:                                         1.000E-02
 xTB| tblite SCC mixer min weight:                                     1.000E+00
 xTB| tblite SCC mixer max weight:                                     1.000E+05
 xTB| tblite SCC mixer weight factor:                                  1.000E-02




 ATOMIC KIND INFORMATION

  1. Atomic kind: Si                                    Number of atoms:       2

     Orbital Basis Set                                                 Si_STO-5G

       Number of orbital shell sets:                                           3
       Number of orbital shells:                                               3
       Number of primitive Cartesian functions:                               11
       Number of Cartesian basis functions:                                   10
       Number of spherical basis functions:                                    9
       Norm type:                                                              3

       Normalised Cartesian orbitals:

                        Set   Shell   Orbital            Exponent    Coefficient

                          1       1    1s                4.480989       0.081515
                                                         1.311833      -0.308482
                                                         0.304930       0.120488
                                                         0.201075       0.078155
                                                         0.076953       0.045458

                          2       1    2px               1.203692      -0.166706
                                                         0.488460       0.180988
                                                         0.183780       0.100040
                                                         0.065048       0.013180
                          2       1    2py               1.203692      -0.166706
                                                         0.488460       0.180988
                                                         0.183780       0.100040
                                                         0.065048       0.013180
                          2       1    2pz               1.203692      -0.166706
                                                         0.488460       0.180988
                                                         0.183780       0.100040
                                                         0.065048       0.013180

                          3       1    3dx2              1.062530       0.455864
                                                         0.288560       0.159361
                          3       1    3dxy              1.062530       0.789580
                                                         0.288560       0.276021
                          3       1    3dxz              1.062530       0.789580
                                                         0.288560       0.276021
                          3       1    3dy2              1.062530       0.455864
                                                         0.288560       0.159361
                          3       1    3dyz              1.062530       0.789580
                                                         0.288560       0.276021
                          3       1    3dz2              1.062530       0.455864
                                                         0.288560       0.159361

     AE Potential information for                                        Silicon

       Description:                                       Bare Coulomb Potential
                                                             Valence charge only

       Gaussian exponent of the core charge distribution:               1.623245
       Electronic configuration (s p d ...):                       2   2   0   0


 MOLECULE KIND INFORMATION


 All atoms are their own molecule, skipping detailed information


 TOTAL NUMBERS AND MAXIMUM NUMBERS

  Total number of            - Atomic kinds:                                   1
                             - Atoms:                                          2
                             - Shell sets:                                     6
                             - Shells:                                         6
                             - Primitive Cartesian functions:                 22
                             - Cartesian basis functions:                     20
                             - Spherical basis functions:                     18

  Maximum angular momentum of the orbital basis functions:                     2


 MODULE QUICKSTEP: ATOMIC COORDINATES IN ANGSTROM

   Atom Kind Element         X             Y             Z       Z(eff)     Mass
      1    1 Si   14      0.000000      0.000000      0.000000   4.0000  28.0855
      2    1 Si   14      1.920148      1.108598      0.783897   4.0000  28.0855



 SCF PARAMETERS         Density guess:                                     MOPAC
                        --------------------------------------------------------
                        max_scf:                                             300
                        max_scf_history:                                       0
                        max_diis:                                              4
                        --------------------------------------------------------
                        eps_scf:                                        1.00E-10
                        eps_scf_history:                                0.00E+00
                        eps_diis:                                       1.00E-01
                        eps_eigval:                                     1.00E-05
                        --------------------------------------------------------
                        level_shift [a.u.]:                             0.000000
                        added MOs                                        14   -1
                        --------------------------------------------------------
                        Mixing method:                           DIRECT_P_MIXING
                        --------------------------------------------------------
                        Smear method:                                FERMI_DIRAC
                        Electronic temperature [K]:                        300.0
                        Electronic temperature [a.u.]:                  9.50E-04
                        Accuracy threshold:                             1.00E-10
                        --------------------------------------------------------
                        No outer SCF

 PW_GRID| Information for grid number                                          1
 PW_GRID| Cutoff [a.u.]                                                      1.0
 PW_GRID| spherical cutoff:                                                   NO
 PW_GRID|   Bounds   1             -2       1                Points:           4
 PW_GRID|   Bounds   2             -2       1                Points:           4
 PW_GRID|   Bounds   3             -2       1                Points:           4
 PW_GRID| Volume element (a.u.^3)   4.223         Volume (a.u.^3)       270.2564
 PW_GRID| Grid span                                                    FULLSPACE

 POISSON| Solver                                                        PERIODIC
 POISSON| Periodicity                                                        XYZ

 RS_GRID| Information for grid number                                          1
 RS_GRID|   Bounds   1             -2       1                Points:           4
 RS_GRID|   Bounds   2             -2       1                Points:           4
 RS_GRID|   Bounds   3             -2       1                Points:           4

 *******************************************************************************
                                    Kpoints
 *******************************************************************************
 BRILLOUIN| K-point scheme                                             MacDonald
 BRILLOUIN| K-Point grid                                             2    2    2
 BRILLOUIN| K-Point shift                             0.2500    0.2500    0.2500
 BRILLOUIN| K-point symmetry accuracy                               0.100000E-05
 BRILLOUIN| K-Point point group symmetrization                               OFF
 BRILLOUIN| Wavefunction type                                            COMPLEX
 BRILLOUIN| Use full k-point grid     
 BRILLOUIN| List of Kpoints [2 Pi/Bohr]                                        8
 BRILLOUIN| Number           Weight            X              Y              Z
 BRILLOUIN|     1           0.12500        0.00000        0.00000        0.00000
 BRILLOUIN|     2           0.12500        0.00000        0.00000        0.50000
 BRILLOUIN|     3           0.12500        0.00000        0.50000        0.00000
 BRILLOUIN|     4           0.12500        0.00000        0.50000        0.50000
 BRILLOUIN|     5           0.12500        0.50000        0.00000        0.00000
 BRILLOUIN|     6           0.12500        0.50000        0.00000        0.50000
 BRILLOUIN|     7           0.12500        0.50000        0.50000        0.00000
 BRILLOUIN|     8           0.12500        0.50000        0.50000        0.50000
 *******************************************************************************

 Extrapolation method: initial_guess

 Number of electrons:                                                          8
 Number of occupied orbitals:                                                  4
 Number of molecular orbitals:                                                18

 Number of orbital functions:                                                 18
 Number of independent orbital functions:                                     18


 SCF WAVEFUNCTION OPTIMIZATION

  Step     Update method      Time    Convergence         Total energy    Change
  ------------------------------------------------------------------------------
     1 GXTB-Raw    0.10E+01    0.9     0.63708787      -579.0056168886 -5.79E+02
     2 GXTB-Simple 0.20E+00    0.9     0.02308957      -579.0230925670 -1.75E-02
     3 GXTB-Simple 0.20E+00    0.8     0.02025226      -579.0333672865 -1.03E-02
     4 GXTB-FDIIS  0.10E+01    0.8     0.11390552      -579.0507816721 -1.74E-02
     5 GXTB-FDIIS  0.10E+01    0.9     0.01026451      -579.0508315143 -4.98E-05
     6 GXTB-FDIIS  0.10E+01    0.9     0.00678068      -579.0508384822 -6.97E-06
     7 GXTB-FDIIS  0.10E+01    0.9     0.00019990      -579.0508385535 -7.13E-08
     8 GXTB-FDIIS  0.10E+01    0.9     0.00002193      -579.0508385538 -2.97E-10
     9 GXTB-FDIIS  0.10E+01    0.9     0.00000243      -579.0508385538 -2.05E-12
    10 GXTB-FDIIS  0.10E+01    0.9     0.00000017      -579.0508385538  1.14E-13
    11 GXTB-FDIIS  0.10E+01    0.9     1.5526E-09      -579.0508385538  1.14E-13
    12 GXTB-FDIIS  0.10E+01    0.9     1.0961E-10      -579.0508385538 -1.14E-13
    13 GXTB-FDIIS  0.10E+01    0.8     3.5639E-12      -579.0508385538  0.00E+00

  *** SCF run converged in    13 steps ***


  Core Hamiltonian energy:                                     -2.74936445335307
  Repulsive potential energy:                                   0.28052169269639
  Electrostatic energy:                                         0.02945444009447
  Self-consistent dispersion energy:                           -0.01740534592769
  Non-self consistent dispersion energy:                        0.00476636229403
  Correction for halogen bonding:                               0.00000000000000
  Electronic entropic energy:                                  -0.00000000000000
  Fermi energy:                                                -0.20960664029527

  Total energy:                                              -579.05083855381713
  Total energy (extrapolated to T->0):                       -579.05083855381713


 MULLIKEN POPULATION ANALYSIS

  # Atom   Element   Kind        Atomic population                    Net charge
       1     Si         1                 4.000000                     -0.000000
       2     Si         1                 4.000000                      0.000000
 # Total charge                           8.000000                     -0.000000


 ENERGY| Total FORCE_EVAL ( QS ) energy [hartree]           -579.050838553817130

 FORCES| Atomic forces [hartree/bohr]
 FORCES|   Atom     x               y               z               |f|
 FORCES|      1  1.57492370E-17  3.72622456E-16 -1.05152458E-17   3.73103342E-16
 FORCES|      2 -1.54440445E-17 -3.72532379E-16  1.08990890E-17   3.73011638E-16
 FORCES| Sum     3.05192519E-19  9.00767471E-20  3.83843206E-19
 FORCES| Total atomic force                                       4.98589913E-19

 STRESS| Stress tensor components (GPW/GAPW) [bar]
 STRESS|                                           1/3 Trace         Determinant
 STRESS| Overlap                           0.00000000000E+00   0.00000000000E+00
 STRESS| Kinetic energy                    0.00000000000E+00   0.00000000000E+00
 STRESS| Local pseudopotential/core        0.00000000000E+00   0.00000000000E+00
 STRESS| Nonlocal pseudopotential          0.00000000000E+00   0.00000000000E+00
 STRESS| Core charge overlap               0.00000000000E+00   0.00000000000E+00
 STRESS| Hartree                           0.00000000000E+00   0.00000000000E+00
 STRESS| Exchange-correlation              0.00000000000E+00   0.00000000000E+00
 STRESS| Exact exchange (EXX)              0.00000000000E+00   0.00000000000E+00
 STRESS| vdW correction                    0.00000000000E+00   0.00000000000E+00
 STRESS| Moller-Plesset (MP2)              0.00000000000E+00   0.00000000000E+00
 STRESS| Nonlinear core correction (NLCC)  0.00000000000E+00   0.00000000000E+00
 STRESS| Local atomic parts (GAPW)         0.00000000000E+00   0.00000000000E+00
 STRESS| Resolution-of-the-identity (LRI)  0.00000000000E+00   0.00000000000E+00
 STRESS| Sum of components                 0.00000000000E+00   0.00000000000E+00
 STRESS| Total                            -1.12723753999E+05  -1.43234069306E+15

 STRESS| Analytical stress tensor [bar]
 STRESS|                        x                   y                   z
 STRESS|      x       -1.12723753999E+05  -5.97527531027E-10   3.29999090906E-10
 STRESS|      y       -5.97527531027E-10  -1.12723753999E+05  -2.15855851015E-10
 STRESS|      z        3.29999090906E-10  -2.15855851015E-10  -1.12723753999E+05
 STRESS| 1/3 Trace                                            -1.12723753999E+05
 STRESS| Determinant                                          -1.43234069306E+15

 STRESS| Eigenvectors and eigenvalues of the analytical stress tensor [bar]
 STRESS|                        1                   2                   3
 STRESS| Eigenvalues  -1.12723753999E+05  -1.12723753999E+05  -1.12723753999E+05
 STRESS|      x           1.000000000000      0.000000000000      0.000000000000
 STRESS|      y           0.000000000000      1.000000000000      0.000000000000
 STRESS|      z           0.000000000000      0.000000000000      1.000000000000

 **************************** NUMERICAL STRESS ********************************


 -------------------------------------------------------------------------------
 ----                             MULTIGRID INFO                            ----
 -------------------------------------------------------------------------------
 total grid count     :           132              cutoff [a.u.]            1.00

 PW_GRID| Information for grid number                                          2
 PW_GRID| Cutoff [a.u.]                                                      1.0
 PW_GRID| spherical cutoff:                                                   NO
 PW_GRID|   Bounds   1             -2       1                Points:           4
 PW_GRID|   Bounds   2             -2       1                Points:           4
 PW_GRID|   Bounds   3             -2       1                Points:           4
 PW_GRID| Volume element (a.u.^3)   4.223         Volume (a.u.^3)       270.2601
 PW_GRID| Grid span                                                    FULLSPACE

 POISSON| Solver                                                        PERIODIC
 POISSON| Periodicity                                                        XYZ

 RS_GRID| Information for grid number                                          2
 RS_GRID|   Bounds   1             -2       1                Points:           4
 RS_GRID|   Bounds   2             -2       1                Points:           4
 RS_GRID|   Bounds   3             -2       1                Points:           4

 Parameters for the always stable predictor-corrector (ASPC) method:
  ASPC order: 0
  B(1) =   1.000000

 Extrapolation method: ASPC

 Number of electrons:                                                          8
 Number of occupied orbitals:                                                  4
 Number of molecular orbitals:                                                18

 Number of orbital functions:                                                 18
 Number of independent orbital functions:                                     18


 SCF WAVEFUNCTION OPTIMIZATION

  Step     Update method      Time    Convergence         Total energy    Change
  ------------------------------------------------------------------------------
     1 GXTB-Raw    0.10E+01    0.9     0.00000507      -579.0508371267 -5.79E+02
     2 GXTB-Simple 0.20E+00    0.9     0.00000038      -579.0508371267 -6.82E-13
     3 GXTB-Simple 0.20E+00    0.9     0.00000033      -579.0508371267 -4.55E-13
     4 GXTB-FDIIS  0.10E+01    0.9     0.00000222      -579.0508371267 -1.25E-12
     5 GXTB-FDIIS  0.10E+01    0.9     0.00000004      -579.0508371267  0.00E+00
     6 GXTB-FDIIS  0.10E+01    0.9     2.5655E-09      -579.0508371267  0.00E+00
     7 GXTB-FDIIS  0.10E+01    0.9     7.1806E-10      -579.0508371267  0.00E+00
     8 GXTB-FDIIS  0.10E+01    0.9     1.2130E-10      -579.0508371267  0.00E+00
     9 GXTB-FDIIS  0.10E+01    0.9     8.1397E-10      -579.0508371267  1.14E-13
    10 GXTB-FDIIS  0.10E+01    0.9     8.3886E-12      -579.0508371267  0.00E+00

  *** SCF run converged in    10 steps ***


  Core Hamiltonian energy:                                     -2.74936256726527
  Repulsive potential energy:                                   0.28051247953146
  Electrostatic energy:                                         0.02945379592247
  Self-consistent dispersion energy:                           -0.01740519117967
  Non-self consistent dispersion energy:                        0.00476627294029
  Correction for halogen bonding:                               0.00000000000000
  Electronic entropic energy:                                  -0.00000000000000
  Fermi energy:                                                -0.20960316735675

  Total energy:                                              -579.05083712670682
  Total energy (extrapolated to T->0):                       -579.05083712670682


 MULLIKEN POPULATION ANALYSIS

  # Atom   Element   Kind        Atomic population                    Net charge
       1     Si         1                 4.000000                     -0.000000
       2     Si         1                 4.000000                      0.000000
 # Total charge                           8.000000                      0.000000


 ENERGY| Total FORCE_EVAL ( QS ) energy [hartree]           -579.050837126706824

 -------------------------------------------------------------------------------
 ----                             MULTIGRID INFO                            ----
 -------------------------------------------------------------------------------
 total grid count     :           132              cutoff [a.u.]            1.00

 PW_GRID| Information for grid number                                          3
 PW_GRID| Cutoff [a.u.]                                                      1.0
 PW_GRID| spherical cutoff:                                                   NO
 PW_GRID|   Bounds   1             -2       1                Points:           4
 PW_GRID|   Bounds   2             -2       1                Points:           4
 PW_GRID|   Bounds   3             -2       1                Points:           4
 PW_GRID| Volume element (a.u.^3)   4.223         Volume (a.u.^3)       270.2527
 PW_GRID| Grid span                                                    FULLSPACE

 POISSON| Solver                                                        PERIODIC
 POISSON| Periodicity                                                        XYZ

 RS_GRID| Information for grid number                                          3
 RS_GRID|   Bounds   1             -2       1                Points:           4
 RS_GRID|   Bounds   2             -2       1                Points:           4
 RS_GRID|   Bounds   3             -2       1                Points:           4

 Parameters for the always stable predictor-corrector (ASPC) method:
  ASPC order: 0
  B(1) =   2.000000
  B(2) =  -1.000000

 Extrapolation method: ASPC

 Number of electrons:                                                          8
 Number of occupied orbitals:                                                  4
 Number of molecular orbitals:                                                18

 Number of orbital functions:                                                 18
 Number of independent orbital functions:                                     18


 SCF WAVEFUNCTION OPTIMIZATION

  Step     Update method      Time    Convergence         Total energy    Change
  ------------------------------------------------------------------------------
     1 GXTB-Raw    0.10E+01    0.8     0.00001014      -579.0508399803 -5.79E+02
     2 GXTB-Simple 0.20E+00    0.8     0.00000076      -579.0508399803 -2.27E-12
     3 GXTB-Simple 0.20E+00    0.8     0.00000066      -579.0508399803 -1.59E-12
     4 GXTB-FDIIS  0.10E+01    0.8     0.00000444      -579.0508399804 -5.12E-12
     5 GXTB-FDIIS  0.10E+01    0.8     0.00000008      -579.0508399804  0.00E+00
     6 GXTB-FDIIS  0.10E+01    0.8     5.1314E-09      -579.0508399804 -1.14E-13
     7 GXTB-FDIIS  0.10E+01    0.8     7.5756E-10      -579.0508399804  1.14E-13
     8 GXTB-FDIIS  0.10E+01    0.8     1.2102E-10      -579.0508399804 -1.14E-13
     9 GXTB-FDIIS  0.10E+01    0.8     4.0728E-11      -579.0508399804  1.14E-13

  *** SCF run converged in     9 steps ***


  Core Hamiltonian energy:                                     -2.74936633919661
  Repulsive potential energy:                                   0.28053090650591
  Electrostatic energy:                                         0.02945508425193
  Self-consistent dispersion energy:                           -0.01740550068180
  Non-self consistent dispersion energy:                        0.00476645165318
  Correction for halogen bonding:                               0.00000000000000
  Electronic entropic energy:                                  -0.00000000000000
  Fermi energy:                                                -0.20958248696448

  Total energy:                                              -579.05083998035354
  Total energy (extrapolated to T->0):                       -579.05083998035354


 MULLIKEN POPULATION ANALYSIS

  # Atom   Element   Kind        Atomic population                    Net charge
       1     Si         1                 4.000000                     -0.000000
       2     Si         1                 4.000000                      0.000000
 # Total charge                           8.000000                     -0.000000


 ENERGY| Total FORCE_EVAL ( QS ) energy [hartree]           -579.050839980353544

 DEBUG|           E(xx + 0.0001)           E(xx - 0.0001)           f(numerical)
 DEBUG|            -579.05083713            -579.05083998             0.01426823

 -------------------------------------------------------------------------------
 ----                             MULTIGRID INFO                            ----
 -------------------------------------------------------------------------------
 total grid count     :           132              cutoff [a.u.]            1.00

 PW_GRID| Information for grid number                                          4
 PW_GRID| Cutoff [a.u.]                                                      1.0
 PW_GRID| spherical cutoff:                                                   NO
 PW_GRID|   Bounds   1             -2       1                Points:           4
 PW_GRID|   Bounds   2             -2       1                Points:           4
 PW_GRID|   Bounds   3             -2       1                Points:           4
 PW_GRID| Volume element (a.u.^3)   4.223         Volume (a.u.^3)       270.2564
 PW_GRID| Grid span                                                    FULLSPACE

 POISSON| Solver                                                        PERIODIC
 POISSON| Periodicity                                                        XYZ

 RS_GRID| Information for grid number                                          4
 RS_GRID|   Bounds   1             -2       1                Points:           4
 RS_GRID|   Bounds   2             -2       1                Points:           4
 RS_GRID|   Bounds   3             -2       1                Points:           4

 Parameters for the always stable predictor-corrector (ASPC) method:
  ASPC order: 1
  B(1) =   2.500000
  B(2) =  -2.000000
  B(3) =   0.500000

 Extrapolation method: ASPC

 Number of electrons:                                                          8
 Number of occupied orbitals:                                                  4
 Number of molecular orbitals:                                                18

 Number of orbital functions:                                                 18
 Number of independent orbital functions:                                     18


 SCF WAVEFUNCTION OPTIMIZATION

  Step     Update method      Time    Convergence         Total energy    Change
  ------------------------------------------------------------------------------
     1 GXTB-Raw    0.10E+01    0.7     0.00000507      -579.0508385537 -5.79E+02
     2 GXTB-Simple 0.20E+00    0.8     0.00000038      -579.0508385537 -6.82E-13
     3 GXTB-Simple 0.20E+00    0.8     0.00000033      -579.0508385537 -4.55E-13
     4 GXTB-FDIIS  0.10E+01    0.8     0.00000222      -579.0508385537 -1.36E-12
     5 GXTB-FDIIS  0.10E+01    0.8     0.00000004      -579.0508385537  1.14E-13
     6 GXTB-FDIIS  0.10E+01    0.8     4.0560E-09      -579.0508385537  0.00E+00
     7 GXTB-FDIIS  0.10E+01    0.8     9.3661E-10      -579.0508385537 -1.14E-13
     8 GXTB-FDIIS  0.10E+01    0.8     5.5738E-09      -579.0508385537  1.14E-13
     9 GXTB-FDIIS  0.10E+01    0.8     1.5157E-10      -579.0508385537 -1.14E-13
    10 GXTB-FDIIS  0.10E+01    0.8     7.4553E-12      -579.0508385537  0.00E+00

  *** SCF run converged in    10 steps ***


  Core Hamiltonian energy:                                     -2.74936445323748
  Repulsive potential energy:                                   0.28052169268997
  Electrostatic energy:                                         0.02945444008970
  Self-consistent dispersion energy:                           -0.01740534592788
  Non-self consistent dispersion energy:                        0.00476636229421
  Correction for halogen bonding:                               0.00000000000000
  Electronic entropic energy:                                  -0.00000000000000
  Fermi energy:                                                -0.20959814090383

  Total energy:                                              -579.05083855367491
  Total energy (extrapolated to T->0):                       -579.05083855367491


 MULLIKEN POPULATION ANALYSIS

  # Atom   Element   Kind        Atomic population                    Net charge
       1     Si         1                 4.000000                     -0.000000
       2     Si         1                 4.000000                      0.000000
 # Total charge                           8.000000                     -0.000000


 ENERGY| Total FORCE_EVAL ( QS ) energy [hartree]           -579.050838553674907

 -------------------------------------------------------------------------------
 ----                             MULTIGRID INFO                            ----
 -------------------------------------------------------------------------------
 total grid count     :           132              cutoff [a.u.]            1.00

 PW_GRID| Information for grid number                                          5
 PW_GRID| Cutoff [a.u.]                                                      1.0
 PW_GRID| spherical cutoff:                                                   NO
 PW_GRID|   Bounds   1             -2       1                Points:           4
 PW_GRID|   Bounds   2             -2       1                Points:           4
 PW_GRID|   Bounds   3             -2       1                Points:           4
 PW_GRID| Volume element (a.u.^3)   4.223         Volume (a.u.^3)       270.2564
 PW_GRID| Grid span                                                    FULLSPACE

 POISSON| Solver                                                        PERIODIC
 POISSON| Periodicity                                                        XYZ

 RS_GRID| Information for grid number                                          5
 RS_GRID|   Bounds   1             -2       1                Points:           4
 RS_GRID|   Bounds   2             -2       1                Points:           4
 RS_GRID|   Bounds   3             -2       1                Points:           4

 Parameters for the always stable predictor-corrector (ASPC) method:
  ASPC order: 2
  B(1) =   2.800000
  B(2) =  -2.800000
  B(3) =   1.200000
  B(4) =  -0.200000

 Extrapolation method: ASPC

 Number of electrons:                                                          8
 Number of occupied orbitals:                                                  4
 Number of molecular orbitals:                                                18

 Number of orbital functions:                                                 18
 Number of independent orbital functions:                                     18


 SCF WAVEFUNCTION OPTIMIZATION

  Step     Update method      Time    Convergence         Total energy    Change
  ------------------------------------------------------------------------------
     1 GXTB-Raw    0.10E+01    0.7     0.00000822      -579.0508385537 -5.79E+02
     2 GXTB-Simple 0.20E+00    0.8     0.00000029      -579.0508385537 -1.02E-12
     3 GXTB-Simple 0.20E+00    0.9     0.00000024      -579.0508385537 -9.09E-13
     4 GXTB-FDIIS  0.10E+01    0.8     0.00000131      -579.0508385537 -1.93E-12
     5 GXTB-FDIIS  0.10E+01    0.8     0.00000004      -579.0508385537 -1.14E-13
     6 GXTB-FDIIS  0.10E+01    0.8     5.2262E-09      -579.0508385537  0.00E+00
     7 GXTB-FDIIS  0.10E+01    0.8     6.3574E-10      -579.0508385537  0.00E+00
     8 GXTB-FDIIS  0.10E+01    0.8     6.4767E-11      -579.0508385537  0.00E+00

  *** SCF run converged in     8 steps ***


  Core Hamiltonian energy:                                     -2.74936445323752
  Repulsive potential energy:                                   0.28052169268997
  Electrostatic energy:                                         0.02945444008973
  Self-consistent dispersion energy:                           -0.01740534592788
  Non-self consistent dispersion energy:                        0.00476636229421
  Correction for halogen bonding:                               0.00000000000000
  Electronic entropic energy:                                  -0.00000000000000
  Fermi energy:                                                -0.20959814090355

  Total energy:                                              -579.05083855367491
  Total energy (extrapolated to T->0):                       -579.05083855367491


 MULLIKEN POPULATION ANALYSIS

  # Atom   Element   Kind        Atomic population                    Net charge
       1     Si         1                 4.000000                     -0.000000
       2     Si         1                 4.000000                      0.000000
 # Total charge                           8.000000                     -0.000000


 ENERGY| Total FORCE_EVAL ( QS ) energy [hartree]           -579.050838553674907

 DEBUG|           E(xy + 0.0001)           E(xy - 0.0001)           f(numerical)
 DEBUG|            -579.05083855            -579.05083855             0.00000000

 -------------------------------------------------------------------------------
 ----                             MULTIGRID INFO                            ----
 -------------------------------------------------------------------------------
 total grid count     :           132              cutoff [a.u.]            1.00

 PW_GRID| Information for grid number                                          6
 PW_GRID| Cutoff [a.u.]                                                      1.0
 PW_GRID| spherical cutoff:                                                   NO
 PW_GRID|   Bounds   1             -2       1                Points:           4
 PW_GRID|   Bounds   2             -2       1                Points:           4
 PW_GRID|   Bounds   3             -2       1                Points:           4
 PW_GRID| Volume element (a.u.^3)   4.223         Volume (a.u.^3)       270.2564
 PW_GRID| Grid span                                                    FULLSPACE

 POISSON| Solver                                                        PERIODIC
 POISSON| Periodicity                                                        XYZ

 RS_GRID| Information for grid number                                          6
 RS_GRID|   Bounds   1             -2       1                Points:           4
 RS_GRID|   Bounds   2             -2       1                Points:           4
 RS_GRID|   Bounds   3             -2       1                Points:           4

 Parameters for the always stable predictor-corrector (ASPC) method:
  ASPC order: 3
  B(1) =   3.000000
  B(2) =  -3.428571
  B(3) =   1.928571
  B(4) =  -0.571429
  B(5) =   0.071429

 Extrapolation method: ASPC

 Number of electrons:                                                          8
 Number of occupied orbitals:                                                  4
 Number of molecular orbitals:                                                18

 Number of orbital functions:                                                 18
 Number of independent orbital functions:                                     18


 SCF WAVEFUNCTION OPTIMIZATION

  Step     Update method      Time    Convergence         Total energy    Change
  ------------------------------------------------------------------------------
     1 GXTB-Raw    0.10E+01    0.8     0.00000343      -579.0508385537 -5.79E+02
     2 GXTB-Simple 0.20E+00    0.8     0.00000012      -579.0508385537 -4.55E-13
     3 GXTB-Simple 0.20E+00    0.9     0.00000010      -579.0508385537 -2.27E-13
     4 GXTB-FDIIS  0.10E+01    0.8     0.00000050      -579.0508385537 -1.02E-12
     5 GXTB-FDIIS  0.10E+01    0.7     0.00000004      -579.0508385537  0.00E+00
     6 GXTB-FDIIS  0.10E+01    0.8     3.9873E-09      -579.0508385537  0.00E+00
     7 GXTB-FDIIS  0.10E+01    0.9     4.1640E-10      -579.0508385537  0.00E+00
     8 GXTB-FDIIS  0.10E+01    0.9     3.1042E-10      -579.0508385537  0.00E+00
     9 GXTB-FDIIS  0.10E+01    0.9     6.4775E-10      -579.0508385537  0.00E+00
    10 GXTB-FDIIS  0.10E+01    0.8     7.6262E-12      -579.0508385537  0.00E+00

  *** SCF run converged in    10 steps ***


  Core Hamiltonian energy:                                     -2.74936445323752
  Repulsive potential energy:                                   0.28052169268997
  Electrostatic energy:                                         0.02945444008973
  Self-consistent dispersion energy:                           -0.01740534592788
  Non-self consistent dispersion energy:                        0.00476636229421
  Correction for halogen bonding:                               0.00000000000000
  Electronic entropic energy:                                  -0.00000000000000
  Fermi energy:                                                -0.20959814090377

  Total energy:                                              -579.05083855367491
  Total energy (extrapolated to T->0):                       -579.05083855367491


 MULLIKEN POPULATION ANALYSIS

  # Atom   Element   Kind        Atomic population                    Net charge
       1     Si         1                 4.000000                     -0.000000
       2     Si         1                 4.000000                      0.000000
 # Total charge                           8.000000                     -0.000000


 ENERGY| Total FORCE_EVAL ( QS ) energy [hartree]           -579.050838553674907

 -------------------------------------------------------------------------------
 ----                             MULTIGRID INFO                            ----
 -------------------------------------------------------------------------------
 total grid count     :           132              cutoff [a.u.]            1.00

 PW_GRID| Information for grid number                                          7
 PW_GRID| Cutoff [a.u.]                                                      1.0
 PW_GRID| spherical cutoff:                                                   NO
 PW_GRID|   Bounds   1             -2       1                Points:           4
 PW_GRID|   Bounds   2             -2       1                Points:           4
 PW_GRID|   Bounds   3             -2       1                Points:           4
 PW_GRID| Volume element (a.u.^3)   4.223         Volume (a.u.^3)       270.2564
 PW_GRID| Grid span                                                    FULLSPACE

 POISSON| Solver                                                        PERIODIC
 POISSON| Periodicity                                                        XYZ

 RS_GRID| Information for grid number                                          7
 RS_GRID|   Bounds   1             -2       1                Points:           4
 RS_GRID|   Bounds   2             -2       1                Points:           4
 RS_GRID|   Bounds   3             -2       1                Points:           4

 Parameters for the always stable predictor-corrector (ASPC) method:
  ASPC order: 3
  B(1) =   3.000000
  B(2) =  -3.428571
  B(3) =   1.928571
  B(4) =  -0.571429
  B(5) =   0.071429

 Extrapolation method: ASPC

 Number of electrons:                                                          8
 Number of occupied orbitals:                                                  4
 Number of molecular orbitals:                                                18

 Number of orbital functions:                                                 18
 Number of independent orbital functions:                                     18


 SCF WAVEFUNCTION OPTIMIZATION

  Step     Update method      Time    Convergence         Total energy    Change
  ------------------------------------------------------------------------------
     1 GXTB-Raw    0.10E+01    0.9     0.00000897      -579.0508385537 -5.79E+02
     2 GXTB-Simple 0.20E+00    0.9     0.00000030      -579.0508385537 -1.02E-12
     3 GXTB-Simple 0.20E+00    0.9     0.00000026      -579.0508385537 -9.09E-13
     4 GXTB-FDIIS  0.10E+01    0.9     0.00000137      -579.0508385537 -1.93E-12
     5 GXTB-FDIIS  0.10E+01    0.9     0.00000004      -579.0508385537 -1.14E-13
     6 GXTB-FDIIS  0.10E+01    0.9     5.2262E-09      -579.0508385537  0.00E+00
     7 GXTB-FDIIS  0.10E+01    0.9     6.3574E-10      -579.0508385537  0.00E+00
     8 GXTB-FDIIS  0.10E+01    0.9     6.2154E-11      -579.0508385537  0.00E+00

  *** SCF run converged in     8 steps ***


  Core Hamiltonian energy:                                     -2.74936445323752
  Repulsive potential energy:                                   0.28052169268997
  Electrostatic energy:                                         0.02945444008973
  Self-consistent dispersion energy:                           -0.01740534592788
  Non-self consistent dispersion energy:                        0.00476636229421
  Correction for halogen bonding:                               0.00000000000000
  Electronic entropic energy:                                  -0.00000000000000
  Fermi energy:                                                -0.20959814090355

  Total energy:                                              -579.05083855367491
  Total energy (extrapolated to T->0):                       -579.05083855367491


 MULLIKEN POPULATION ANALYSIS

  # Atom   Element   Kind        Atomic population                    Net charge
       1     Si         1                 4.000000                     -0.000000
       2     Si         1                 4.000000                      0.000000
 # Total charge                           8.000000                      0.000000


 ENERGY| Total FORCE_EVAL ( QS ) energy [hartree]           -579.050838553674907

 DEBUG|           E(xz + 0.0001)           E(xz - 0.0001)           f(numerical)
 DEBUG|            -579.05083855            -579.05083855             0.00000000

 -------------------------------------------------------------------------------
 ----                             MULTIGRID INFO                            ----
 -------------------------------------------------------------------------------
 total grid count     :           132              cutoff [a.u.]            1.00

 PW_GRID| Information for grid number                                          8
 PW_GRID| Cutoff [a.u.]                                                      1.0
 PW_GRID| spherical cutoff:                                                   NO
 PW_GRID|   Bounds   1             -2       1                Points:           4
 PW_GRID|   Bounds   2             -2       1                Points:           4
 PW_GRID|   Bounds   3             -2       1                Points:           4
 PW_GRID| Volume element (a.u.^3)   4.223         Volume (a.u.^3)       270.2543
 PW_GRID| Grid span                                                    FULLSPACE

 POISSON| Solver                                                        PERIODIC
 POISSON| Periodicity                                                        XYZ

 RS_GRID| Information for grid number                                          8
 RS_GRID|   Bounds   1             -2       1                Points:           4
 RS_GRID|   Bounds   2             -2       1                Points:           4
 RS_GRID|   Bounds   3             -2       1                Points:           4

 Parameters for the always stable predictor-corrector (ASPC) method:
  ASPC order: 3
  B(1) =   3.000000
  B(2) =  -3.428571
  B(3) =   1.928571
  B(4) =  -0.571429
  B(5) =   0.071429

 Extrapolation method: ASPC

 Number of electrons:                                                          8
 Number of occupied orbitals:                                                  4
 Number of molecular orbitals:                                                18

 Number of orbital functions:                                                 18
 Number of independent orbital functions:                                     18


 SCF WAVEFUNCTION OPTIMIZATION

  Step     Update method      Time    Convergence         Total energy    Change
  ------------------------------------------------------------------------------
     1 GXTB-Raw    0.10E+01    0.8     0.00000449      -579.0508393774 -5.79E+02
     2 GXTB-Simple 0.20E+00    0.8     0.00000022      -579.0508393774 -6.82E-13
     3 GXTB-Simple 0.20E+00    0.8     0.00000019      -579.0508393774 -4.55E-13
     4 GXTB-FDIIS  0.10E+01    0.8     0.00000124      -579.0508393774 -1.48E-12
     5 GXTB-FDIIS  0.10E+01    0.8     0.00000007      -579.0508393774  0.00E+00
     6 GXTB-FDIIS  0.10E+01    0.8     3.6234E-09      -579.0508393774  0.00E+00
     7 GXTB-FDIIS  0.10E+01    0.8     1.2806E-09      -579.0508393774 -1.14E-13
     8 GXTB-FDIIS  0.10E+01    0.8     1.4704E-09      -579.0508393774  1.14E-13
     9 GXTB-FDIIS  0.10E+01    0.8     8.4254E-10      -579.0508393774  0.00E+00
    10 GXTB-FDIIS  0.10E+01    0.7     1.5993E-11      -579.0508393774  0.00E+00

  *** SCF run converged in    10 steps ***


  Core Hamiltonian energy:                                     -2.74936554209861
  Repulsive potential energy:                                   0.28052701220887
  Electrostatic energy:                                         0.02945481199776
  Self-consistent dispersion energy:                           -0.01740543527440
  Non-self consistent dispersion energy:                        0.00476641388502
  Correction for halogen bonding:                               0.00000000000000
  Electronic entropic energy:                                  -0.00000000000000
  Fermi energy:                                                -0.20959215364245

  Total energy:                                              -579.05083937740346
  Total energy (extrapolated to T->0):                       -579.05083937740346


 MULLIKEN POPULATION ANALYSIS

  # Atom   Element   Kind        Atomic population                    Net charge
       1     Si         1                 4.000000                     -0.000000
       2     Si         1                 4.000000                      0.000000
 # Total charge                           8.000000                     -0.000000


 ENERGY| Total FORCE_EVAL ( QS ) energy [hartree]           -579.050839377403463

 -------------------------------------------------------------------------------
 ----                             MULTIGRID INFO                            ----
 -------------------------------------------------------------------------------
 total grid count     :           132              cutoff [a.u.]            1.00

 PW_GRID| Information for grid number                                          9
 PW_GRID| Cutoff [a.u.]                                                      1.0
 PW_GRID| spherical cutoff:                                                   NO
 PW_GRID|   Bounds   1             -2       1                Points:           4
 PW_GRID|   Bounds   2             -2       1                Points:           4
 PW_GRID|   Bounds   3             -2       1                Points:           4
 PW_GRID| Volume element (a.u.^3)   4.223         Volume (a.u.^3)       270.2586
 PW_GRID| Grid span                                                    FULLSPACE

 POISSON| Solver                                                        PERIODIC
 POISSON| Periodicity                                                        XYZ

 RS_GRID| Information for grid number                                          9
 RS_GRID|   Bounds   1             -2       1                Points:           4
 RS_GRID|   Bounds   2             -2       1                Points:           4
 RS_GRID|   Bounds   3             -2       1                Points:           4

 Parameters for the always stable predictor-corrector (ASPC) method:
  ASPC order: 3
  B(1) =   3.000000
  B(2) =  -3.428571
  B(3) =   1.928571
  B(4) =  -0.571429
  B(5) =   0.071429

 Extrapolation method: ASPC

 Number of electrons:                                                          8
 Number of occupied orbitals:                                                  4
 Number of molecular orbitals:                                                18

 Number of orbital functions:                                                 18
 Number of independent orbital functions:                                     18


 SCF WAVEFUNCTION OPTIMIZATION

  Step     Update method      Time    Convergence         Total energy    Change
  ------------------------------------------------------------------------------
     1 GXTB-Raw    0.10E+01    0.7     0.00000811      -579.0508377298 -5.79E+02
     2 GXTB-Simple 0.20E+00    0.8     0.00000044      -579.0508377298 -1.48E-12
     3 GXTB-Simple 0.20E+00    0.8     0.00000038      -579.0508377298 -1.14E-12
     4 GXTB-FDIIS  0.10E+01    0.8     0.00000251      -579.0508377298 -3.07E-12
     5 GXTB-FDIIS  0.10E+01    0.8     0.00000009      -579.0508377298  1.14E-13
     6 GXTB-FDIIS  0.10E+01    0.8     4.0121E-09      -579.0508377298 -1.14E-13
     7 GXTB-FDIIS  0.10E+01    0.8     5.8234E-10      -579.0508377298  0.00E+00
     8 GXTB-FDIIS  0.10E+01    0.8     9.4240E-11      -579.0508377298  1.14E-13

  *** SCF run converged in     8 steps ***


  Core Hamiltonian energy:                                     -2.74936336437091
  Repulsive potential energy:                                   0.28051637339022
  Electrostatic energy:                                         0.02945406817960
  Self-consistent dispersion energy:                           -0.01740525658326
  Non-self consistent dispersion energy:                        0.00476631070508
  Correction for halogen bonding:                               0.00000000000000
  Electronic entropic energy:                                  -0.00000000000000
  Fermi energy:                                                -0.20960012013874

  Total energy:                                              -579.05083772984972
  Total energy (extrapolated to T->0):                       -579.05083772984972


 MULLIKEN POPULATION ANALYSIS

  # Atom   Element   Kind        Atomic population                    Net charge
       1     Si         1                 4.000000                     -0.000000
       2     Si         1                 4.000000                      0.000000
 # Total charge                           8.000000                      0.000000


 ENERGY| Total FORCE_EVAL ( QS ) energy [hartree]           -579.050837729849718

 DEBUG|           E(yx + 0.0001)           E(yx - 0.0001)           f(numerical)
 DEBUG|            -579.05083938            -579.05083773            -0.00823777

 -------------------------------------------------------------------------------
 ----                             MULTIGRID INFO                            ----
 -------------------------------------------------------------------------------
 total grid count     :           132              cutoff [a.u.]            1.00

 PW_GRID| Information for grid number                                         10
 PW_GRID| Cutoff [a.u.]                                                      1.0
 PW_GRID| spherical cutoff:                                                   NO
 PW_GRID|   Bounds   1             -2       1                Points:           4
 PW_GRID|   Bounds   2             -2       1                Points:           4
 PW_GRID|   Bounds   3             -2       1                Points:           4
 PW_GRID| Volume element (a.u.^3)   4.223         Volume (a.u.^3)       270.2607
 PW_GRID| Grid span                                                    FULLSPACE

 POISSON| Solver                                                        PERIODIC
 POISSON| Periodicity                                                        XYZ

 RS_GRID| Information for grid number                                         10
 RS_GRID|   Bounds   1             -2       1                Points:           4
 RS_GRID|   Bounds   2             -2       1                Points:           4
 RS_GRID|   Bounds   3             -2       1                Points:           4

 Parameters for the always stable predictor-corrector (ASPC) method:
  ASPC order: 3
  B(1) =   3.000000
  B(2) =  -3.428571
  B(3) =   1.928571
  B(4) =  -0.571429
  B(5) =   0.071429

 Extrapolation method: ASPC

 Number of electrons:                                                          8
 Number of occupied orbitals:                                                  4
 Number of molecular orbitals:                                                18

 Number of orbital functions:                                                 18
 Number of independent orbital functions:                                     18


 SCF WAVEFUNCTION OPTIMIZATION

  Step     Update method      Time    Convergence         Total energy    Change
  ------------------------------------------------------------------------------
     1 GXTB-Raw    0.10E+01    0.8     0.00000337      -579.0508369059 -5.79E+02
     2 GXTB-Simple 0.20E+00    0.8     0.00000022      -579.0508369059 -6.82E-13
     3 GXTB-Simple 0.20E+00    0.8     0.00000019      -579.0508369059 -3.41E-13
     4 GXTB-FDIIS  0.10E+01    0.8     0.00000124      -579.0508369059 -1.02E-12
     5 GXTB-FDIIS  0.10E+01    0.8     0.00000006      -579.0508369059  0.00E+00
     6 GXTB-FDIIS  0.10E+01    0.8     3.3836E-09      -579.0508369059  0.00E+00
     7 GXTB-FDIIS  0.10E+01    0.8     2.0665E-09      -579.0508369059  1.14E-13
     8 GXTB-FDIIS  0.10E+01    0.8     3.5897E-09      -579.0508369059 -1.14E-13
     9 GXTB-FDIIS  0.10E+01    0.8     3.8766E-10      -579.0508369059  0.00E+00
    10 GXTB-FDIIS  0.10E+01    0.8     1.0580E-11      -579.0508369059  0.00E+00

  *** SCF run converged in    10 steps ***


  Core Hamiltonian energy:                                     -2.74936227550283
  Repulsive potential energy:                                   0.28051105430959
  Electrostatic energy:                                         0.02945369626887
  Self-consistent dispersion energy:                           -0.01740516724054
  Non-self consistent dispersion energy:                        0.00476625911764
  Correction for halogen bonding:                               0.00000000000000
  Electronic entropic energy:                                  -0.00000000000000
  Fermi energy:                                                -0.20960531705914

  Total energy:                                              -579.05083690592835
  Total energy (extrapolated to T->0):                       -579.05083690592835


 MULLIKEN POPULATION ANALYSIS

  # Atom   Element   Kind        Atomic population                    Net charge
       1     Si         1                 4.000000                     -0.000000
       2     Si         1                 4.000000                      0.000000
 # Total charge                           8.000000                      0.000000


 ENERGY| Total FORCE_EVAL ( QS ) energy [hartree]           -579.050836905928350

 -------------------------------------------------------------------------------
 ----                             MULTIGRID INFO                            ----
 -------------------------------------------------------------------------------
 total grid count     :           132              cutoff [a.u.]            1.00

 PW_GRID| Information for grid number                                         11
 PW_GRID| Cutoff [a.u.]                                                      1.0
 PW_GRID| spherical cutoff:                                                   NO
 PW_GRID|   Bounds   1             -2       1                Points:           4
 PW_GRID|   Bounds   2             -2       1                Points:           4
 PW_GRID|   Bounds   3             -2       1                Points:           4
 PW_GRID| Volume element (a.u.^3)   4.223         Volume (a.u.^3)       270.2521
 PW_GRID| Grid span                                                    FULLSPACE

 POISSON| Solver                                                        PERIODIC
 POISSON| Periodicity                                                        XYZ

 RS_GRID| Information for grid number                                         11
 RS_GRID|   Bounds   1             -2       1                Points:           4
 RS_GRID|   Bounds   2             -2       1                Points:           4
 RS_GRID|   Bounds   3             -2       1                Points:           4

 Parameters for the always stable predictor-corrector (ASPC) method:
  ASPC order: 3
  B(1) =   3.000000
  B(2) =  -3.428571
  B(3) =   1.928571
  B(4) =  -0.571429
  B(5) =   0.071429

 Extrapolation method: ASPC

 Number of electrons:                                                          8
 Number of occupied orbitals:                                                  4
 Number of molecular orbitals:                                                18

 Number of orbital functions:                                                 18
 Number of independent orbital functions:                                     18


 SCF WAVEFUNCTION OPTIMIZATION

  Step     Update method      Time    Convergence         Total energy    Change
  ------------------------------------------------------------------------------
     1 GXTB-Raw    0.10E+01    0.7     0.00001171      -579.0508402010 -5.79E+02
     2 GXTB-Simple 0.20E+00    0.8     0.00000088      -579.0508402010 -2.61E-12
     3 GXTB-Simple 0.20E+00    0.7     0.00000076      -579.0508402010 -2.05E-12
     4 GXTB-FDIIS  0.10E+01    0.8     0.00000515      -579.0508402010 -6.03E-12
     5 GXTB-FDIIS  0.10E+01    0.7     0.00000007      -579.0508402010 -1.14E-13
     6 GXTB-FDIIS  0.10E+01    0.7     6.1712E-09      -579.0508402010  0.00E+00
     7 GXTB-FDIIS  0.10E+01    0.8     9.3148E-10      -579.0508402010  0.00E+00
     8 GXTB-FDIIS  0.10E+01    0.8     1.3220E-10      -579.0508402010  1.14E-13
     9 GXTB-FDIIS  0.10E+01    0.7     1.4440E-11      -579.0508402010 -1.14E-13

  *** SCF run converged in     9 steps ***


  Core Hamiltonian energy:                                     -2.74936663095418
  Repulsive potential energy:                                   0.28053233194692
  Electrostatic energy:                                         0.02945518390366
  Self-consistent dispersion energy:                           -0.01740552462283
  Non-self consistent dispersion energy:                        0.00476646547751
  Correction for halogen bonding:                               0.00000000000000
  Electronic entropic energy:                                  -0.00000000000000
  Fermi energy:                                                -0.20957885587772

  Total energy:                                              -579.05084020103573
  Total energy (extrapolated to T->0):                       -579.05084020103573


 MULLIKEN POPULATION ANALYSIS

  # Atom   Element   Kind        Atomic population                    Net charge
       1     Si         1                 4.000000                     -0.000000
       2     Si         1                 4.000000                      0.000000
 # Total charge                           8.000000                     -0.000000


 ENERGY| Total FORCE_EVAL ( QS ) energy [hartree]           -579.050840201035726

 DEBUG|           E(yy + 0.0001)           E(yy - 0.0001)           f(numerical)
 DEBUG|            -579.05083691            -579.05084020             0.01647554

 -------------------------------------------------------------------------------
 ----                             MULTIGRID INFO                            ----
 -------------------------------------------------------------------------------
 total grid count     :           132              cutoff [a.u.]            1.00

 PW_GRID| Information for grid number                                         12
 PW_GRID| Cutoff [a.u.]                                                      1.0
 PW_GRID| spherical cutoff:                                                   NO
 PW_GRID|   Bounds   1             -2       1                Points:           4
 PW_GRID|   Bounds   2             -2       1                Points:           4
 PW_GRID|   Bounds   3             -2       1                Points:           4
 PW_GRID| Volume element (a.u.^3)   4.223         Volume (a.u.^3)       270.2564
 PW_GRID| Grid span                                                    FULLSPACE

 POISSON| Solver                                                        PERIODIC
 POISSON| Periodicity                                                        XYZ

 RS_GRID| Information for grid number                                         12
 RS_GRID|   Bounds   1             -2       1                Points:           4
 RS_GRID|   Bounds   2             -2       1                Points:           4
 RS_GRID|   Bounds   3             -2       1                Points:           4

 Parameters for the always stable predictor-corrector (ASPC) method:
  ASPC order: 3
  B(1) =   3.000000
  B(2) =  -3.428571
  B(3) =   1.928571
  B(4) =  -0.571429
  B(5) =   0.071429

 Extrapolation method: ASPC

 Number of electrons:                                                          8
 Number of occupied orbitals:                                                  4
 Number of molecular orbitals:                                                18

 Number of orbital functions:                                                 18
 Number of independent orbital functions:                                     18


 SCF WAVEFUNCTION OPTIMIZATION

  Step     Update method      Time    Convergence         Total energy    Change
  ------------------------------------------------------------------------------
     1 GXTB-Raw    0.10E+01    0.7     0.00000585      -579.0508385537 -5.79E+02
     2 GXTB-Simple 0.20E+00    0.8     0.00000044      -579.0508385537 -6.82E-13
     3 GXTB-Simple 0.20E+00    0.8     0.00000038      -579.0508385537 -5.68E-13
     4 GXTB-FDIIS  0.10E+01    0.8     0.00000258      -579.0508385537 -1.48E-12
     5 GXTB-FDIIS  0.10E+01    0.7     0.00000003      -579.0508385537  0.00E+00
     6 GXTB-FDIIS  0.10E+01    0.8     2.1394E-09      -579.0508385537  0.00E+00
     7 GXTB-FDIIS  0.10E+01    0.8     1.7102E-09      -579.0508385537  0.00E+00
     8 GXTB-FDIIS  0.10E+01    0.8     2.8486E-09      -579.0508385537  0.00E+00
     9 GXTB-FDIIS  0.10E+01    0.8     2.4387E-10      -579.0508385537  0.00E+00
    10 GXTB-FDIIS  0.10E+01    0.8     7.7731E-12      -579.0508385537  0.00E+00

  *** SCF run converged in    10 steps ***


  Core Hamiltonian energy:                                     -2.74936445323755
  Repulsive potential energy:                                   0.28052169268997
  Electrostatic energy:                                         0.02945444008973
  Self-consistent dispersion energy:                           -0.01740534592788
  Non-self consistent dispersion energy:                        0.00476636229421
  Correction for halogen bonding:                               0.00000000000000
  Electronic entropic energy:                                  -0.00000000000000
  Fermi energy:                                                -0.20959781520999

  Total energy:                                              -579.05083855367491
  Total energy (extrapolated to T->0):                       -579.05083855367491


 MULLIKEN POPULATION ANALYSIS

  # Atom   Element   Kind        Atomic population                    Net charge
       1     Si         1                 4.000000                     -0.000000
       2     Si         1                 4.000000                      0.000000
 # Total charge                           8.000000                     -0.000000


 ENERGY| Total FORCE_EVAL ( QS ) energy [hartree]           -579.050838553674907

 -------------------------------------------------------------------------------
 ----                             MULTIGRID INFO                            ----
 -------------------------------------------------------------------------------
 total grid count     :           132              cutoff [a.u.]            1.00

 PW_GRID| Information for grid number                                         13
 PW_GRID| Cutoff [a.u.]                                                      1.0
 PW_GRID| spherical cutoff:                                                   NO
 PW_GRID|   Bounds   1             -2       1                Points:           4
 PW_GRID|   Bounds   2             -2       1                Points:           4
 PW_GRID|   Bounds   3             -2       1                Points:           4
 PW_GRID| Volume element (a.u.^3)   4.223         Volume (a.u.^3)       270.2564
 PW_GRID| Grid span                                                    FULLSPACE

 POISSON| Solver                                                        PERIODIC
 POISSON| Periodicity                                                        XYZ

 RS_GRID| Information for grid number                                         13
 RS_GRID|   Bounds   1             -2       1                Points:           4
 RS_GRID|   Bounds   2             -2       1                Points:           4
 RS_GRID|   Bounds   3             -2       1                Points:           4

 Parameters for the always stable predictor-corrector (ASPC) method:
  ASPC order: 3
  B(1) =   3.000000
  B(2) =  -3.428571
  B(3) =   1.928571
  B(4) =  -0.571429
  B(5) =   0.071429

 Extrapolation method: ASPC

 Number of electrons:                                                          8
 Number of occupied orbitals:                                                  4
 Number of molecular orbitals:                                                18

 Number of orbital functions:                                                 18
 Number of independent orbital functions:                                     18


 SCF WAVEFUNCTION OPTIMIZATION

  Step     Update method      Time    Convergence         Total energy    Change
  ------------------------------------------------------------------------------
     1 GXTB-Raw    0.10E+01    0.7     0.00000897      -579.0508385537 -5.79E+02
     2 GXTB-Simple 0.20E+00    0.8     0.00000030      -579.0508385537 -1.14E-12
     3 GXTB-Simple 0.20E+00    0.8     0.00000026      -579.0508385537 -9.09E-13
     4 GXTB-FDIIS  0.10E+01    1.0     0.00000137      -579.0508385537 -1.93E-12
     5 GXTB-FDIIS  0.10E+01    0.9     0.00000004      -579.0508385537 -1.14E-13
     6 GXTB-FDIIS  0.10E+01    0.9     5.2258E-09      -579.0508385537  0.00E+00
     7 GXTB-FDIIS  0.10E+01    0.9     6.3570E-10      -579.0508385537  0.00E+00
     8 GXTB-FDIIS  0.10E+01    0.8     7.1759E-11      -579.0508385537  0.00E+00

  *** SCF run converged in     8 steps ***


  Core Hamiltonian energy:                                     -2.74936445323752
  Repulsive potential energy:                                   0.28052169268997
  Electrostatic energy:                                         0.02945444008973
  Self-consistent dispersion energy:                           -0.01740534592788
  Non-self consistent dispersion energy:                        0.00476636229421
  Correction for halogen bonding:                               0.00000000000000
  Electronic entropic energy:                                  -0.00000000000000
  Fermi energy:                                                -0.20959850913353

  Total energy:                                              -579.05083855367491
[...]
      2    1 Si   14      1.920148      1.108598      0.783897   4.0000  28.0855


 Parameters for the always stable predictor-corrector (ASPC) method:
  ASPC order: 3
  B(1) =   3.000000
  B(2) =  -3.428571
  B(3) =   1.928571
  B(4) =  -0.571429
  B(5) =   0.071429

 Extrapolation method: ASPC

 Number of electrons:                                                          8
 Number of occupied orbitals:                                                  4
 Number of molecular orbitals:                                                18

 Number of orbital functions:                                                 18
 Number of independent orbital functions:                                     18


 SCF WAVEFUNCTION OPTIMIZATION

  Step     Update method      Time    Convergence         Total energy    Change
  ------------------------------------------------------------------------------
     1 GXTB-Raw    0.10E+01    0.7     5.2111E-13      -579.0508385538 -5.79E+02

  *** SCF run converged in     1 steps ***


  Core Hamiltonian energy:                                     -2.74936445335311
  Repulsive potential energy:                                   0.28052169269639
  Electrostatic energy:                                         0.02945444009448
  Self-consistent dispersion energy:                           -0.01740534592769
  Non-self consistent dispersion energy:                        0.00476636229403
  Correction for halogen bonding:                               0.00000000000000
  Electronic entropic energy:                                  -0.00000000000000
  Fermi energy:                                                -0.20960664029524

  Total energy:                                              -579.05083855381713
  Total energy (extrapolated to T->0):                       -579.05083855381713


 MULLIKEN POPULATION ANALYSIS

  # Atom   Element   Kind        Atomic population                    Net charge
       1     Si         1                 4.000000                     -0.000000
       2     Si         1                 4.000000                      0.000000
 # Total charge                           8.000000                      0.000000


 ENERGY| Total FORCE_EVAL ( QS ) energy [hartree]           -579.050838553817130

 FORCES| Atomic forces [hartree/bohr]
 FORCES|   Atom     x               y               z               |f|
 FORCES|      1  2.00823547E-16  3.00443979E-16 -2.54612777E-14   2.54638422E-14
 FORCES|      2 -2.00249509E-16 -3.01238617E-16  2.54616680E-14   2.54642373E-14
 FORCES| Sum     5.74038004E-19 -7.94638143E-19  3.90289766E-19
 FORCES| Total atomic force                                       1.05512820E-18


 MODULE DEBUG: ATOMIC COORDINATES IN ANGSTROM

   Atom Kind Element         X             Y             Z       Z(eff)     Mass
      1    1 Si   14      0.000000      0.000000      0.000000   4.0000  28.0855
      2    1 Si   14      1.920201      1.108598      0.783897   4.0000  28.0855


 Parameters for the always stable predictor-corrector (ASPC) method:
  ASPC order: 3
  B(1) =   3.000000
  B(2) =  -3.428571
  B(3) =   1.928571
  B(4) =  -0.571429
  B(5) =   0.071429

 Extrapolation method: ASPC

 Number of electrons:                                                          8
 Number of occupied orbitals:                                                  4
 Number of molecular orbitals:                                                18

 Number of orbital functions:                                                 18
 Number of independent orbital functions:                                     18


 SCF WAVEFUNCTION OPTIMIZATION

  Step     Update method      Time    Convergence         Total energy    Change
  ------------------------------------------------------------------------------
     1 GXTB-Raw    0.10E+01    0.7     0.00000709      -579.0508385528 -5.79E+02
     2 GXTB-Simple 0.20E+00    0.8     0.00000028      -579.0508385528 -1.02E-12
     3 GXTB-Simple 0.20E+00    0.8     0.00000023      -579.0508385528 -6.82E-13
     4 GXTB-FDIIS  0.10E+01    0.8     0.00000125      -579.0508385528 -1.71E-12
     5 GXTB-FDIIS  0.10E+01    0.8     8.3933E-09      -579.0508385528  0.00E+00
     6 GXTB-FDIIS  0.10E+01    0.8     9.6240E-10      -579.0508385528  1.14E-13
     7 GXTB-FDIIS  0.10E+01    0.8     2.6619E-10      -579.0508385528  0.00E+00
     8 GXTB-FDIIS  0.10E+01    0.8     3.3904E-11      -579.0508385528  0.00E+00

  *** SCF run converged in     8 steps ***


  Core Hamiltonian energy:                                     -2.74936445317433
  Repulsive potential energy:                                   0.28052169348880
  Electrostatic energy:                                         0.02945444010286
  Self-consistent dispersion energy:                           -0.01740534595051
  Non-self consistent dispersion energy:                        0.00476636230316
  Correction for halogen bonding:                               0.00000000000000
  Electronic entropic energy:                                  -0.00000000000000
  Fermi energy:                                                -0.20956634646752

  Total energy:                                              -579.05083855276496
  Total energy (extrapolated to T->0):                       -579.05083855276496


 MULLIKEN POPULATION ANALYSIS

  # Atom   Element   Kind        Atomic population                    Net charge
       1     Si         1                 4.000000                     -0.000000
       2     Si         1                 4.000000                      0.000000
 # Total charge                           8.000000                      0.000000


 ENERGY| Total FORCE_EVAL ( QS ) energy [hartree]           -579.050838552764958


 MODULE DEBUG: ATOMIC COORDINATES IN ANGSTROM

   Atom Kind Element         X             Y             Z       Z(eff)     Mass
      1    1 Si   14      0.000000      0.000000      0.000000   4.0000  28.0855
      2    1 Si   14      1.920096      1.108598      0.783897   4.0000  28.0855


 Parameters for the always stable predictor-corrector (ASPC) method:
  ASPC order: 3
  B(1) =   3.000000
  B(2) =  -3.428571
  B(3) =   1.928571
  B(4) =  -0.571429
  B(5) =   0.071429

 Extrapolation method: ASPC

 Number of electrons:                                                          8
 Number of occupied orbitals:                                                  4
 Number of molecular orbitals:                                                18

 Number of orbital functions:                                                 18
 Number of independent orbital functions:                                     18


 SCF WAVEFUNCTION OPTIMIZATION

  Step     Update method      Time    Convergence         Total energy    Change
  ------------------------------------------------------------------------------
     1 GXTB-Raw    0.10E+01    0.7     0.00001419      -579.0508385528 -5.79E+02
     2 GXTB-Simple 0.20E+00    0.9     0.00000056      -579.0508385528 -3.98E-12
     3 GXTB-Simple 0.20E+00    0.8     0.00000047      -579.0508385528 -2.84E-12
     4 GXTB-FDIIS  0.10E+01    0.8     0.00000249      -579.0508385528 -6.82E-12
     5 GXTB-FDIIS  0.10E+01    0.8     0.00000002      -579.0508385528 -1.14E-13
     6 GXTB-FDIIS  0.10E+01    0.8     1.9248E-09      -579.0508385528  1.14E-13
     7 GXTB-FDIIS  0.10E+01    0.8     5.3124E-10      -579.0508385528  1.14E-13
     8 GXTB-FDIIS  0.10E+01    0.8     3.2226E-10      -579.0508385528  0.00E+00
     9 GXTB-FDIIS  0.10E+01    0.7     5.9237E-10      -579.0508385528  0.00E+00
    10 GXTB-FDIIS  0.10E+01    0.8     1.8690E-11      -579.0508385528  0.00E+00

  *** SCF run converged in    10 steps ***


  Core Hamiltonian energy:                                     -2.74936445317433
  Repulsive potential energy:                                   0.28052169348880
  Electrostatic energy:                                         0.02945444010286
  Self-consistent dispersion energy:                           -0.01740534595051
  Non-self consistent dispersion energy:                        0.00476636230316
  Correction for halogen bonding:                               0.00000000000000
  Electronic entropic energy:                                  -0.00000000000000
  Fermi energy:                                                -0.20956634646749

  Total energy:                                              -579.05083855276496
  Total energy (extrapolated to T->0):                       -579.05083855276496


 MULLIKEN POPULATION ANALYSIS

  # Atom   Element   Kind        Atomic population                    Net charge
       1     Si         1                 4.000000                     -0.000000
       2     Si         1                 4.000000                      0.000000
 # Total charge                           8.000000                     -0.000000


 ENERGY| Total FORCE_EVAL ( QS ) energy [hartree]           -579.050838552764958

 DEBUG| Atom    E(x + 0.0001)    E(x - 0.0001)     f(numerical)    f(analytical)
 DEBUG|    2    -579.05083855    -579.05083855      -0.00000000      -0.00000000

 DEBUG| Atom  Coordinate   f(numerical)   f(analytical)   Difference   Error [%]
 DEBUG|    2      x         -0.00000000     -0.00000000  -0.00000000           -

 DEBUG|======================== BEGIN OF SUMMARY ===============================
 DEBUG| Atom  Coordinate   f(numerical)   f(analytical)   Difference   Error [%]
 DEBUG|    2      x         -0.00000000     -0.00000000  -0.00000000           -
 DEBUG| Sum of differences:                               0.00000000        0.00
 DEBUG|======================== END OF SUMMARY =================================

 -------------------------------------------------------------------------------
 -                                                                             -
 -                                DBCSR STATISTICS                             -
 -                                                                             -
 -------------------------------------------------------------------------------
 COUNTER                                    TOTAL       BLAS       SMM       ACC
 flops inhomo. stacks                           0       0.0%      0.0%      0.0%
 flops total                         0.000000E+00       0.0%      0.0%      0.0%
 flops max/rank                      0.000000E+00       0.0%      0.0%      0.0%
 matmuls inhomo. stacks                         0       0.0%      0.0%      0.0%
 matmuls total                                  0       0.0%      0.0%      0.0%
 number of processed stacks                     0       0.0%      0.0%      0.0%
 average stack size                                     0.0       0.0       0.0
 marketing flops                     0.000000E+00
 -------------------------------------------------------------------------------
 -                                                                             -
 -                      DBCSR MESSAGE PASSING PERFORMANCE                      -
 -                                                                             -
 -------------------------------------------------------------------------------
 ROUTINE             CALLS      AVE VOLUME [Bytes]
 MP_Bcast                1                     12.
 MP_Allreduce           19                     21.
 MP_Alltoall        150944                   1786.
 -------------------------------------------------------------------------------

 -------------------------------------------------------------------------------
 -                                                                             -
 -                          OFFLOAD MEMPOOL STATISTICS                         -
 -                                                                             -
 -------------------------------------------------------------------------------
 Memory consumption                Number of allocations  Used [MiB]  Size [MiB]
 Host                                                  1           0           0
 -------------------------------------------------------------------------------

 MEMORY| Estimated peak process memory [MiB]                                 500

 -------------------------------------------------------------------------------
 ----                             MULTIGRID INFO                            ----
 -------------------------------------------------------------------------------
 total grid count     :           132              cutoff [a.u.]            1.00

 -------------------------------------------------------------------------------
 -                                                                             -
 -                         MESSAGE PASSING PERFORMANCE                         -
 -                                                                             -
 -------------------------------------------------------------------------------

 ROUTINE             CALLS      AVE VOLUME [Bytes]
 MP_Group               20
 MP_Bcast           150927                      7.
 MP_Allreduce     14340129                     34.
 MP_Sync                20
 MP_Wait            125600
 MP_ISend           175840                    376.
 MP_IRecv           175840                    376.
 -------------------------------------------------------------------------------


 -------------------------------------------------------------------------------
 -                                                                             -
 -                           R E F E R E N C E S                               -
 -                                                                             -
 -------------------------------------------------------------------------------
 
 CP2K version 2026.1 (Development Version), the CP2K developers group (2026).
 CP2K is freely available from https://www.cp2k.org/ .
 
 M. Iannuzzi, J. Wilhelm, F. Stein, A. Bussy, H. Elgabarty, D. Golze, A. Hehn, 
 M. Graml, S. Marek, B. Sertcan Gökmen, C. Schran, H. Forbert, R. Z. 
 Khaliullin, A. Kozhevnikov, M. Taillefumier, R. Meli, V. V. Rybkin, M. Brehm, 
 R. Schade, O. Schütt, J. V. Pototschnig, H. Mirhosseini, A. Knüpfer, D. Marx, 
 M. Krack, J. Hutter, T. D. Kühne.
 J. Phys. Chem. B 130, 1237-1310 (2026).
 The CP2K Program Package Made Simple.
 https://doi.org/10.1021/acs.jpcb.5c05851

 A. Katbashev, M. Stahn, T. Rose, V. Alizadeh, M. Friede, C. Plett, P. 
 Steinbach, S. Ehlert.
 J. Phys. Chem. A 129, 2667-2682 (2025).
 Overview on Building Blocks and Applications of Efficient and Robust Extended 
 Tight Binding.
 https://doi.org/10.1021/acs.jpca.4c08263

 T. D. Kühne, M. Iannuzzi, M. Del Ben, V. V. Rybkin, P. Seewald, F. Stein, T. 
 Laino, R. Z. Khaliullin, O. Schütt, F. Schiffmann, D. Golze, J. Wilhelm, S. 
 Chulkov, M. H. Bani-Hashemian, V. Weber, U. Borstnik, M. Taillefumier, A. S. 
 Jakobovits, A. Lazzaro, H. Pabst, T. Müller, R. Schade, M. Guidon, S. 
 Andermatt, N. Holmberg, G. K. Schenter, A. Hehn, A. Bussy, F. Belleflamme, G. 
 Tabacchi, A. Glöß, M. Lass, I. Bethune, C. J. Mundy, C. Plessl, M. Watkins, 
 J. VandeVondele, M. Krack, J. Hutter.
 J. Chem. Phys. 152, 194103 (2020).
 CP2K: An electronic structure and molecular dynamics software package - 
 Quickstep: Efficient and accurate electronic structure calculations.
 https://doi.org/10.1063/5.0007045

 P. Pracht, E. Caldeweyher, S. Ehlert, S. Grimme.
 ChemRxiv, (2019).
 A Robust Non-Self-Consistent Tight-Binding Quantum Chemistry Method for large 
 Molecules.
 https://doi.org/10.26434/chemrxiv.8326202.v1

 S. Grimme, C. Bannwarth, P. Shushkov.
 J. Chem. Theory Comput. 13, 1989 (2017).
 A Robust and Accurate Tight-Binding Quantum Chemical Method for Structures, 
 Vibrational Frequencies, and Noncovalent Interactions of Large Molecular 
 Systems Parametrized for All spd-Block Elements (Z = 1-86).
 https://doi.org/10.1021/acs.jctc.7b00118

 O. Schuett, P. Messmer, J. Hutter, J. VandeVondele.
 Electronic Structure Calculations on Graphics Processing Units, 173-190 (2016).
 GPU-Accelerated Sparse Matrix-Matrix Multiplication for Linear Scaling Density 
 Functional Theory.
 https://doi.org/10.1002/9781118670712.ch8

 U. Borstnik, J. VandeVondele, V. Weber, J. Hutter.
 Parallel Comput. 40, 47-58 (2014).
 Sparse matrix multiplication: The distributed block-compressed sparse row 
 library.
 https://doi.org/10.1016/j.parco.2014.03.012

 T. D. Kühne, M. Krack, F. R. Mohamed, M. Parrinello.
 Phys. Rev. Lett. 98, 066401 (2007).
 Efficient and accurate Car-Parrinello-like approach to Born-Oppenheimer 
 molecular dynamics.
 https://doi.org/10.1103/PhysRevLett.98.066401

 M. Frigo, S. G. Johnson.
 Proc. IEEE 93, 216-231 (2005).
 The design and implementation of FFTW3.
 https://doi.org/10.1109/JPROC.2004.840301

 J. Kolafa.
 J. Comput. Chem. 25, 335-342 (2004).
 Time-reversible always stable predictor-corrector method for molecular dynamics 
 of polarizable molecules.
 https://doi.org/10.1002/jcc.10385

 N. D. Mermin.
 Phys. Rev. 137, A1441-A1443 (1965).
 Thermal Properties of the Inhomogeneous Electron Gas.
 https://doi.org/10.1103/PhysRev.137.A1441


 -------------------------------------------------------------------------------
 -                                                                             -
 -                                T I M I N G                                  -
 -                                                                             -
 -------------------------------------------------------------------------------
 SUBROUTINE                       CALLS  ASD         SELF TIME        TOTAL TIME
                                MAXIMUM       AVERAGE  MAXIMUM  AVERAGE  MAXIMUM
 CP2K                                 1  1.0    0.040    0.040  539.503  539.503
 qs_energies                         23  2.1    0.137    0.137  517.711  517.711
 cp_dbcsr_alloc_block_from_nbl  1625044  5.0  341.405  341.405  346.764  346.764
 build_tblite_matrices               25  4.0    8.568    8.568  327.782  327.782
 qs_energies_init_hamiltonians       23  3.1    0.047    0.047  324.853  324.853
 scf_env_do_scf                      23  3.1    0.001    0.001  165.423  165.423
 scf_env_do_scf_inner_loop          207  4.1   18.296   18.296  165.422  165.422
 qs_ks_update_qs_env                228  4.9    0.002    0.002   81.932   81.932
 rebuild_ks_matrix                  230  5.9    0.002    0.002   80.510   80.510
 build_tblite_ks_matrix             230  6.9   49.367   49.367   80.509   80.509
 qs_forces                            2  2.0    0.009    0.009   54.858   54.858
 rskp_transform                    8840  6.8   45.010   45.010   45.010   45.010
 qs_scf_new_mos_kp                  207  5.1    0.003    0.003   38.552   38.552
 do_general_diag_kp                 207  6.1    0.121    0.121   38.549   38.549
 dbcsr_iterator_start           *******  6.7   15.033   15.033   17.678   17.678
 qs_env_update_s_mstruct             23  4.1    0.000    0.000   15.288   15.288
 qs_env_rebuild_rho                  23  5.1    0.000    0.000   15.139   15.139
 qs_rho_rebuild                      23  6.1    0.158    0.158   15.139   15.139
 dbcsr_copy                     1251366  6.5   11.181   11.181   13.311   13.311
 kpoint_density_transform           233  7.1    0.243    0.243   11.254   11.254
 -------------------------------------------------------------------------------

 The number of warnings for this run is : 0
 
 -------------------------------------------------------------------------------
  **** **** ******  **  PROGRAM ENDED AT                 2026-07-16 13:36:15.380
 ***** ** ***  *** **   PROGRAM RAN ON                                     terok
 **    ****   ******    PROGRAM RAN BY                                  kuehne88
 ***** **    ** ** **   PROGRAM PROCESS ID                               1787903
  **** **  *******  **  PROGRAM STOPPED IN                        /home/kuehne88
