 DBCSR| CPU Multiplication driver                                           XSMM (U)
 DBCSR| Multrec recursion limit                                              512 (U)
 DBCSR| Multiplication stack size                                           1000 (D)
 DBCSR| Maximum elements for images                                    UNLIMITED (U)
 DBCSR| Multiplicative factor virtual images                                   1 (U)
 DBCSR| Use multiplication densification                                       T (D)
 DBCSR| Multiplication size stacks                                             3 (U)
 DBCSR| Use memory pool for CPU allocation                                     F (U)
 DBCSR| Number of 3D layers                                               SINGLE (U)
 DBCSR| Use MPI memory allocation                                              F (U)
 DBCSR| Use RMA algorithm                                                      F (U)
 DBCSR| Use Communication thread                                               T (U)
 DBCSR| Communication thread load                                             87 (D)
 DBCSR| MPI: My process id                                                     0
 DBCSR| MPI: Number of processes                                               1
 DBCSR| OMP: Current number of threads                                         1
 DBCSR| OMP: Max number of threads                                             1
 DBCSR| Split modifier for TAS multiplication algorithm                  1.0E+00 (U)


  **** **** ******  **  PROGRAM STARTED AT               2026-05-23 22:47:08.567
 ***** ** ***  *** **   PROGRAM STARTED ON                            spark-c86c
 **    ****   ******    PROGRAM STARTED BY                              kuehne88
 ***** **    ** ** **   PROGRAM PROCESS ID                               2267568
  **** **  *******  **  PROGRAM STARTED IN /home/kuehne88/periodic-gfn2-benchmar
                                           ks/X23b/runs/cellopt_gamma/GFN2/14-cy
                                           clohexanedione_GFN2_gamma_cellopt

 CP2K| version string:                 CP2K version 2026.1 (Development Version)
 CP2K| source code revision number:                                   0622d442e4
 CP2K| cp2kflags: omp fftw3 libxc parallel scalapack mpi_f08 xsmm spglib libdftd
 CP2K|            4 dftd4_v3 mctc-lib tblite
 CP2K| is freely available from                            https://www.cp2k.org/
 CP2K| Program compiled at                                   2026-05-23 22:05:08
 CP2K| Program compiled on                                            spark-c86c
 CP2K| Program compiled for                                              aarch64
 CP2K| Data directory path    /home/kuehne88/cp2k-master-tblite-20260523/install
 CP2K| Input file name                14-cyclohexanedione_GFN2_gamma_cellopt.inp

 GLOBAL| Force Environment number                                              1
 GLOBAL| Basis set file name                                           BASIS_SET
 GLOBAL| Potential file name                                           POTENTIAL
 GLOBAL| MM Potential file name                                     MM_POTENTIAL
 GLOBAL| Coordinate file name                                      __STD_INPUT__
 GLOBAL| Method name                                                        CP2K
 GLOBAL| Project name                    14_cyclohexanedione_GFN2_gamma_cell_opt
 GLOBAL| Run type                                                       CELL_OPT
 GLOBAL| FFT library                                                       FFTW3
 GLOBAL| Diagonalization library                                       ScaLAPACK
 GLOBAL| Cholesky decomposition library                                ScaLAPACK
 GLOBAL| DGEMM library                                                      BLAS
 GLOBAL| Direct generalized diagonalization requested                          F
 GLOBAL| Orthonormality check for eigenvectors                          DISABLED
 GLOBAL| Matrix multiplication library                                 ScaLAPACK
 GLOBAL| All-to-all communication in single precision                          F
 GLOBAL| FFTs using library dependent lengths                                  F
 GLOBAL| Grid backend                                                       AUTO
 GLOBAL| Global print level                                                  LOW
 GLOBAL| MPI I/O enabled                                                       T
 GLOBAL| Total number of message passing processes                             1
 GLOBAL| Number of distributed systems (nodes)                                 1
 GLOBAL| Number of threads for this process                                    1
 GLOBAL| This output is from process                                           0
 GLOBAL| OpenMP stack size per thread (OMP_STACKSIZE)                    default
 GLOBAL| CPU model name                                                  UNKNOWN
 GLOBAL| CPUID                                                              2200
 GLOBAL| Compiled for CPUID                                                 2000

 *** HINT in environment.F:970 :: The compiler target flags (arm_arch64)   ***
 *** used to build this binary cannot exploit all extensions of this CPU   ***
 *** model (arm_sve256). Consider compiler target flags as part of FCFLAGS ***
 *** and CFLAGS (ARCH file).                                               ***


 MEMORY| system memory details [Kb]
 MEMORY|                        rank 0           min           max       average
 MEMORY| MemTotal            125508532     125508532     125508532     125508532
 MEMORY| MemFree             104402216     104402216     104402216     104402216
 MEMORY| Buffers                867744        867744        867744        867744
 MEMORY| Cached               14063892      14063892      14063892      14063892
 MEMORY| Slab                  1595128       1595128       1595128       1595128
 MEMORY| SReclaimable           916516        916516        916516        916516
 MEMORY| MemLikelyFree       120250368     120250368     120250368     120250368


 GENERATE|  Preliminary Number of Bonds generated:                             0
 GENERATE|  Achieved consistency in connectivity generation.


                  #####   #####        #     #   #     #       #          
                 #     # #     #      #    ##### #     #   # #####  ####  
                 #     # #           #       #   ###   #       #   #    # 
                 #     #  #####     #        #   #  #  #   #   #   ###### 
                 #   # #       #   #         #   #   # #   #   #   #      
                 #    #  #     #  #          #   #  #  # # #   #    #   # 
                  #### #  #####  #           #   ###   ##  #   #     ###  

                                   GFN2-xTB  
                                 Version 0.0                       
                            Johann V. Pototschnig                  



 TOTAL NUMBERS AND MAXIMUM NUMBERS

  Total number of            - Atomic kinds:                                   3
                             - Atoms:                                         32
                             - Shell sets:                                    48
                             - Shells:                                        48
                             - Primitive Cartesian functions:                176
                             - Cartesian basis functions:                     80
                             - Spherical basis functions:                     80

  Maximum angular momentum of the orbital basis functions:                     1


 SCF PARAMETERS         Density guess:                                     MOPAC
                        --------------------------------------------------------
                        max_scf:                                             300
                        max_scf_history:                                       0
                        max_diis:                                              4
                        --------------------------------------------------------
                        eps_scf:                                        1.00E-09
                        eps_scf_history:                                0.00E+00
                        eps_diis:                                       1.00E-01
                        eps_eigval:                                     1.00E-05
                        --------------------------------------------------------
                        level_shift [a.u.]:                             0.000000
                        added MOs                                        36    0
                        --------------------------------------------------------
                        Mixing method:                           DIRECT_P_MIXING
                        --------------------------------------------------------
                        Smear method:                                FERMI_DIRAC
                        Electronic temperature [K]:                        300.0
                        Electronic temperature [a.u.]:                  9.50E-04
                        Accuracy threshold:                             1.00E-06
                        --------------------------------------------------------
                        No outer SCF

 CELL_OPT| Pressure tolerance [bar]:                                       100.0
 CELL_OPT| Keep volume of cell:                                               NO
 CELL_OPT| Keep angles between the cell vectors:                              NO
 CELL_OPT| Keep cell symmetry:                                                NO
 CELL_OPT| Constraint:                                                      NONE

 BFGS| Use rational function optimization for step estimation:                NO
 BFGS| Use model Hessian for initial guess:                                   NO
 BFGS| Restart Hessian:                                                       NO
 BFGS| Trust radius:                                                       0.472

 *******************************************************************************
 ***                     STARTING   CELL   OPTIMIZATION                      ***
 ***                                   BFGS                                  ***
 *******************************************************************************

 CELL| Volume [angstrom^3]:                                           279.550201
 CELL| Vector a [angstrom]:       6.650     0.000     0.000   |a| =     6.650000
 CELL| Vector b [angstrom]:       0.000     6.210     0.000   |b| =     6.210000
 CELL| Vector c [angstrom]:      -1.172     0.000     6.769   |c| =     6.870000
 CELL| Angle (b,c), alpha [degree]:                                    90.000000
 CELL| Angle (a,c), beta  [degree]:                                    99.820000
 CELL| Angle (a,b), gamma [degree]:                                    90.000000
 CELL| Numerically orthorhombic:                                              NO
 CELL| Periodicity                                                           XYZ

 Extrapolation method: initial_guess

 Number of electrons:                                                         88
 Number of occupied orbitals:                                                 44
 Number of molecular orbitals:                                                80

 Number of orbital functions:                                                 80
 Number of independent orbital functions:                                     80


 SCF WAVEFUNCTION OPTIMIZATION

  Step     Update method      Time    Convergence         Total energy    Change
  ------------------------------------------------------------------------------
     1 TBLite/Diag 0.40E+00    0.0     0.72793768       -49.6677254993 -4.97E+01
     2 TBLite/Diag 0.40E+00    0.0     0.39978986       -50.1068412992 -4.39E-01
     3 TBLite/Diag 0.40E+00    0.0     0.11558849       -50.1419814500 -3.51E-02
     4 TBLite/Diag 0.40E+00    0.0     0.08994178       -50.1515979988 -9.62E-03
     5 TBLite/Diag 0.40E+00    0.0     0.04403543       -50.1540366417 -2.44E-03
     6 TBLite/Diag 0.40E+00    0.0     0.01629675       -50.1542376240 -2.01E-04
     7 TBLite/Diag 0.40E+00    0.0     0.01073266       -50.1543446875 -1.07E-04
     8 TBLite/Diag 0.40E+00    0.0     0.00108463       -50.1543508397 -6.15E-06
     9 TBLite/Diag 0.40E+00    0.0     0.00127327       -50.1543564817 -5.64E-06
    10 TBLite/Diag 0.40E+00    0.0     0.00002858       -50.1543564814  3.26E-10
    11 TBLite/Diag 0.40E+00    0.0     0.00008800       -50.1543565045 -2.31E-08
    12 TBLite/Diag 0.40E+00    0.0     0.00000996       -50.1543565046 -1.38E-10
    13 TBLite/Diag 0.40E+00    0.0     0.00000297       -50.1543565046 -1.94E-11
    14 TBLite/Diag 0.40E+00    0.0     0.00000034       -50.1543565046 -7.82E-13
    15 TBLite/Diag 0.40E+00    0.0     0.00000016       -50.1543565046 -7.11E-15
    16 TBLite/Diag 0.40E+00    0.0     0.00000014       -50.1543565046  7.11E-14
    17 TBLite/Diag 0.40E+00    0.0     0.00000005       -50.1543565046 -1.21E-13
    18 TBLite/Diag 0.40E+00    0.0     6.7504E-09       -50.1543565046  1.21E-13
    19 TBLite/Diag 0.40E+00    0.0     6.4642E-09       -50.1543565046 -1.07E-13
    20 TBLite/Diag 0.40E+00    0.0     8.2975E-10       -50.1543565046  4.26E-14

  *** SCF run converged in    20 steps ***


  Core Hamiltonian energy:                                    -50.80771345203190
  Repulsive potential energy:                                   0.59872183596008
  Electrostatic energy:                                         0.11249115158629
  Self-consistent dispersion energy:                           -0.07210560969745
  Non-self consistent dispersion energy:                        0.01424956953729
  Correction for halogen bonding:                               0.00000000000000
  Electronic entropic energy:                                  -0.00000000000000
  Fermi energy:                                                -0.30497651776160

  Total energy:                                               -50.15435650464569
  Total energy (extrapolated to T->0):                        -50.15435650464569

 ENERGY| Total FORCE_EVAL ( QS ) energy [hartree]            -50.154356504645691

 OPT| **************************************************************************
 OPT| Step number                                                              0
 OPT| Optimization method                                                   BFGS
 OPT| Total energy [hartree]                                      -50.1543565046
 OPT| Internal pressure [bar]                                   -8960.6975116318
 OPT| Used time [s]                                                        1.986
 OPT| **************************************************************************
 OPT| Estimated peak process memory [MiB]                                    164

 --------------------------
 OPTIMIZATION STEP:      1
 --------------------------

 CELL| Volume [angstrom^3]:                                           279.288966
 CELL| Vector a [angstrom]:       6.647     0.000     0.000   |a| =     6.647116
 CELL| Vector b [angstrom]:      -0.000     6.212     0.000   |b| =     6.211926
 CELL| Vector c [angstrom]:      -1.168    -0.000     6.764   |c| =     6.864026
 CELL| Angle (b,c), alpha [degree]:                                    90.000001
 CELL| Angle (a,c), beta  [degree]:                                    99.800495
 CELL| Angle (a,b), gamma [degree]:                                    90.000000
 CELL| Numerically orthorhombic:                                              NO
 CELL| Periodicity                                                           XYZ

 Extrapolation method: ASPC

 Number of electrons:                                                         88
 Number of occupied orbitals:                                                 44
 Number of molecular orbitals:                                                80

 Number of orbital functions:                                                 80
 Number of independent orbital functions:                                     80


 SCF WAVEFUNCTION OPTIMIZATION

  Step     Update method      Time    Convergence         Total energy    Change
  ------------------------------------------------------------------------------
     1 TBLite/Diag 0.40E+00    0.0     0.02238575       -50.1592771035 -5.02E+01
     2 TBLite/Diag 0.40E+00    0.0     0.00220401       -50.1593096540 -3.26E-05
     3 TBLite/Diag 0.40E+00    0.0     0.00170627       -50.1593107529 -1.10E-06
     4 TBLite/Diag 0.40E+00    0.0     0.00056987       -50.1593115169 -7.64E-07
     5 TBLite/Diag 0.40E+00    0.0     0.00023456       -50.1593116553 -1.38E-07
     6 TBLite/Diag 0.40E+00    0.0     0.00014352       -50.1593116994 -4.41E-08
     7 TBLite/Diag 0.40E+00    0.0     0.00000938       -50.1593117000 -5.20E-10
     8 TBLite/Diag 0.40E+00    0.0     0.00000273       -50.1593117000 -6.54E-11
     9 TBLite/Diag 0.40E+00    0.0     0.00000275       -50.1593117000 -1.06E-11
    10 TBLite/Diag 0.40E+00    0.0     0.00000095       -50.1593117000 -2.60E-12
    11 TBLite/Diag 0.40E+00    0.0     0.00000037       -50.1593117000 -5.19E-13
    12 TBLite/Diag 0.40E+00    0.0     0.00000003       -50.1593117000 -7.82E-14
    13 TBLite/Diag 0.40E+00    0.0     0.00000001       -50.1593117000  4.26E-14
    14 TBLite/Diag 0.40E+00    0.0     2.0754E-09       -50.1593117000  1.42E-14
    15 TBLite/Diag 0.40E+00    0.0     9.8402E-10       -50.1593117000  2.13E-14

  *** SCF run converged in    15 steps ***


  Core Hamiltonian energy:                                    -50.80133479834596
  Repulsive potential energy:                                   0.58757303050001
  Electrostatic energy:                                         0.11236931316485
  Self-consistent dispersion energy:                           -0.07219529594009
  Non-self consistent dispersion energy:                        0.01427605059156
  Correction for halogen bonding:                               0.00000000000000
  Electronic entropic energy:                                  -0.00000000000000
  Fermi energy:                                                -0.30459121255815

  Total energy:                                               -50.15931170002963
  Total energy (extrapolated to T->0):                        -50.15931170002963

 ENERGY| Total FORCE_EVAL ( QS ) energy [hartree]            -50.159311700029633

 OPT| **************************************************************************
 OPT| Step number                                                              1
 OPT| Optimization method                                                   BFGS
 OPT| Total energy [hartree]                                      -50.1593117000
 OPT| Internal pressure [bar]                                  -11213.4052115565
 OPT| Effective energy change [hartree]                            -0.0049551954
 OPT| Predicted energy change [hartree]                            -0.0036837048
 OPT| Scaling factor                                                0.0000000000
 OPT| Step size                                                     0.0236629876
 OPT| Trust radius                                                  0.4724315332
 OPT| Decrease in energy                                                     YES
 OPT| Used time [s]                                                        1.395
 OPT|
 OPT| Maximum step size                                             0.0236629876
 OPT| Convergence limit for maximum step size                       0.0030000000
 OPT| Maximum step size is converged                                          NO
 OPT|
 OPT| RMS step size                                                 0.0084987943
 OPT| Convergence limit for RMS step size                           0.0015000000
 OPT| RMS step size is converged                                              NO
 OPT|
 OPT| Maximum gradient                                              0.0078555085
 OPT| Convergence limit for maximum gradient                        0.0004500000
 OPT| Maximum gradient is converged                                           NO
 OPT|
 OPT| RMS gradient                                                  0.0037394597
 OPT| Convergence limit for RMS gradient                            0.0003000000
 OPT| RMS gradient is converged                                               NO
 OPT|
 OPT| Pressure deviation [bar]                                 -11213.4052115565
 OPT| Pressure tolerance [bar]                                    100.0000000000
 OPT| Pressure is converged                                                   NO
 OPT| **************************************************************************
 OPT| Estimated peak process memory after this step [MiB]                    165

 --------------------------
 OPTIMIZATION STEP:      2
 --------------------------

 CELL| Volume [angstrom^3]:                                           278.712932
 CELL| Vector a [angstrom]:       6.640     0.000     0.000   |a| =     6.640229
 CELL| Vector b [angstrom]:      -0.000     6.212     0.000   |b| =     6.212132
 CELL| Vector c [angstrom]:      -1.162    -0.000     6.757   |c| =     6.855790
 CELL| Angle (b,c), alpha [degree]:                                    90.000007
 CELL| Angle (a,c), beta  [degree]:                                    99.754170
 CELL| Angle (a,b), gamma [degree]:                                    90.000003
 CELL| Numerically orthorhombic:                                              NO
 CELL| Periodicity                                                           XYZ

 Extrapolation method: ASPC

 Number of electrons:                                                         88
 Number of occupied orbitals:                                                 44
 Number of molecular orbitals:                                                80

 Number of orbital functions:                                                 80
 Number of independent orbital functions:                                     80


 SCF WAVEFUNCTION OPTIMIZATION

  Step     Update method      Time    Convergence         Total energy    Change
  ------------------------------------------------------------------------------
     1 TBLite/Diag 0.40E+00    0.0     0.01267606       -50.1609752878 -5.02E+01
     2 TBLite/Diag 0.40E+00    0.0     0.00259055       -50.1609907391 -1.55E-05
     3 TBLite/Diag 0.40E+00    0.0     0.00088851       -50.1609911630 -4.24E-07
     4 TBLite/Diag 0.40E+00    0.0     0.00052664       -50.1609916928 -5.30E-07
     5 TBLite/Diag 0.40E+00    0.0     0.00021917       -50.1609918128 -1.20E-07
     6 TBLite/Diag 0.40E+00    0.0     0.00006108       -50.1609918289 -1.61E-08
     7 TBLite/Diag 0.40E+00    0.0     0.00000732       -50.1609918292 -3.16E-10
     8 TBLite/Diag 0.40E+00    0.0     0.00000242       -50.1609918292 -3.09E-11
     9 TBLite/Diag 0.40E+00    0.0     0.00000271       -50.1609918292 -5.39E-12
    10 TBLite/Diag 0.40E+00    0.0     0.00000084       -50.1609918292 -1.83E-12
    11 TBLite/Diag 0.40E+00    0.0     0.00000024       -50.1609918292 -1.56E-13
    12 TBLite/Diag 0.40E+00    0.0     0.00000003       -50.1609918292 -1.42E-14
    13 TBLite/Diag 0.40E+00    0.0     0.00000002       -50.1609918292 -2.84E-14
    14 TBLite/Diag 0.40E+00    0.0     1.8249E-09       -50.1609918292  2.84E-14
    15 TBLite/Diag 0.40E+00    0.0     1.2289E-09       -50.1609918292  3.55E-14
    16 TBLite/Diag 0.40E+00    0.0     2.2328E-10       -50.1609918292 -8.53E-14

  *** SCF run converged in    16 steps ***


  Core Hamiltonian energy:                                    -50.79903513215653
  Repulsive potential energy:                                   0.58360088385683
  Electrostatic energy:                                         0.11244921597478
  Self-consistent dispersion energy:                           -0.07234295265190
  Non-self consistent dispersion energy:                        0.01433615573247
  Correction for halogen bonding:                               0.00000000000000
  Electronic entropic energy:                                  -0.00000000000000
  Fermi energy:                                                -0.30457872481386

  Total energy:                                               -50.16099182924435
  Total energy (extrapolated to T->0):                        -50.16099182924435

 ENERGY| Total FORCE_EVAL ( QS ) energy [hartree]            -50.160991829244352

 OPT| **************************************************************************
 OPT| Step number                                                              2
 OPT| Optimization method                                                   BFGS
 OPT| Total energy [hartree]                                      -50.1609918292
 OPT| Internal pressure [bar]                                  -11149.2160816281
 OPT| Effective energy change [hartree]                            -0.0016801292
 OPT| Predicted energy change [hartree]                            -0.0013149599
 OPT| Scaling factor                                                0.0000000000
 OPT| Step size                                                     0.0146726684
 OPT| Trust radius                                                  0.4724315332
 OPT| Decrease in energy                                                     YES
 OPT| Used time [s]                                                        1.020
 OPT|
 OPT| Maximum step size                                             0.0146726684
 OPT| Convergence limit for maximum step size                       0.0030000000
 OPT| Maximum step size is converged                                          NO
 OPT|
 OPT| RMS step size                                                 0.0069479977
 OPT| Convergence limit for RMS step size                           0.0015000000
 OPT| RMS step size is converged                                              NO
 OPT|
 OPT| Maximum gradient                                              0.0078871085
 OPT| Convergence limit for maximum gradient                        0.0004500000
 OPT| Maximum gradient is converged                                           NO
 OPT|
 OPT| RMS gradient                                                  0.0026197756
 OPT| Convergence limit for RMS gradient                            0.0003000000
 OPT| RMS gradient is converged                                               NO
 OPT|
 OPT| Pressure deviation [bar]                                 -11149.2160816281
 OPT| Pressure tolerance [bar]                                    100.0000000000
 OPT| Pressure is converged                                                   NO
 OPT| **************************************************************************
 OPT| Estimated peak process memory after this step [MiB]                    166

 --------------------------
 OPTIMIZATION STEP:      3
 --------------------------

 CELL| Volume [angstrom^3]:                                           277.972091
 CELL| Vector a [angstrom]:       6.631     0.000     0.000   |a| =     6.631363
 CELL| Vector b [angstrom]:      -0.000     6.211     0.000   |b| =     6.211476
 CELL| Vector c [angstrom]:      -1.153    -0.000     6.748   |c| =     6.846177
 CELL| Angle (b,c), alpha [degree]:                                    90.000009
 CELL| Angle (a,c), beta  [degree]:                                    99.692888
 CELL| Angle (a,b), gamma [degree]:                                    90.000004
 CELL| Numerically orthorhombic:                                              NO
 CELL| Periodicity                                                           XYZ

 Extrapolation method: ASPC

 Number of electrons:                                                         88
 Number of occupied orbitals:                                                 44
 Number of molecular orbitals:                                                80

 Number of orbital functions:                                                 80
 Number of independent orbital functions:                                     80


 SCF WAVEFUNCTION OPTIMIZATION

  Step     Update method      Time    Convergence         Total energy    Change
  ------------------------------------------------------------------------------
     1 TBLite/Diag 0.40E+00    0.0     0.00854789       -50.1619563018 -5.02E+01
     2 TBLite/Diag 0.40E+00    0.0     0.00117650       -50.1619622515 -5.95E-06
     3 TBLite/Diag 0.40E+00    0.0     0.00124616       -50.1619618725  3.79E-07
     4 TBLite/Diag 0.40E+00    0.0     0.00063903       -50.1619629660 -1.09E-06
     5 TBLite/Diag 0.40E+00    0.0     0.00011668       -50.1619630316 -6.56E-08
     6 TBLite/Diag 0.40E+00    0.0     0.00005005       -50.1619630377 -6.17E-09
     7 TBLite/Diag 0.40E+00    0.0     0.00000712       -50.1619630379 -1.98E-10
     8 TBLite/Diag 0.40E+00    0.0     0.00000270       -50.1619630380 -1.18E-11
     9 TBLite/Diag 0.40E+00    0.0     0.00000151       -50.1619630380 -3.94E-12
    10 TBLite/Diag 0.40E+00    0.0     0.00000049       -50.1619630380 -1.29E-12
    11 TBLite/Diag 0.40E+00    0.0     0.00000022       -50.1619630380  7.11E-15
    12 TBLite/Diag 0.40E+00    0.0     0.00000002       -50.1619630380  7.11E-15
    13 TBLite/Diag 0.40E+00    0.0     8.3766E-09       -50.1619630380 -4.97E-14
    14 TBLite/Diag 0.40E+00    0.0     1.0694E-09       -50.1619630380  2.84E-14
    15 TBLite/Diag 0.40E+00    0.0     7.7431E-10       -50.1619630380  4.97E-14

  *** SCF run converged in    15 steps ***


  Core Hamiltonian energy:                                    -50.80090355545611
  Repulsive potential energy:                                   0.58480753698616
  Electrostatic energy:                                         0.11224298042534
  Self-consistent dispersion energy:                           -0.07252489549292
  Non-self consistent dispersion energy:                        0.01441489557467
  Correction for halogen bonding:                               0.00000000000000
  Electronic entropic energy:                                  -0.00000000000000
  Fermi energy:                                                -0.30419576122212

  Total energy:                                               -50.16196303796285
  Total energy (extrapolated to T->0):                        -50.16196303796285

 ENERGY| Total FORCE_EVAL ( QS ) energy [hartree]            -50.161963037962849

 OPT| **************************************************************************
 OPT| Step number                                                              3
 OPT| Optimization method                                                   BFGS
 OPT| Total energy [hartree]                                      -50.1619630380
 OPT| Internal pressure [bar]                                   -9082.9082812414
 OPT| Effective energy change [hartree]                            -0.0009712087
 OPT| Predicted energy change [hartree]                            -0.0006370863
 OPT| Scaling factor                                                0.0000000000
 OPT| Step size                                                     0.0167541858
 OPT| Trust radius                                                  0.4724315332
 OPT| Decrease in energy                                                     YES
 OPT| Used time [s]                                                        1.020
 OPT|
 OPT| Maximum step size                                             0.0167541858
 OPT| Convergence limit for maximum step size                       0.0030000000
 OPT| Maximum step size is converged                                          NO
 OPT|
 OPT| RMS step size                                                 0.0059284427
 OPT| Convergence limit for RMS step size                           0.0015000000
 OPT| RMS step size is converged                                              NO
 OPT|
 OPT| Maximum gradient                                              0.0077688721
 OPT| Convergence limit for maximum gradient                        0.0004500000
 OPT| Maximum gradient is converged                                           NO
 OPT|
 OPT| RMS gradient                                                  0.0026752628
 OPT| Convergence limit for RMS gradient                            0.0003000000
 OPT| RMS gradient is converged                                               NO
 OPT|
 OPT| Pressure deviation [bar]                                  -9082.9082812414
 OPT| Pressure tolerance [bar]                                    100.0000000000
 OPT| Pressure is converged                                                   NO
 OPT| **************************************************************************
 OPT| Estimated peak process memory after this step [MiB]                    166

 --------------------------
 OPTIMIZATION STEP:      4
 --------------------------

 CELL| Volume [angstrom^3]:                                           276.429308
 CELL| Vector a [angstrom]:       6.613     0.000     0.000   |a| =     6.613477
 CELL| Vector b [angstrom]:      -0.000     6.209     0.000   |b| =     6.209032
 CELL| Vector c [angstrom]:      -1.133    -0.000     6.732   |c| =     6.826386
 CELL| Angle (b,c), alpha [degree]:                                    90.000016
 CELL| Angle (a,c), beta  [degree]:                                    99.549688
 CELL| Angle (a,b), gamma [degree]:                                    90.000007
 CELL| Numerically orthorhombic:                                              NO
 CELL| Periodicity                                                           XYZ

 Extrapolation method: ASPC

 Number of electrons:                                                         88
 Number of occupied orbitals:                                                 44
 Number of molecular orbitals:                                                80

 Number of orbital functions:                                                 80
 Number of independent orbital functions:                                     80


 SCF WAVEFUNCTION OPTIMIZATION

  Step     Update method      Time    Convergence         Total energy    Change
  ------------------------------------------------------------------------------
     1 TBLite/Diag 0.40E+00    0.0     0.01158332       -50.1633758318 -5.02E+01
     2 TBLite/Diag 0.40E+00    0.0     0.00184937       -50.1633811567 -5.32E-06
     3 TBLite/Diag 0.40E+00    0.0     0.00115755       -50.1633793842  1.77E-06
     4 TBLite/Diag 0.40E+00    0.0     0.00088037       -50.1633824878 -3.10E-06
     5 TBLite/Diag 0.40E+00    0.0     0.00010871       -50.1633825287 -4.09E-08
     6 TBLite/Diag 0.40E+00    0.0     0.00001651       -50.1633825318 -3.09E-09
     7 TBLite/Diag 0.40E+00    0.0     0.00000845       -50.1633825321 -2.77E-10
     8 TBLite/Diag 0.40E+00    0.0     0.00000163       -50.1633825321 -1.98E-11
     9 TBLite/Diag 0.40E+00    0.0     0.00000140       -50.1633825321 -6.09E-12
    10 TBLite/Diag 0.40E+00    0.0     0.00000018       -50.1633825321  7.11E-15
    11 TBLite/Diag 0.40E+00    0.0     0.00000012       -50.1633825321 -9.95E-14
    12 TBLite/Diag 0.40E+00    0.0     0.00000006       -50.1633825321 -2.13E-14
    13 TBLite/Diag 0.40E+00    0.0     9.1566E-09       -50.1633825321  6.39E-14
    14 TBLite/Diag 0.40E+00    0.0     1.6081E-09       -50.1633825321 -4.26E-14
    15 TBLite/Diag 0.40E+00    0.0     1.1957E-09       -50.1633825321  0.00E+00
    16 TBLite/Diag 0.40E+00    0.0     5.5867E-10       -50.1633825321  0.00E+00

  *** SCF run converged in    16 steps ***


  Core Hamiltonian energy:                                    -50.80490093140166
  Repulsive potential energy:                                   0.58768569953491
  Electrostatic energy:                                         0.11214754087290
  Self-consistent dispersion energy:                           -0.07289727723928
  Non-self consistent dispersion energy:                        0.01458243612002
  Correction for halogen bonding:                               0.00000000000000
  Electronic entropic energy:                                  -0.00000000000000
  Fermi energy:                                                -0.30382730981914

  Total energy:                                               -50.16338253211310
  Total energy (extrapolated to T->0):                        -50.16338253211310

 ENERGY| Total FORCE_EVAL ( QS ) energy [hartree]            -50.163382532113097

 OPT| **************************************************************************
 OPT| Step number                                                              4
 OPT| Optimization method                                                   BFGS
 OPT| Total energy [hartree]                                      -50.1633825321
 OPT| Internal pressure [bar]                                   -5764.8096217146
 OPT| Effective energy change [hartree]                            -0.0014194942
 OPT| Predicted energy change [hartree]                            -0.0010233118
 OPT| Scaling factor                                                0.0000000000
 OPT| Step size                                                     0.0380843846
 OPT| Trust radius                                                  0.4724315332
 OPT| Decrease in energy                                                     YES
 OPT| Used time [s]                                                        1.036
 OPT|
 OPT| Maximum step size                                             0.0380843846
 OPT| Convergence limit for maximum step size                       0.0030000000
 OPT| Maximum step size is converged                                          NO
 OPT|
 OPT| RMS step size                                                 0.0114617334
 OPT| Convergence limit for RMS step size                           0.0015000000
 OPT| RMS step size is converged                                              NO
 OPT|
 OPT| Maximum gradient                                              0.0063251778
 OPT| Convergence limit for maximum gradient                        0.0004500000
 OPT| Maximum gradient is converged                                           NO
 OPT|
 OPT| RMS gradient                                                  0.0026882059
 OPT| Convergence limit for RMS gradient                            0.0003000000
 OPT| RMS gradient is converged                                               NO
 OPT|
 OPT| Pressure deviation [bar]                                  -5764.8096217146
 OPT| Pressure tolerance [bar]                                    100.0000000000
 OPT| Pressure is converged                                                   NO
 OPT| **************************************************************************
 OPT| Estimated peak process memory after this step [MiB]                    166

 --------------------------
 OPTIMIZATION STEP:      5
 --------------------------

 CELL| Volume [angstrom^3]:                                           274.945987
 CELL| Vector a [angstrom]:       6.598     0.000     0.000   |a| =     6.597797
 CELL| Vector b [angstrom]:      -0.000     6.205     0.000   |b| =     6.205367
 CELL| Vector c [angstrom]:      -1.112    -0.000     6.716   |c| =     6.806955
 CELL| Angle (b,c), alpha [degree]:                                    90.000022
 CELL| Angle (a,c), beta  [degree]:                                    99.400630
 CELL| Angle (a,b), gamma [degree]:                                    90.000006
 CELL| Numerically orthorhombic:                                              NO
 CELL| Periodicity                                                           XYZ

 Extrapolation method: ASPC

 Number of electrons:                                                         88
 Number of occupied orbitals:                                                 44
 Number of molecular orbitals:                                                80

 Number of orbital functions:                                                 80
 Number of independent orbital functions:                                     80


 SCF WAVEFUNCTION OPTIMIZATION

  Step     Update method      Time    Convergence         Total energy    Change
  ------------------------------------------------------------------------------
     1 TBLite/Diag 0.40E+00    0.0     0.00800053       -50.1644339123 -5.02E+01
     2 TBLite/Diag 0.40E+00    0.0     0.00058393       -50.1644362379 -2.33E-06
     3 TBLite/Diag 0.40E+00    0.0     0.00076922       -50.1644356206  6.17E-07
     4 TBLite/Diag 0.40E+00    0.0     0.00053160       -50.1644369017 -1.28E-06
     5 TBLite/Diag 0.40E+00    0.0     0.00005301       -50.1644369150 -1.33E-08
     6 TBLite/Diag 0.40E+00    0.0     0.00002001       -50.1644369168 -1.75E-09
     7 TBLite/Diag 0.40E+00    0.0     0.00000758       -50.1644369169 -1.62E-10
     8 TBLite/Diag 0.40E+00    0.0     0.00000168       -50.1644369169 -1.31E-11
     9 TBLite/Diag 0.40E+00    0.0     0.00000137       -50.1644369170 -3.15E-12
    10 TBLite/Diag 0.40E+00    0.0     0.00000035       -50.1644369170 -1.92E-13
    11 TBLite/Diag 0.40E+00    0.0     0.00000017       -50.1644369170 -1.35E-13
    12 TBLite/Diag 0.40E+00    0.0     0.00000003       -50.1644369170 -1.42E-14
    13 TBLite/Diag 0.40E+00    0.0     6.9906E-09       -50.1644369170  2.13E-14
    14 TBLite/Diag 0.40E+00    0.0     1.3209E-09       -50.1644369170 -3.55E-14
    15 TBLite/Diag 0.40E+00    0.0     7.7394E-10       -50.1644369170  2.84E-14

  *** SCF run converged in    15 steps ***


  Core Hamiltonian energy:                                    -50.80888502665788
  Repulsive potential energy:                                   0.59113424277745
  Electrostatic energy:                                         0.11183487496868
  Self-consistent dispersion energy:                           -0.07326580264714
  Non-self consistent dispersion energy:                        0.01474479460600
  Correction for halogen bonding:                               0.00000000000000
  Electronic entropic energy:                                  -0.00000000000000
  Fermi energy:                                                -0.30343770613566

  Total energy:                                               -50.16443691695289
  Total energy (extrapolated to T->0):                        -50.16443691695289

 ENERGY| Total FORCE_EVAL ( QS ) energy [hartree]            -50.164436916952887

 OPT| **************************************************************************
 OPT| Step number                                                              5
 OPT| Optimization method                                                   BFGS
 OPT| Total energy [hartree]                                      -50.1644369170
 OPT| Internal pressure [bar]                                   -2816.3623280603
 OPT| Effective energy change [hartree]                            -0.0010543848
 OPT| Predicted energy change [hartree]                            -0.0007470935
 OPT| Scaling factor                                                0.0000000000
 OPT| Step size                                                     0.0390998703
 OPT| Trust radius                                                  0.4724315332
 OPT| Decrease in energy                                                     YES
 OPT| Used time [s]                                                        1.041
 OPT|
 OPT| Maximum step size                                             0.0390998703
 OPT| Convergence limit for maximum step size                       0.0030000000
 OPT| Maximum step size is converged                                          NO
 OPT|
 OPT| RMS step size                                                 0.0106964501
 OPT| Convergence limit for RMS step size                           0.0015000000
 OPT| RMS step size is converged                                              NO
 OPT|
 OPT| Maximum gradient                                              0.0062987395
 OPT| Convergence limit for maximum gradient                        0.0004500000
 OPT| Maximum gradient is converged                                           NO
 OPT|
 OPT| RMS gradient                                                  0.0022758994
 OPT| Convergence limit for RMS gradient                            0.0003000000
 OPT| RMS gradient is converged                                               NO
 OPT|
 OPT| Pressure deviation [bar]                                  -2816.3623280603
 OPT| Pressure tolerance [bar]                                    100.0000000000
 OPT| Pressure is converged                                                   NO
 OPT| **************************************************************************
 OPT| Estimated peak process memory after this step [MiB]                    166

 --------------------------
 OPTIMIZATION STEP:      6
 --------------------------

 CELL| Volume [angstrom^3]:                                           273.719285
 CELL| Vector a [angstrom]:       6.587     0.000     0.000   |a| =     6.587339
 CELL| Vector b [angstrom]:      -0.000     6.200     0.000   |b| =     6.200490
 CELL| Vector c [angstrom]:      -1.093    -0.000     6.701   |c| =     6.789988
 CELL| Angle (b,c), alpha [degree]:                                    90.000026
 CELL| Angle (a,c), beta  [degree]:                                    99.262300
 CELL| Angle (a,b), gamma [degree]:                                    90.000004
 CELL| Numerically orthorhombic:                                              NO
 CELL| Periodicity                                                           XYZ

 Extrapolation method: ASPC

 Number of electrons:                                                         88
 Number of occupied orbitals:                                                 44
 Number of molecular orbitals:                                                80

 Number of orbital functions:                                                 80
 Number of independent orbital functions:                                     80


 SCF WAVEFUNCTION OPTIMIZATION

  Step     Update method      Time    Convergence         Total energy    Change
  ------------------------------------------------------------------------------
     1 TBLite/Diag 0.40E+00    0.0     0.00714572       -50.1651729010 -5.02E+01
     2 TBLite/Diag 0.40E+00    0.0     0.00031145       -50.1651742093 -1.31E-06
     3 TBLite/Diag 0.40E+00    0.0     0.00034216       -50.1651745036 -2.94E-07
     4 TBLite/Diag 0.40E+00    0.0     0.00017239       -50.1651745763 -7.27E-08
     5 TBLite/Diag 0.40E+00    0.0     0.00006175       -50.1651745922 -1.59E-08
     6 TBLite/Diag 0.40E+00    0.0     0.00001695       -50.1651745928 -6.31E-10
     7 TBLite/Diag 0.40E+00    0.0     0.00000998       -50.1651745931 -3.39E-10
     8 TBLite/Diag 0.40E+00    0.0     0.00000199       -50.1651745931 -6.81E-12
     9 TBLite/Diag 0.40E+00    0.0     0.00000133       -50.1651745931 -3.50E-12
    10 TBLite/Diag 0.40E+00    0.0     0.00000032       -50.1651745931 -1.42E-13
    11 TBLite/Diag 0.40E+00    0.0     0.00000014       -50.1651745931 -2.84E-14
    12 TBLite/Diag 0.40E+00    0.0     0.00000002       -50.1651745931 -5.68E-14
    13 TBLite/Diag 0.40E+00    0.0     7.2513E-09       -50.1651745931  2.13E-14
    14 TBLite/Diag 0.40E+00    0.0     1.8166E-09       -50.1651745931  2.13E-14
    15 TBLite/Diag 0.40E+00    0.0     3.9438E-10       -50.1651745931  1.42E-14

  *** SCF run converged in    15 steps ***


  Core Hamiltonian energy:                                    -50.81053950471853
  Repulsive potential energy:                                   0.59231872245167
  Electrostatic energy:                                         0.11174446731321
  Self-consistent dispersion energy:                           -0.07357826029674
  Non-self consistent dispersion energy:                        0.01487998211904
  Correction for halogen bonding:                               0.00000000000000
  Electronic entropic energy:                                  -0.00000000000000
  Fermi energy:                                                -0.30342506170193

  Total energy:                                               -50.16517459313135
  Total energy (extrapolated to T->0):                        -50.16517459313135

 ENERGY| Total FORCE_EVAL ( QS ) energy [hartree]            -50.165174593131347

 OPT| **************************************************************************
 OPT| Step number                                                              6
 OPT| Optimization method                                                   BFGS
 OPT| Total energy [hartree]                                      -50.1651745931
 OPT| Internal pressure [bar]                                   -1935.4518898920
 OPT| Effective energy change [hartree]                            -0.0007376762
 OPT| Predicted energy change [hartree]                            -0.0005396399
 OPT| Scaling factor                                                0.0000000000
 OPT| Step size                                                     0.0358058019
 OPT| Trust radius                                                  0.4724315332
 OPT| Decrease in energy                                                     YES
 OPT| Used time [s]                                                        1.754
 OPT|
 OPT| Maximum step size                                             0.0358058019
 OPT| Convergence limit for maximum step size                       0.0030000000
 OPT| Maximum step size is converged                                          NO
 OPT|
 OPT| RMS step size                                                 0.0091095965
 OPT| Convergence limit for RMS step size                           0.0015000000
 OPT| RMS step size is converged                                              NO
 OPT|
 OPT| Maximum gradient                                              0.0037483084
 OPT| Convergence limit for maximum gradient                        0.0004500000
 OPT| Maximum gradient is converged                                           NO
 OPT|
 OPT| RMS gradient                                                  0.0017884004
 OPT| Convergence limit for RMS gradient                            0.0003000000
 OPT| RMS gradient is converged                                               NO
 OPT|
 OPT| Pressure deviation [bar]                                  -1935.4518898920
 OPT| Pressure tolerance [bar]                                    100.0000000000
 OPT| Pressure is converged                                                   NO
 OPT| **************************************************************************
 OPT| Estimated peak process memory after this step [MiB]                    166

 --------------------------
 OPTIMIZATION STEP:      7
 --------------------------

 CELL| Volume [angstrom^3]:                                           272.867516
 CELL| Vector a [angstrom]:       6.583     0.000     0.000   |a| =     6.583327
 CELL| Vector b [angstrom]:      -0.000     6.195     0.000   |b| =     6.195119
 CELL| Vector c [angstrom]:      -1.079    -0.000     6.690   |c| =     6.776898
 CELL| Angle (b,c), alpha [degree]:                                    90.000027
 CELL| Angle (a,c), beta  [degree]:                                    99.160243
 CELL| Angle (a,b), gamma [degree]:                                    90.000001
 CELL| Numerically orthorhombic:                                              NO
 CELL| Periodicity                                                           XYZ

 Extrapolation method: ASPC

 Number of electrons:                                                         88
 Number of occupied orbitals:                                                 44
 Number of molecular orbitals:                                                80

 Number of orbital functions:                                                 80
 Number of independent orbital functions:                                     80


 SCF WAVEFUNCTION OPTIMIZATION

  Step     Update method      Time    Convergence         Total energy    Change
  ------------------------------------------------------------------------------
     1 TBLite/Diag 0.40E+00    0.0     0.00728246       -50.1656603071 -5.02E+01
     2 TBLite/Diag 0.40E+00    0.0     0.00043569       -50.1656612030 -8.96E-07
     3 TBLite/Diag 0.40E+00    0.0     0.00043821       -50.1656613005 -9.75E-08
     4 TBLite/Diag 0.40E+00    0.0     0.00032279       -50.1656614394 -1.39E-07
     5 TBLite/Diag 0.40E+00    0.0     0.00006956       -50.1656614454 -5.98E-09
     6 TBLite/Diag 0.40E+00    0.0     0.00002365       -50.1656614474 -1.99E-09
     7 TBLite/Diag 0.40E+00    0.0     0.00000418       -50.1656614474 -3.79E-11
     8 TBLite/Diag 0.40E+00    0.0     0.00000230       -50.1656614474 -8.79E-12
     9 TBLite/Diag 0.40E+00    0.0     0.00000105       -50.1656614474 -3.43E-12
    10 TBLite/Diag 0.40E+00    0.0     0.00000011       -50.1656614474 -7.11E-14
    11 TBLite/Diag 0.40E+00    0.0     0.00000005       -50.1656614474  2.13E-14
    12 TBLite/Diag 0.40E+00    0.0     9.2107E-09       -50.1656614474 -4.97E-14
    13 TBLite/Diag 0.40E+00    0.0     5.5557E-09       -50.1656614474  1.42E-14
    14 TBLite/Diag 0.40E+00    0.0     1.0996E-09       -50.1656614474 -5.68E-14
    15 TBLite/Diag 0.40E+00    0.0     6.4470E-10       -50.1656614474  2.13E-14

  *** SCF run converged in    15 steps ***


  Core Hamiltonian energy:                                    -50.81097926669734
  Repulsive potential energy:                                   0.59264779173904
  Electrostatic energy:                                         0.11150526062218
  Self-consistent dispersion energy:                           -0.07381198036806
  Non-self consistent dispersion energy:                        0.01497674728669
  Correction for halogen bonding:                               0.00000000000000
  Electronic entropic energy:                                  -0.00000000000000
  Fermi energy:                                                -0.30334962908473

  Total energy:                                               -50.16566144741748
  Total energy (extrapolated to T->0):                        -50.16566144741748

 ENERGY| Total FORCE_EVAL ( QS ) energy [hartree]            -50.165661447417477

 OPT| **************************************************************************
 OPT| Step number                                                              7
 OPT| Optimization method                                                   BFGS
 OPT| Total energy [hartree]                                      -50.1656614474
 OPT| Internal pressure [bar]                                   -1833.7484992114
 OPT| Effective energy change [hartree]                            -0.0004868543
 OPT| Predicted energy change [hartree]                            -0.0003430077
 OPT| Scaling factor                                                0.0000000000
 OPT| Step size                                                     0.0264983483
 OPT| Trust radius                                                  0.4724315332
 OPT| Decrease in energy                                                     YES
 OPT| Used time [s]                                                        2.028
 OPT|
 OPT| Maximum step size                                             0.0264983483
 OPT| Convergence limit for maximum step size                       0.0030000000
 OPT| Maximum step size is converged                                          NO
 OPT|
 OPT| RMS step size                                                 0.0066533369
 OPT| Convergence limit for RMS step size                           0.0015000000
 OPT| RMS step size is converged                                              NO
 OPT|
 OPT| Maximum gradient                                              0.0036537112
 OPT| Convergence limit for maximum gradient                        0.0004500000
 OPT| Maximum gradient is converged                                           NO
 OPT|
 OPT| RMS gradient                                                  0.0016299217
 OPT| Convergence limit for RMS gradient                            0.0003000000
 OPT| RMS gradient is converged                                               NO
 OPT|
 OPT| Pressure deviation [bar]                                  -1833.7484992114
 OPT| Pressure tolerance [bar]                                    100.0000000000
 OPT| Pressure is converged                                                   NO
 OPT| **************************************************************************
 OPT| Estimated peak process memory after this step [MiB]                    166

 --------------------------
 OPTIMIZATION STEP:      8
 --------------------------

 CELL| Volume [angstrom^3]:                                           272.023810
 CELL| Vector a [angstrom]:       6.583     0.000     0.000   |a| =     6.582556
 CELL| Vector b [angstrom]:       0.000     6.188     0.000   |b| =     6.187994
 CELL| Vector c [angstrom]:      -1.065    -0.000     6.678   |c| =     6.762571
 CELL| Angle (b,c), alpha [degree]:                                    90.000028
 CELL| Angle (a,c), beta  [degree]:                                    99.057502
 CELL| Angle (a,b), gamma [degree]:                                    89.999998
 CELL| Numerically orthorhombic:                                              NO
 CELL| Periodicity                                                           XYZ

 Extrapolation method: ASPC

 Number of electrons:                                                         88
 Number of occupied orbitals:                                                 44
 Number of molecular orbitals:                                                80

 Number of orbital functions:                                                 80
 Number of independent orbital functions:                                     80


 SCF WAVEFUNCTION OPTIMIZATION

  Step     Update method      Time    Convergence         Total energy    Change
  ------------------------------------------------------------------------------
     1 TBLite/Diag 0.40E+00    0.0     0.00708929       -50.1661276435 -5.02E+01
     2 TBLite/Diag 0.40E+00    0.0     0.00031646       -50.1661283675 -7.24E-07
     3 TBLite/Diag 0.40E+00    0.0     0.00050825       -50.1661283622  5.37E-09
     4 TBLite/Diag 0.40E+00    0.0     0.00031729       -50.1661285983 -2.36E-07
     5 TBLite/Diag 0.40E+00    0.0     0.00003549       -50.1661286012 -2.95E-09
     6 TBLite/Diag 0.40E+00    0.0     0.00002145       -50.1661286022 -9.47E-10
     7 TBLite/Diag 0.40E+00    0.0     0.00000782       -50.1661286023 -8.19E-11
     8 TBLite/Diag 0.40E+00    0.0     0.00000210       -50.1661286023 -1.12E-11
     9 TBLite/Diag 0.40E+00    0.0     0.00000128       -50.1661286023 -3.41E-12
    10 TBLite/Diag 0.40E+00    0.0     0.00000026       -50.1661286023 -4.26E-13
    11 TBLite/Diag 0.40E+00    0.0     0.00000008       -50.1661286023 -4.97E-14
    12 TBLite/Diag 0.40E+00    0.0     0.00000002       -50.1661286023 -2.13E-14
    13 TBLite/Diag 0.40E+00    0.0     5.0206E-09       -50.1661286023  5.68E-14
    14 TBLite/Diag 0.40E+00    0.0     1.0696E-09       -50.1661286023 -7.82E-14
    15 TBLite/Diag 0.40E+00    0.0     3.6008E-10       -50.1661286023 -7.11E-15

  *** SCF run converged in    15 steps ***


  Core Hamiltonian energy:                                    -50.80979800055970
  Repulsive potential energy:                                   0.59117861588797
  Electrostatic energy:                                         0.11147052832575
  Self-consistent dispersion energy:                           -0.07405094839528
  Non-self consistent dispersion energy:                        0.01507120244897
  Correction for halogen bonding:                               0.00000000000000
  Electronic entropic energy:                                  -0.00000000000000
  Fermi energy:                                                -0.30353238780454

  Total energy:                                               -50.16612860229230
  Total energy (extrapolated to T->0):                        -50.16612860229230

 ENERGY| Total FORCE_EVAL ( QS ) energy [hartree]            -50.166128602292304

 OPT| **************************************************************************
 OPT| Step number                                                              8
 OPT| Optimization method                                                   BFGS
 OPT| Total energy [hartree]                                      -50.1661286023
 OPT| Internal pressure [bar]                                   -2899.9897313866
 OPT| Effective energy change [hartree]                            -0.0004671549
 OPT| Predicted energy change [hartree]                            -0.0003200792
 OPT| Scaling factor                                                0.0000000000
 OPT| Step size                                                     0.0269370276
 OPT| Trust radius                                                  0.4724315332
 OPT| Decrease in energy                                                     YES
 OPT| Used time [s]                                                        2.046
 OPT|
 OPT| Maximum step size                                             0.0269370276
 OPT| Convergence limit for maximum step size                       0.0030000000
 OPT| Maximum step size is converged                                          NO
 OPT|
 OPT| RMS step size                                                 0.0069709829
 OPT| Convergence limit for RMS step size                           0.0015000000
 OPT| RMS step size is converged                                              NO
 OPT|
 OPT| Maximum gradient                                              0.0043778816
 OPT| Convergence limit for maximum gradient                        0.0004500000
 OPT| Maximum gradient is converged                                           NO
 OPT|
 OPT| RMS gradient                                                  0.0016955675
 OPT| Convergence limit for RMS gradient                            0.0003000000
 OPT| RMS gradient is converged                                               NO
 OPT|
 OPT| Pressure deviation [bar]                                  -2899.9897313866
 OPT| Pressure tolerance [bar]                                    100.0000000000
 OPT| Pressure is converged                                                   NO
 OPT| **************************************************************************
 OPT| Estimated peak process memory after this step [MiB]                    166

 --------------------------
 OPTIMIZATION STEP:      9
 --------------------------

 CELL| Volume [angstrom^3]:                                           270.885231
 CELL| Vector a [angstrom]:       6.584     0.000     0.000   |a| =     6.583647
 CELL| Vector b [angstrom]:       0.000     6.178     0.000   |b| =     6.177571
 CELL| Vector c [angstrom]:      -1.047    -0.000     6.660   |c| =     6.742196
 CELL| Angle (b,c), alpha [degree]:                                    90.000028
 CELL| Angle (a,c), beta  [degree]:                                    98.933303
 CELL| Angle (a,b), gamma [degree]:                                    89.999996
 CELL| Numerically orthorhombic:                                              NO
 CELL| Periodicity                                                           XYZ

 Extrapolation method: ASPC

 Number of electrons:                                                         88
 Number of occupied orbitals:                                                 44
 Number of molecular orbitals:                                                80

 Number of orbital functions:                                                 80
 Number of independent orbital functions:                                     80


 SCF WAVEFUNCTION OPTIMIZATION

  Step     Update method      Time    Convergence         Total energy    Change
  ------------------------------------------------------------------------------
     1 TBLite/Diag 0.40E+00    0.0     0.00863993       -50.1666735533 -5.02E+01
     2 TBLite/Diag 0.40E+00    0.0     0.00025384       -50.1666741229 -5.70E-07
     3 TBLite/Diag 0.40E+00    0.0     0.00028460       -50.1666742015 -7.86E-08
     4 TBLite/Diag 0.40E+00    0.0     0.00020444       -50.1666743103 -1.09E-07
     5 TBLite/Diag 0.40E+00    0.0     0.00004915       -50.1666743126 -2.26E-09
     6 TBLite/Diag 0.40E+00    0.0     0.00002112       -50.1666743143 -1.75E-09
     7 TBLite/Diag 0.40E+00    0.0     0.00000492       -50.1666743144 -3.45E-11
     8 TBLite/Diag 0.40E+00    0.0     0.00000110       -50.1666743144 -7.01E-12
     9 TBLite/Diag 0.40E+00    0.0     0.00000079       -50.1666743144 -7.67E-13
    10 TBLite/Diag 0.40E+00    0.0     0.00000022       -50.1666743144 -2.56E-13
    11 TBLite/Diag 0.40E+00    0.0     0.00000008       -50.1666743144 -1.42E-14
    12 TBLite/Diag 0.40E+00    0.0     9.2956E-09       -50.1666743144  3.55E-14
    13 TBLite/Diag 0.40E+00    0.0     3.9052E-09       -50.1666743144  4.26E-14
    14 TBLite/Diag 0.40E+00    0.0     3.9219E-10       -50.1666743144 -1.71E-13

  *** SCF run converged in    14 steps ***


  Core Hamiltonian energy:                                    -50.80858428347909
  Repulsive potential energy:                                   0.58991911881953
  Electrostatic energy:                                         0.11117823961450
  Self-consistent dispersion energy:                           -0.07438787432171
  Non-self consistent dispersion energy:                        0.01520048500117
  Correction for halogen bonding:                               0.00000000000000
  Electronic entropic energy:                                  -0.00000000000000
  Fermi energy:                                                -0.30347937394907

  Total energy:                                               -50.16667431436560
  Total energy (extrapolated to T->0):                        -50.16667431436560

 ENERGY| Total FORCE_EVAL ( QS ) energy [hartree]            -50.166674314365601

 OPT| **************************************************************************
 OPT| Step number                                                              9
 OPT| Optimization method                                                   BFGS
 OPT| Total energy [hartree]                                      -50.1666743144
 OPT| Internal pressure [bar]                                   -3613.9263600619
 OPT| Effective energy change [hartree]                            -0.0005457121
 OPT| Predicted energy change [hartree]                            -0.0003739968
 OPT| Scaling factor                                                0.0000000000
 OPT| Step size                                                     0.0337044946
 OPT| Trust radius                                                  0.4724315332
 OPT| Decrease in energy                                                     YES
 OPT| Used time [s]                                                        2.040
 OPT|
 OPT| Maximum step size                                             0.0337044946
 OPT| Convergence limit for maximum step size                       0.0030000000
 OPT| Maximum step size is converged                                          NO
 OPT|
 OPT| RMS step size                                                 0.0091521771
 OPT| Convergence limit for RMS step size                           0.0015000000
 OPT| RMS step size is converged                                              NO
 OPT|
 OPT| Maximum gradient                                              0.0048362894
 OPT| Convergence limit for maximum gradient                        0.0004500000
 OPT| Maximum gradient is converged                                           NO
 OPT|
 OPT| RMS gradient                                                  0.0018755921
 OPT| Convergence limit for RMS gradient                            0.0003000000
 OPT| RMS gradient is converged                                               NO
 OPT|
 OPT| Pressure deviation [bar]                                  -3613.9263600619
 OPT| Pressure tolerance [bar]                                    100.0000000000
 OPT| Pressure is converged                                                   NO
 OPT| **************************************************************************
 OPT| Estimated peak process memory after this step [MiB]                    166

 --------------------------
 OPTIMIZATION STEP:     10
 --------------------------

 CELL| Volume [angstrom^3]:                                           269.289671
 CELL| Vector a [angstrom]:       6.586     0.000     0.000   |a| =     6.585979
 CELL| Vector b [angstrom]:       0.000     6.163     0.000   |b| =     6.163078
 CELL| Vector c [angstrom]:      -1.024    -0.000     6.634   |c| =     6.712981
 CELL| Angle (b,c), alpha [degree]:                                    90.000027
 CELL| Angle (a,c), beta  [degree]:                                    98.775320
 CELL| Angle (a,b), gamma [degree]:                                    89.999997
 CELL| Numerically orthorhombic:                                              NO
 CELL| Periodicity                                                           XYZ

 Extrapolation method: ASPC

 Number of electrons:                                                         88
 Number of occupied orbitals:                                                 44
 Number of molecular orbitals:                                                80

 Number of orbital functions:                                                 80
 Number of independent orbital functions:                                     80


 SCF WAVEFUNCTION OPTIMIZATION

  Step     Update method      Time    Convergence         Total energy    Change
  ------------------------------------------------------------------------------
     1 TBLite/Diag 0.40E+00    0.0     0.01040887       -50.1673118808 -5.02E+01
     2 TBLite/Diag 0.40E+00    0.0     0.00059697       -50.1673134108 -1.53E-06
     3 TBLite/Diag 0.40E+00    0.0     0.00030944       -50.1673135117 -1.01E-07
     4 TBLite/Diag 0.40E+00    0.0     0.00016355       -50.1673136744 -1.63E-07
     5 TBLite/Diag 0.40E+00    0.0     0.00006814       -50.1673136848 -1.04E-08
     6 TBLite/Diag 0.40E+00    0.0     0.00003282       -50.1673136879 -3.12E-09
     7 TBLite/Diag 0.40E+00    0.0     0.00000481       -50.1673136880 -1.19E-10
     8 TBLite/Diag 0.40E+00    0.0     0.00000132       -50.1673136881 -1.75E-11
     9 TBLite/Diag 0.40E+00    0.0     0.00000097       -50.1673136881 -1.63E-12
    10 TBLite/Diag 0.40E+00    0.0     0.00000042       -50.1673136881 -9.24E-14
    11 TBLite/Diag 0.40E+00    0.0     0.00000012       -50.1673136881 -6.39E-14
    12 TBLite/Diag 0.40E+00    0.0     0.00000003       -50.1673136881  2.84E-14
    13 TBLite/Diag 0.40E+00    0.0     0.00000002       -50.1673136881 -2.84E-14
    14 TBLite/Diag 0.40E+00    0.0     7.4289E-10       -50.1673136881 -3.55E-14

  *** SCF run converged in    14 steps ***


  Core Hamiltonian energy:                                    -50.80649412598975
  Repulsive potential energy:                                   0.58756184315517
  Electrostatic energy:                                         0.11108863615592
  Self-consistent dispersion energy:                           -0.07485607450824
  Non-self consistent dispersion energy:                        0.01538603312583
  Correction for halogen bonding:                               0.00000000000000
  Electronic entropic energy:                                  -0.00000000000000
  Fermi energy:                                                -0.30373036753931

  Total energy:                                               -50.16731368806108
  Total energy (extrapolated to T->0):                        -50.16731368806108

 ENERGY| Total FORCE_EVAL ( QS ) energy [hartree]            -50.167313688061078

 OPT| **************************************************************************
 OPT| Step number                                                             10
 OPT| Optimization method                                                   BFGS
 OPT| Total energy [hartree]                                      -50.1673136881
 OPT| Internal pressure [bar]                                   -4891.4263489876
 OPT| Effective energy change [hartree]                            -0.0006393737
 OPT| Predicted energy change [hartree]                            -0.0004559026
 OPT| Scaling factor                                                0.0000000000
 OPT| Step size                                                     0.0491539110
 OPT| Trust radius                                                  0.4724315332
 OPT| Decrease in energy                                                     YES
 OPT| Used time [s]                                                        2.055
 OPT|
 OPT| Maximum step size                                             0.0491539110
 OPT| Convergence limit for maximum step size                       0.0030000000
 OPT| Maximum step size is converged                                          NO
 OPT|
 OPT| RMS step size                                                 0.0123679941
 OPT| Convergence limit for RMS step size                           0.0015000000
 OPT| RMS step size is converged                                              NO
 OPT|
 OPT| Maximum gradient                                              0.0061544091
 OPT| Convergence limit for maximum gradient                        0.0004500000
 OPT| Maximum gradient is converged                                           NO
 OPT|
 OPT| RMS gradient                                                  0.0020863503
 OPT| Convergence limit for RMS gradient                            0.0003000000
 OPT| RMS gradient is converged                                               NO
 OPT|
 OPT| Pressure deviation [bar]                                  -4891.4263489876
 OPT| Pressure tolerance [bar]                                    100.0000000000
 OPT| Pressure is converged                                                   NO
 OPT| **************************************************************************
 OPT| Estimated peak process memory after this step [MiB]                    166

 --------------------------
 OPTIMIZATION STEP:     11
 --------------------------

 CELL| Volume [angstrom^3]:                                           267.177681
 CELL| Vector a [angstrom]:       6.589     0.000     0.000   |a| =     6.588791
 CELL| Vector b [angstrom]:      -0.000     6.145     0.000   |b| =     6.145237
 CELL| Vector c [angstrom]:      -0.997    -0.000     6.599   |c| =     6.673600
 CELL| Angle (b,c), alpha [degree]:                                    90.000027
 CELL| Angle (a,c), beta  [degree]:                                    98.594464
 CELL| Angle (a,b), gamma [degree]:                                    90.000001
 CELL| Numerically orthorhombic:                                              NO
 CELL| Periodicity                                                           XYZ

 Extrapolation method: ASPC

 Number of electrons:                                                         88
 Number of occupied orbitals:                                                 44
 Number of molecular orbitals:                                                80

 Number of orbital functions:                                                 80
 Number of independent orbital functions:                                     80


 SCF WAVEFUNCTION OPTIMIZATION

  Step     Update method      Time    Convergence         Total energy    Change
  ------------------------------------------------------------------------------
     1 TBLite/Diag 0.40E+00    0.0     0.01265210       -50.1680838683 -5.02E+01
     2 TBLite/Diag 0.40E+00    0.0     0.00046682       -50.1680852461 -1.38E-06
     3 TBLite/Diag 0.40E+00    0.0     0.00039658       -50.1680852194  2.66E-08
     4 TBLite/Diag 0.40E+00    0.0     0.00031180       -50.1680855336 -3.14E-07
     5 TBLite/Diag 0.40E+00    0.0     0.00008927       -50.1680855536 -2.00E-08
     6 TBLite/Diag 0.40E+00    0.0     0.00001477       -50.1680855552 -1.61E-09
     7 TBLite/Diag 0.40E+00    0.0     0.00000705       -50.1680855553 -1.16E-10
     8 TBLite/Diag 0.40E+00    0.0     0.00000372       -50.1680855553 -2.36E-11
     9 TBLite/Diag 0.40E+00    0.0     0.00000097       -50.1680855553 -3.06E-12
    10 TBLite/Diag 0.40E+00    0.0     0.00000035       -50.1680855553 -3.98E-13
    11 TBLite/Diag 0.40E+00    0.0     0.00000026       -50.1680855553 -9.95E-14
    12 TBLite/Diag 0.40E+00    0.0     0.00000002       -50.1680855553  9.95E-14
    13 TBLite/Diag 0.40E+00    0.0     8.6990E-09       -50.1680855553 -9.95E-14
    14 TBLite/Diag 0.40E+00    0.0     8.5927E-10       -50.1680855553  5.68E-14

  *** SCF run converged in    14 steps ***


  Core Hamiltonian energy:                                    -50.80617354448821
  Repulsive potential energy:                                   0.58736049359655
  Electrostatic energy:                                         0.11058137455662
  Self-consistent dispersion energy:                           -0.07548881273412
  Non-self consistent dispersion energy:                        0.01563493376678
  Correction for halogen bonding:                               0.00000000000000
  Electronic entropic energy:                                  -0.00000000000000
  Fermi energy:                                                -0.30360928405220

  Total energy:                                               -50.16808555530238
  Total energy (extrapolated to T->0):                        -50.16808555530238

 ENERGY| Total FORCE_EVAL ( QS ) energy [hartree]            -50.168085555302383

 OPT| **************************************************************************
 OPT| Step number                                                             11
 OPT| Optimization method                                                   BFGS
 OPT| Total energy [hartree]                                      -50.1680855553
 OPT| Internal pressure [bar]                                   -4512.2738864531
 OPT| Effective energy change [hartree]                            -0.0007718672
 OPT| Predicted energy change [hartree]                            -0.0005367309
 OPT| Scaling factor                                                0.0000000000
 OPT| Step size                                                     0.0675375249
 OPT| Trust radius                                                  0.4724315332
 OPT| Decrease in energy                                                     YES
 OPT| Used time [s]                                                        2.264
 OPT|
 OPT| Maximum step size                                             0.0675375249
 OPT| Convergence limit for maximum step size                       0.0030000000
 OPT| Maximum step size is converged                                          NO
 OPT|
 OPT| RMS step size                                                 0.0154759807
 OPT| Convergence limit for RMS step size                           0.0015000000
 OPT| RMS step size is converged                                              NO
 OPT|
 OPT| Maximum gradient                                              0.0063013990
[...]

 CELL| Volume [angstrom^3]:                                           270.679038
 CELL| Vector a [angstrom]:       6.543     0.000     0.000   |a| =     6.542561
 CELL| Vector b [angstrom]:       0.000     6.510     0.000   |b| =     6.509989
 CELL| Vector c [angstrom]:      -0.611    -0.000     6.355   |c| =     6.384447
 CELL| Angle (b,c), alpha [degree]:                                    90.000097
 CELL| Angle (a,c), beta  [degree]:                                    95.489941
 CELL| Angle (a,b), gamma [degree]:                                    89.999953
 CELL| Numerically orthorhombic:                                              NO
 CELL| Periodicity                                                           XYZ

 Extrapolation method: ASPC

 Number of electrons:                                                         88
 Number of occupied orbitals:                                                 44
 Number of molecular orbitals:                                                80

 Number of orbital functions:                                                 80
 Number of independent orbital functions:                                     80


 SCF WAVEFUNCTION OPTIMIZATION

  Step     Update method      Time    Convergence         Total energy    Change
  ------------------------------------------------------------------------------
     1 TBLite/Diag 0.40E+00    0.0     0.00079477       -50.1765393345 -5.02E+01
     2 TBLite/Diag 0.40E+00    0.0     0.00005440       -50.1765393406 -6.11E-09
     3 TBLite/Diag 0.40E+00    0.0     0.00003002       -50.1765393398  7.92E-10
     4 TBLite/Diag 0.40E+00    0.0     0.00002086       -50.1765393416 -1.84E-09
     5 TBLite/Diag 0.40E+00    0.0     0.00000477       -50.1765393417 -5.01E-11
     6 TBLite/Diag 0.40E+00    0.0     0.00000116       -50.1765393417 -2.38E-12
     7 TBLite/Diag 0.40E+00    0.0     0.00000041       -50.1765393417 -5.33E-13
     8 TBLite/Diag 0.40E+00    0.0     0.00000011       -50.1765393417 -4.26E-14
     9 TBLite/Diag 0.40E+00    0.0     0.00000006       -50.1765393417  5.68E-14
    10 TBLite/Diag 0.40E+00    0.0     0.00000003       -50.1765393417  6.39E-14
    11 TBLite/Diag 0.40E+00    0.0     9.5085E-09       -50.1765393417 -1.49E-13
    12 TBLite/Diag 0.40E+00    0.0     2.1549E-09       -50.1765393417  3.55E-14
    13 TBLite/Diag 0.40E+00    0.0     4.2587E-10       -50.1765393417  3.55E-14

  *** SCF run converged in    13 steps ***


  Core Hamiltonian energy:                                    -50.81084933016809
  Repulsive potential energy:                                   0.58771548501343
  Electrostatic energy:                                         0.10587308505748
  Self-consistent dispersion energy:                           -0.07442055303736
  Non-self consistent dispersion energy:                        0.01514197143250
  Correction for halogen bonding:                               0.00000000000000
  Electronic entropic energy:                                  -0.00000000000000
  Fermi energy:                                                -0.30736218301112

  Total energy:                                               -50.17653934170204
  Total energy (extrapolated to T->0):                        -50.17653934170204

 ENERGY| Total FORCE_EVAL ( QS ) energy [hartree]            -50.176539341702039

 OPT| **************************************************************************
 OPT| Step number                                                             86
 OPT| Optimization method                                                   BFGS
 OPT| Total energy [hartree]                                      -50.1765393417
 OPT| Internal pressure [bar]                                     -45.2698043583
 OPT| Effective energy change [hartree]                             0.0000002198
 OPT| Predicted energy change [hartree]                            -0.0000004240
 OPT| Scaling factor                                                0.0000000000
 OPT| Step size                                                     0.0023431035
 OPT| Trust radius                                                  0.4724315332
 OPT| Decrease in energy                                                      NO
 OPT| Used time [s]                                                        1.146
 OPT|
 OPT| Maximum step size                                             0.0023431035
 OPT| Convergence limit for maximum step size                       0.0030000000
 OPT| Maximum step size is converged                                         YES
 OPT|
 OPT| RMS step size                                                 0.0005771256
 OPT| Convergence limit for RMS step size                           0.0015000000
 OPT| RMS step size is converged                                             YES
 OPT|
 OPT| Maximum gradient                                              0.0001476938
 OPT| Convergence limit for maximum gradient                        0.0004500000
 OPT| Maximum gradient is converged                                          YES
 OPT|
 OPT| RMS gradient                                                  0.0000569606
 OPT| Convergence limit for RMS gradient                            0.0003000000
 OPT| RMS gradient is converged                                              YES
 OPT|
 OPT| Pressure deviation [bar]                                    -45.2698043583
 OPT| Pressure tolerance [bar]                                    100.0000000000
 OPT| Pressure is converged                                                  YES
 OPT| **************************************************************************
 OPT| Estimated peak process memory after this step [MiB]                    166

 *******************************************************************************
 ***                    GEOMETRY OPTIMIZATION COMPLETED                      ***
 *******************************************************************************

 write_final_structure: Optimization converged, writing XYZ file gladly:
  14_cyclohexanedione_GFN2_gamma_cell_opt-FINAL-1_86.xyz

 write_final_structure: Optimization converged, writing CIF file gladly:
  14_cyclohexanedione_GFN2_gamma_cell_opt-FINAL-1_86.cif

 write_final_structure: Done!

                    Reevaluating energy at the minimum

 CELL| Volume [angstrom^3]:                                           270.679038
 CELL| Vector a [angstrom]:       6.543     0.000     0.000   |a| =     6.542561
 CELL| Vector b [angstrom]:       0.000     6.510     0.000   |b| =     6.509989
 CELL| Vector c [angstrom]:      -0.611    -0.000     6.355   |c| =     6.384447
 CELL| Angle (b,c), alpha [degree]:                                    90.000097
 CELL| Angle (a,c), beta  [degree]:                                    95.489941
 CELL| Angle (a,b), gamma [degree]:                                    89.999953
 CELL| Numerically orthorhombic:                                              NO
 CELL| Periodicity                                                           XYZ

 Extrapolation method: ASPC

 Number of electrons:                                                         88
 Number of occupied orbitals:                                                 44
 Number of molecular orbitals:                                                80

 Number of orbital functions:                                                 80
 Number of independent orbital functions:                                     80


 SCF WAVEFUNCTION OPTIMIZATION

  Step     Update method      Time    Convergence         Total energy    Change
  ------------------------------------------------------------------------------
     1 TBLite/Diag 0.40E+00    0.0     6.4294E-10       -50.1765393417 -5.02E+01

  *** SCF run converged in     1 steps ***


  Core Hamiltonian energy:                                    -50.81084933052082
  Repulsive potential energy:                                   0.58771548501343
  Electrostatic energy:                                         0.10587308541023
  Self-consistent dispersion energy:                           -0.07442055303735
  Non-self consistent dispersion energy:                        0.01514197143250
  Correction for halogen bonding:                               0.00000000000000
  Electronic entropic energy:                                  -0.00000000000000
  Fermi energy:                                                -0.30736218299592

  Total energy:                                               -50.17653934170202
  Total energy (extrapolated to T->0):                        -50.17653934170202

 ENERGY| Total FORCE_EVAL ( QS ) energy [hartree]            -50.176539341702018

 -------------------------------------------------------------------------------
 -                                                                             -
 -                                DBCSR STATISTICS                             -
 -                                                                             -
 -------------------------------------------------------------------------------
 COUNTER                                    TOTAL       BLAS       SMM       ACC
 flops     1 x    16 x     1              3481600       0.0%    100.0%      0.0%     
 flops     4 x    16 x     1             13926400       0.0%    100.0%      0.0%     
 flops     1 x    16 x     4             13926400       0.0%    100.0%      0.0%     
 flops     1 x    32 x     1             13926400       0.0%    100.0%      0.0%     
 flops     1 x     1 x    80             30485760       0.0%    100.0%      0.0%     
 flops     4 x    16 x     4             55705600       0.0%    100.0%      0.0%     
 flops     4 x    32 x     1             55705600       0.0%    100.0%      0.0%     
 flops     1 x    32 x     4             55705600       0.0%    100.0%      0.0%     
 flops     4 x     1 x    80            114769920       0.0%    100.0%      0.0%     
 flops     1 x     4 x    80            114769920       0.0%    100.0%      0.0%     
 flops     4 x    32 x     4            222822400       0.0%    100.0%      0.0%     
 flops     4 x     4 x    80            487772160       0.0%    100.0%      0.0%     
 flops inhomo. stacks                           0       0.0%      0.0%      0.0%
 flops total                         1.182998E+09       0.0%    100.0%      0.0%
 flops max/rank                      1.182998E+09       0.0%    100.0%      0.0%
 matmuls inhomo. stacks                         0       0.0%      0.0%      0.0%
 matmuls total                            2045328       0.0%    100.0%      0.0%
 number of processed stacks                  9004       0.0%    100.0%      0.0%
 average stack size                                     0.0     227.2       0.0
 marketing flops                     1.224243E+09
 -------------------------------------------------------------------------------
 # multiplications                           1826
 max memory usage/rank              13.673030E+09
 # max total images/rank                        1
 # max 3D layers                                1
 # MPI messages exchanged                       0
 -------------------------------------------------------------------------------
 -                                                                             -
 -                      DBCSR MESSAGE PASSING PERFORMANCE                      -
 -                                                                             -
 -------------------------------------------------------------------------------
 ROUTINE             CALLS      AVE VOLUME [Bytes]
 MP_Bcast               13                     12.
 MP_Allreduce         8323                      8.
 MP_Alltoall         60789                  36558.
 MP_ISend             7304                   4080.
 MP_IRecv             7304                   4080.
 -------------------------------------------------------------------------------

 -------------------------------------------------------------------------------
 -                                                                             -
 -                          OFFLOAD MEMPOOL STATISTICS                         -
 -                                                                             -
 -------------------------------------------------------------------------------
 Memory consumption                Number of allocations  Used [MiB]  Size [MiB]
 Device                                                1           0           0
 Host                                                  1           0           0
 -------------------------------------------------------------------------------

 MEMORY| Estimated peak process memory [MiB]                                 166

 -------------------------------------------------------------------------------
 -                                                                             -
 -                         MESSAGE PASSING PERFORMANCE                         -
 -                                                                             -
 -------------------------------------------------------------------------------

 ROUTINE             CALLS      AVE VOLUME [Bytes]
 MP_Group               87
 MP_Bcast             2800                    328.
 MP_Allreduce        43165                    240.
 MP_Sync              1487
 MP_comm_split        1400
 -------------------------------------------------------------------------------


 -------------------------------------------------------------------------------
 -                                                                             -
 -                           R E F E R E N C E S                               -
 -                                                                             -
 -------------------------------------------------------------------------------
 
 CP2K version 2026.1 (Development Version), the CP2K developers group (2026).
 CP2K is freely available from https://www.cp2k.org/ .
 
 M. Iannuzzi, J. Wilhelm, F. Stein, A. Bussy, H. Elgabarty, D. Golze, A. Hehn, 
 M. Graml, S. Marek, B. Sertcan Gökmen, C. Schran, H. Forbert, R. Z. 
 Khaliullin, A. Kozhevnikov, M. Taillefumier, R. Meli, V. V. Rybkin, M. Brehm, 
 R. Schade, O. Schütt, J. V. Pototschnig, H. Mirhosseini, A. Knüpfer, D. Marx, 
 M. Krack, J. Hutter, T. D. Kühne.
 J. Phys. Chem. B 130, 1237-1310 (2026).
 The CP2K Program Package Made Simple.
 https://doi.org/10.1021/acs.jpcb.5c05851

 A. Katbashev, M. Stahn, T. Rose, V. Alizadeh, M. Friede, C. Plett, P. 
 Steinbach, S. Ehlert.
 J. Phys. Chem. A 129, 2667-2682 (2025).
 Overview on Building Blocks and Applications of Efficient and Robust Extended 
 Tight Binding.
 https://doi.org/10.1021/acs.jpca.4c08263

 T. D. Kühne, M. Iannuzzi, M. Del Ben, V. V. Rybkin, P. Seewald, F. Stein, T. 
 Laino, R. Z. Khaliullin, O. Schütt, F. Schiffmann, D. Golze, J. Wilhelm, S. 
 Chulkov, M. H. Bani-Hashemian, V. Weber, U. Borstnik, M. Taillefumier, A. S. 
 Jakobovits, A. Lazzaro, H. Pabst, T. Müller, R. Schade, M. Guidon, S. 
 Andermatt, N. Holmberg, G. K. Schenter, A. Hehn, A. Bussy, F. Belleflamme, G. 
 Tabacchi, A. Glöß, M. Lass, I. Bethune, C. J. Mundy, C. Plessl, M. Watkins, 
 J. VandeVondele, M. Krack, J. Hutter.
 J. Chem. Phys. 152, 194103 (2020).
 CP2K: An electronic structure and molecular dynamics software package - 
 Quickstep: Efficient and accurate electronic structure calculations.
 https://doi.org/10.1063/5.0007045

 P. Pracht, E. Caldeweyher, S. Ehlert, S. Grimme.
 ChemRxiv, (2019).
 A Robust Non-Self-Consistent Tight-Binding Quantum Chemistry Method for large 
 Molecules.
 https://doi.org/10.26434/chemrxiv.8326202.v1

 S. Grimme, C. Bannwarth, P. Shushkov.
 J. Chem. Theory Comput. 13, 1989 (2017).
 A Robust and Accurate Tight-Binding Quantum Chemical Method for Structures, 
 Vibrational Frequencies, and Noncovalent Interactions of Large Molecular 
 Systems Parametrized for All spd-Block Elements (Z = 1-86).
 https://doi.org/10.1021/acs.jctc.7b00118

 O. Schuett, P. Messmer, J. Hutter, J. VandeVondele.
 Electronic Structure Calculations on Graphics Processing Units, 173-190 (2016).
 GPU-Accelerated Sparse Matrix-Matrix Multiplication for Linear Scaling Density 
 Functional Theory.
 https://doi.org/10.1002/9781118670712.ch8

 A. Heinecke, G. Henry, M. Hutchinson, H. Pabst.
 Proceedings of Intl. Supercomputing Conference, 981-991 (2016).
 LIBXSMM: Accelerating Small Matrix Multiplications by Runtime Code Generation.
 https://doi.org/10.1109/SC.2016.83

 U. Borstnik, J. VandeVondele, V. Weber, J. Hutter.
 Parallel Comput. 40, 47-58 (2014).
 Sparse matrix multiplication: The distributed block-compressed sparse row 
 library.
 https://doi.org/10.1016/j.parco.2014.03.012

 T. D. Kühne, M. Krack, F. R. Mohamed, M. Parrinello.
 Phys. Rev. Lett. 98, 066401 (2007).
 Efficient and accurate Car-Parrinello-like approach to Born-Oppenheimer 
 molecular dynamics.
 https://doi.org/10.1103/PhysRevLett.98.066401

 M. Frigo, S. G. Johnson.
 Proc. IEEE 93, 216-231 (2005).
 The design and implementation of FFTW3.
 https://doi.org/10.1109/JPROC.2004.840301

 J. Kolafa.
 J. Comput. Chem. 25, 335-342 (2004).
 Time-reversible always stable predictor-corrector method for molecular dynamics 
 of polarizable molecules.
 https://doi.org/10.1002/jcc.10385

 N. D. Mermin.
 Phys. Rev. 137, A1441-A1443 (1965).
 Thermal Properties of the Inhomogeneous Electron Gas.
 https://doi.org/10.1103/PhysRev.137.A1441


 -------------------------------------------------------------------------------
 -                                                                             -
 -                                T I M I N G                                  -
 -                                                                             -
 -------------------------------------------------------------------------------
 SUBROUTINE                       CALLS  ASD         SELF TIME        TOTAL TIME
                                MAXIMUM       AVERAGE  MAXIMUM  AVERAGE  MAXIMUM
 CP2K                                 1  1.0    0.002    0.002  126.236  126.236
 cp_cell_opt                          1  2.0    0.000    0.000  126.229  126.229
 geoopt_bfgs                          1  3.0    0.009    0.009  126.229  126.229
 cp_eval_at                          88  4.0    0.009    0.009  126.082  126.082
 qs_forces                           87  5.0    0.005    0.005  125.785  125.785
 build_tblite_matrices              175  7.0  108.825  108.825  110.887  110.887
 qs_energies                         88  6.0    0.003    0.003   37.294   37.294
 qs_energies_init_hamiltonians       88  7.0    0.000    0.000   31.678   31.678
 rebuild_ks_matrix                 1314  9.8    0.001    0.001   10.886   10.886
 build_tblite_ks_matrix            1314 10.8   10.860   10.860   10.885   10.885
 qs_ks_update_qs_env_forces          87  6.0    0.000    0.000    9.441    9.441
 scf_env_do_scf                      88  7.0    0.001    0.001    5.038    5.038
 scf_env_do_scf_inner_loop         1227  8.0    0.737    0.737    5.032    5.032
 qs_scf_new_mos                    1227  9.0    0.005    0.005    2.634    2.634
 -------------------------------------------------------------------------------

 The number of warnings for this run is : 0
 
 -------------------------------------------------------------------------------
  **** **** ******  **  PROGRAM ENDED AT                 2026-05-23 22:49:15.158
 ***** ** ***  *** **   PROGRAM RAN ON                                spark-c86c
 **    ****   ******    PROGRAM RAN BY                                  kuehne88
 ***** **    ** ** **   PROGRAM PROCESS ID                               2267568
  **** **  *******  **  PROGRAM STOPPED IN /home/kuehne88/periodic-gfn2-benchmar
                                           ks/X23b/runs/cellopt_gamma/GFN2/14-cy
                                           clohexanedione_GFN2_gamma_cellopt
