 DBCSR| CPU Multiplication driver                                           XSMM (U)
 DBCSR| Multrec recursion limit                                              512 (U)
 DBCSR| Multiplication stack size                                           1000 (D)
 DBCSR| Maximum elements for images                                    UNLIMITED (U)
 DBCSR| Multiplicative factor virtual images                                   1 (U)
 DBCSR| Use multiplication densification                                       T (D)
 DBCSR| Multiplication size stacks                                             3 (U)
 DBCSR| Use memory pool for CPU allocation                                     F (U)
 DBCSR| Number of 3D layers                                               SINGLE (U)
 DBCSR| Use MPI memory allocation                                              F (U)
 DBCSR| Use RMA algorithm                                                      F (U)
 DBCSR| Use Communication thread                                               T (U)
 DBCSR| Communication thread load                                             87 (D)
 DBCSR| MPI: My process id                                                     0
 DBCSR| MPI: Number of processes                                               1
 DBCSR| OMP: Current number of threads                                         1
 DBCSR| OMP: Max number of threads                                             1
 DBCSR| Split modifier for TAS multiplication algorithm                  1.0E+00 (U)


  **** **** ******  **  PROGRAM STARTED AT               2026-05-23 22:46:47.726
 ***** ** ***  *** **   PROGRAM STARTED ON                            spark-c86c
 **    ****   ******    PROGRAM STARTED BY                              kuehne88
 ***** **    ** ** **   PROGRAM PROCESS ID                               2263087
  **** **  *******  **  PROGRAM STARTED IN /home/kuehne88/periodic-gfn2-benchmar
                                           ks/X23b/runs/crystal_sp/k333/GFN2/ura
                                           cil_GFN2_k333_sp

 CP2K| version string:                 CP2K version 2026.1 (Development Version)
 CP2K| source code revision number:                                   0622d442e4
 CP2K| cp2kflags: omp fftw3 libxc parallel scalapack mpi_f08 xsmm spglib libdftd
 CP2K|            4 dftd4_v3 mctc-lib tblite
 CP2K| is freely available from                            https://www.cp2k.org/
 CP2K| Program compiled at                                   2026-05-23 22:05:08
 CP2K| Program compiled on                                            spark-c86c
 CP2K| Program compiled for                                              aarch64
 CP2K| Data directory path    /home/kuehne88/cp2k-master-tblite-20260523/install
 CP2K| Input file name                                   uracil_GFN2_k333_sp.inp

 GLOBAL| Force Environment number                                              1
 GLOBAL| Basis set file name                                           BASIS_SET
 GLOBAL| Potential file name                                           POTENTIAL
 GLOBAL| MM Potential file name                                     MM_POTENTIAL
 GLOBAL| Coordinate file name                                      __STD_INPUT__
 GLOBAL| Method name                                                        CP2K
 GLOBAL| Project name                                    uracil_GFN2_k333_energy
 GLOBAL| Run type                                                         ENERGY
 GLOBAL| FFT library                                                       FFTW3
 GLOBAL| Diagonalization library                                       ScaLAPACK
 GLOBAL| Cholesky decomposition library                                ScaLAPACK
 GLOBAL| DGEMM library                                                      BLAS
 GLOBAL| Direct generalized diagonalization requested                          F
 GLOBAL| Orthonormality check for eigenvectors                          DISABLED
 GLOBAL| Matrix multiplication library                                 ScaLAPACK
 GLOBAL| All-to-all communication in single precision                          F
 GLOBAL| FFTs using library dependent lengths                                  F
 GLOBAL| Grid backend                                                       AUTO
 GLOBAL| Global print level                                                  LOW
 GLOBAL| MPI I/O enabled                                                       T
 GLOBAL| Total number of message passing processes                             1
 GLOBAL| Number of distributed systems (nodes)                                 1
 GLOBAL| Number of threads for this process                                    1
 GLOBAL| This output is from process                                           0
 GLOBAL| OpenMP stack size per thread (OMP_STACKSIZE)                    default
 GLOBAL| CPU model name                                                  UNKNOWN
 GLOBAL| CPUID                                                              2200
 GLOBAL| Compiled for CPUID                                                 2000

 *** HINT in environment.F:970 :: The compiler target flags (arm_arch64)   ***
 *** used to build this binary cannot exploit all extensions of this CPU   ***
 *** model (arm_sve256). Consider compiler target flags as part of FCFLAGS ***
 *** and CFLAGS (ARCH file).                                               ***


 MEMORY| system memory details [Kb]
 MEMORY|                        rank 0           min           max       average
 MEMORY| MemTotal            125508532     125508532     125508532     125508532
 MEMORY| MemFree             101157412     101157412     101157412     101157412
 MEMORY| Buffers                867380        867380        867380        867380
 MEMORY| Cached               13869200      13869200      13869200      13869200
 MEMORY| Slab                  1587344       1587344       1587344       1587344
 MEMORY| SReclaimable           909056        909056        909056        909056
 MEMORY| MemLikelyFree       116803048     116803048     116803048     116803048


 GENERATE|  Preliminary Number of Bonds generated:                             0
 GENERATE|  Achieved consistency in connectivity generation.


                  #####   #####        #     #   #     #       #          
                 #     # #     #      #    ##### #     #   # #####  ####  
                 #     # #           #       #   ###   #       #   #    # 
                 #     #  #####     #        #   #  #  #   #   #   ###### 
                 #   # #       #   #         #   #   # #   #   #   #      
                 #    #  #     #  #          #   #  #  # # #   #    #   # 
                  #### #  #####  #           #   ###   ##  #   #     ###  

                                   GFN2-xTB  
                                 Version 0.0                       
                            Johann V. Pototschnig                  



 TOTAL NUMBERS AND MAXIMUM NUMBERS

  Total number of            - Atomic kinds:                                   4
                             - Atoms:                                         48
                             - Shell sets:                                    80
                             - Shells:                                        80
                             - Primitive Cartesian functions:                304
                             - Cartesian basis functions:                    144
                             - Spherical basis functions:                    144

  Maximum angular momentum of the orbital basis functions:                     1


 SCF PARAMETERS         Density guess:                                     MOPAC
                        --------------------------------------------------------
                        max_scf:                                             300
                        max_scf_history:                                       0
                        max_diis:                                              4
                        --------------------------------------------------------
                        eps_scf:                                        1.00E-09
                        eps_scf_history:                                0.00E+00
                        eps_diis:                                       1.00E-01
                        eps_eigval:                                     1.00E-05
                        --------------------------------------------------------
                        level_shift [a.u.]:                             0.000000
                        added MOs                                        60    0
                        --------------------------------------------------------
                        Mixing method:                           DIRECT_P_MIXING
                        --------------------------------------------------------
                        Smear method:                                FERMI_DIRAC
                        Electronic temperature [K]:                        300.0
                        Electronic temperature [a.u.]:                  9.50E-04
                        Accuracy threshold:                             1.00E-06
                        --------------------------------------------------------
                        No outer SCF

 Extrapolation method: initial_guess

 Number of electrons:                                                        168
 Number of occupied orbitals:                                                 84
 Number of molecular orbitals:                                               144

 Number of orbital functions:                                                144
 Number of independent orbital functions:                                    144


 SCF WAVEFUNCTION OPTIMIZATION

  Step     Update method      Time    Convergence         Total energy    Change
  ------------------------------------------------------------------------------
     1 TBLite/Diag 0.40E+00    1.0     1.12624168       -97.1365099344 -9.71E+01
     2 TBLite/Diag 0.40E+00    1.1     0.33669141       -98.2354116021 -1.10E+00
     3 TBLite/Diag 0.40E+00    1.1     0.13175303       -98.2612432377 -2.58E-02
     4 TBLite/Diag 0.40E+00    1.1     0.09337864       -98.2735324258 -1.23E-02
     5 TBLite/Diag 0.40E+00    1.1     0.04994662       -98.2796324703 -6.10E-03
     6 TBLite/Diag 0.40E+00    1.1     0.01685407       -98.2803307925 -6.98E-04
     7 TBLite/Diag 0.40E+00    1.1     0.00468591       -98.2804167735 -8.60E-05
     8 TBLite/Diag 0.40E+00    1.0     0.00279275       -98.2804229692 -6.20E-06
     9 TBLite/Diag 0.40E+00    1.0     0.00086100       -98.2804276006 -4.63E-06
    10 TBLite/Diag 0.40E+00    1.0     0.00025552       -98.2804274578  1.43E-07
    11 TBLite/Diag 0.40E+00    1.1     0.00015963       -98.2804277410 -2.83E-07
    12 TBLite/Diag 0.40E+00    1.0     0.00004486       -98.2804277504 -9.39E-09
    13 TBLite/Diag 0.40E+00    0.7     0.00001107       -98.2804277503  5.23E-11
    14 TBLite/Diag 0.40E+00    0.4     0.00000855       -98.2804277505 -2.07E-10
    15 TBLite/Diag 0.40E+00    0.4     0.00000340       -98.2804277506 -7.96E-11
    16 TBLite/Diag 0.40E+00    0.4     0.00000102       -98.2804277506  2.87E-12
    17 TBLite/Diag 0.40E+00    0.4     0.00000107       -98.2804277506 -5.30E-12
    18 TBLite/Diag 0.40E+00    0.4     0.00000021       -98.2804277506 -3.13E-13
    19 TBLite/Diag 0.40E+00    0.4     0.00000003       -98.2804277506 -5.68E-14
    20 TBLite/Diag 0.40E+00    0.4     8.6515E-09       -98.2804277506 -5.68E-14
    21 TBLite/Diag 0.40E+00    0.4     4.9825E-09       -98.2804277506  7.11E-14
    22 TBLite/Diag 0.40E+00    0.4     2.0279E-09       -98.2804277506  0.00E+00
    23 TBLite/Diag 0.40E+00    0.4     3.5861E-10       -98.2804277506  0.00E+00

  *** SCF run converged in    23 steps ***


  Core Hamiltonian energy:                                   -100.25210094506150
  Repulsive potential energy:                                   1.81542087187107
  Electrostatic energy:                                         0.26926721645812
  Self-consistent dispersion energy:                           -0.14112609888472
  Non-self consistent dispersion energy:                        0.02811120498653
  Correction for halogen bonding:                               0.00000000000000
  Electronic entropic energy:                                  -0.00000000000000
  Fermi energy:                                                -0.33780207940694

  Total energy:                                               -98.28042775063051
  Total energy (extrapolated to T->0):                        -98.28042775063051

 ENERGY| Total FORCE_EVAL ( QS ) energy [hartree]            -98.280427750630508

 -------------------------------------------------------------------------------
 -                                                                             -
 -                                DBCSR STATISTICS                             -
 -                                                                             -
 -------------------------------------------------------------------------------
 COUNTER                                    TOTAL       BLAS       SMM       ACC
 flops inhomo. stacks                           0       0.0%      0.0%      0.0%
 flops total                         0.000000E+00       0.0%      0.0%      0.0%
 flops max/rank                      0.000000E+00       0.0%      0.0%      0.0%
 matmuls inhomo. stacks                         0       0.0%      0.0%      0.0%
 matmuls total                                  0       0.0%      0.0%      0.0%
 number of processed stacks                     0       0.0%      0.0%      0.0%
 average stack size                                     0.0       0.0       0.0
 marketing flops                     0.000000E+00
 -------------------------------------------------------------------------------
 -                                                                             -
 -                      DBCSR MESSAGE PASSING PERFORMANCE                      -
 -                                                                             -
 -------------------------------------------------------------------------------
 ROUTINE             CALLS      AVE VOLUME [Bytes]
 MP_Bcast                1                     12.
 MP_Allreduce           19                     21.
 MP_Alltoall         52800                 125331.
 -------------------------------------------------------------------------------

 -------------------------------------------------------------------------------
 -                                                                             -
 -                          OFFLOAD MEMPOOL STATISTICS                         -
 -                                                                             -
 -------------------------------------------------------------------------------
 Memory consumption                Number of allocations  Used [MiB]  Size [MiB]
 Device                                                1           0           0
 Host                                                  1           0           0
 -------------------------------------------------------------------------------

 MEMORY| Estimated peak process memory [MiB]                                 385

 -------------------------------------------------------------------------------
 -                                                                             -
 -                         MESSAGE PASSING PERFORMANCE                         -
 -                                                                             -
 -------------------------------------------------------------------------------

 ROUTINE             CALLS      AVE VOLUME [Bytes]
 MP_Group                1
 MP_Bcast            22703                      7.
 MP_Allreduce        23505                    425.
 MP_Sync                 1
 MP_Wait             18900
 MP_ISend            26460                  23704.
 MP_IRecv            26460                  23704.
 -------------------------------------------------------------------------------


 -------------------------------------------------------------------------------
 -                                                                             -
 -                           R E F E R E N C E S                               -
 -                                                                             -
 -------------------------------------------------------------------------------
 
 CP2K version 2026.1 (Development Version), the CP2K developers group (2026).
 CP2K is freely available from https://www.cp2k.org/ .
 
 M. Iannuzzi, J. Wilhelm, F. Stein, A. Bussy, H. Elgabarty, D. Golze, A. Hehn, 
 M. Graml, S. Marek, B. Sertcan Gökmen, C. Schran, H. Forbert, R. Z. 
 Khaliullin, A. Kozhevnikov, M. Taillefumier, R. Meli, V. V. Rybkin, M. Brehm, 
 R. Schade, O. Schütt, J. V. Pototschnig, H. Mirhosseini, A. Knüpfer, D. Marx, 
 M. Krack, J. Hutter, T. D. Kühne.
 J. Phys. Chem. B 130, 1237-1310 (2026).
 The CP2K Program Package Made Simple.
 https://doi.org/10.1021/acs.jpcb.5c05851

 A. Katbashev, M. Stahn, T. Rose, V. Alizadeh, M. Friede, C. Plett, P. 
 Steinbach, S. Ehlert.
 J. Phys. Chem. A 129, 2667-2682 (2025).
 Overview on Building Blocks and Applications of Efficient and Robust Extended 
 Tight Binding.
 https://doi.org/10.1021/acs.jpca.4c08263

 T. D. Kühne, M. Iannuzzi, M. Del Ben, V. V. Rybkin, P. Seewald, F. Stein, T. 
 Laino, R. Z. Khaliullin, O. Schütt, F. Schiffmann, D. Golze, J. Wilhelm, S. 
 Chulkov, M. H. Bani-Hashemian, V. Weber, U. Borstnik, M. Taillefumier, A. S. 
 Jakobovits, A. Lazzaro, H. Pabst, T. Müller, R. Schade, M. Guidon, S. 
 Andermatt, N. Holmberg, G. K. Schenter, A. Hehn, A. Bussy, F. Belleflamme, G. 
 Tabacchi, A. Glöß, M. Lass, I. Bethune, C. J. Mundy, C. Plessl, M. Watkins, 
 J. VandeVondele, M. Krack, J. Hutter.
 J. Chem. Phys. 152, 194103 (2020).
 CP2K: An electronic structure and molecular dynamics software package - 
 Quickstep: Efficient and accurate electronic structure calculations.
 https://doi.org/10.1063/5.0007045

 P. Pracht, E. Caldeweyher, S. Ehlert, S. Grimme.
 ChemRxiv, (2019).
 A Robust Non-Self-Consistent Tight-Binding Quantum Chemistry Method for large 
 Molecules.
 https://doi.org/10.26434/chemrxiv.8326202.v1

 S. Grimme, C. Bannwarth, P. Shushkov.
 J. Chem. Theory Comput. 13, 1989 (2017).
 A Robust and Accurate Tight-Binding Quantum Chemical Method for Structures, 
 Vibrational Frequencies, and Noncovalent Interactions of Large Molecular 
 Systems Parametrized for All spd-Block Elements (Z = 1-86).
 https://doi.org/10.1021/acs.jctc.7b00118

 O. Schuett, P. Messmer, J. Hutter, J. VandeVondele.
 Electronic Structure Calculations on Graphics Processing Units, 173-190 (2016).
 GPU-Accelerated Sparse Matrix-Matrix Multiplication for Linear Scaling Density 
 Functional Theory.
 https://doi.org/10.1002/9781118670712.ch8

 A. Heinecke, G. Henry, M. Hutchinson, H. Pabst.
 Proceedings of Intl. Supercomputing Conference, 981-991 (2016).
 LIBXSMM: Accelerating Small Matrix Multiplications by Runtime Code Generation.
 https://doi.org/10.1109/SC.2016.83

 U. Borstnik, J. VandeVondele, V. Weber, J. Hutter.
 Parallel Comput. 40, 47-58 (2014).
 Sparse matrix multiplication: The distributed block-compressed sparse row 
 library.
 https://doi.org/10.1016/j.parco.2014.03.012

 M. Frigo, S. G. Johnson.
 Proc. IEEE 93, 216-231 (2005).
 The design and implementation of FFTW3.
 https://doi.org/10.1109/JPROC.2004.840301

 N. D. Mermin.
 Phys. Rev. 137, A1441-A1443 (1965).
 Thermal Properties of the Inhomogeneous Electron Gas.
 https://doi.org/10.1103/PhysRev.137.A1441


 -------------------------------------------------------------------------------
 -                                                                             -
 -                                T I M I N G                                  -
 -                                                                             -
 -------------------------------------------------------------------------------
 SUBROUTINE                       CALLS  ASD         SELF TIME        TOTAL TIME
                                MAXIMUM       AVERAGE  MAXIMUM  AVERAGE  MAXIMUM
 CP2K                                 1  1.0    0.012    0.012   18.963   18.963
 qs_energies                          1  2.0    0.000    0.000   18.945   18.945
 scf_env_do_scf                       1  3.0    0.000    0.000   17.793   17.793
 scf_env_do_scf_inner_loop           23  4.0    1.313    1.313   17.793   17.793
 qs_scf_new_mos_kp                   23  5.0    0.000    0.000   14.429   14.429
 do_general_diag_kp                  23  6.0    0.025    0.025   14.429   14.429
 cp_cfm_geeig                       621  7.0    0.004    0.004    4.398    4.398
 cp_cfm_heevd                       621  8.0    0.001    0.001    2.914    2.914
 cp_cfm_heevd_base                  621  9.0    2.913    2.913    2.913    2.913
 kpoint_density_transform            23  7.0    0.003    0.003    2.537    2.537
 dbcsr_complete_redistribute       3860  8.3    1.654    1.654    1.991    1.991
 copy_dbcsr_to_fm                  2618  6.9    0.016    0.016    1.956    1.956
 rskp_transform                    1269  6.9    1.907    1.907    1.907    1.907
 qs_ks_update_qs_env                 23  5.0    0.000    0.000    1.802    1.802
 rebuild_ks_matrix                   23  6.0    0.000    0.000    1.709    1.709
 build_tblite_ks_matrix              23  7.0    1.686    1.686    1.709    1.709
 qs_diis_b_calc_err_kp              594  7.0    0.026    0.026    1.406    1.406
 parallel_gemm_cfm                 2376  8.0    0.001    0.001    1.371    1.371
 parallel_gemm_cfm_gemm            2376  9.0    0.001    0.001    1.370    1.370
 cp_cfm_gemm                       2376 10.0    1.368    1.368    1.368    1.368
 copy_fm_to_dbcsr                  1242  8.0    0.005    0.005    1.298    1.298
 cp_cfm_triangular_multiply        1863  8.0    1.120    1.120    1.120    1.120
 dbcsr_desymmetrize_deep           5156  7.4    0.856    0.856    1.114    1.114
 qs_energies_init_hamiltonians        1  3.0    0.000    0.000    1.065    1.065
 build_tblite_matrices                1  4.0    0.865    0.865    1.053    1.053
 transform_dmat                     621  8.0    0.841    0.841    0.841    0.841
 kpoint_density_matrices             23  7.0    0.010    0.010    0.691    0.691
 parallel_gemm_fm_gemm             2484  8.0    0.001    0.001    0.674    0.674
 cp_fm_start_copy_general          3780  7.3    0.628    0.628    0.673    0.673
 cp_fm_gemm                        2484  9.0    0.673    0.673    0.673    0.673
 cp_fm_finish_copy_general         3780  7.3    0.501    0.501    0.505    0.505
 dbcsr_copy                        3082  7.5    0.016    0.016    0.503    0.503
 dbcsr_copy_into_existing          1242 10.0    0.481    0.481    0.485    0.485
 -------------------------------------------------------------------------------

 The number of warnings for this run is : 0
 
 -------------------------------------------------------------------------------
  **** **** ******  **  PROGRAM ENDED AT                 2026-05-23 22:47:07.030
 ***** ** ***  *** **   PROGRAM RAN ON                                spark-c86c
 **    ****   ******    PROGRAM RAN BY                                  kuehne88
 ***** **    ** ** **   PROGRAM PROCESS ID                               2263087
  **** **  *******  **  PROGRAM STOPPED IN /home/kuehne88/periodic-gfn2-benchmar
                                           ks/X23b/runs/crystal_sp/k333/GFN2/ura
                                           cil_GFN2_k333_sp
