 DBCSR| CPU Multiplication driver                                           XSMM (U)
 DBCSR| Multrec recursion limit                                              512 (U)
 DBCSR| Multiplication stack size                                           1000 (D)
 DBCSR| Maximum elements for images                                    UNLIMITED (U)
 DBCSR| Multiplicative factor virtual images                                   1 (U)
 DBCSR| Use multiplication densification                                       T (D)
 DBCSR| Multiplication size stacks                                             3 (U)
 DBCSR| Use memory pool for CPU allocation                                     F (U)
 DBCSR| Number of 3D layers                                               SINGLE (U)
 DBCSR| Use MPI memory allocation                                              F (U)
 DBCSR| Use RMA algorithm                                                      F (U)
 DBCSR| Use Communication thread                                               T (U)
 DBCSR| Communication thread load                                             87 (D)
 DBCSR| MPI: My process id                                                     0
 DBCSR| MPI: Number of processes                                               1
 DBCSR| OMP: Current number of threads                                         1
 DBCSR| OMP: Max number of threads                                             1
 DBCSR| Split modifier for TAS multiplication algorithm                  1.0E+00 (U)


  **** **** ******  **  PROGRAM STARTED AT               2026-05-23 23:04:09.179
 ***** ** ***  *** **   PROGRAM STARTED ON                            spark-c86c
 **    ****   ******    PROGRAM STARTED BY                              kuehne88
 ***** **    ** ** **   PROGRAM PROCESS ID                               2275616
  **** **  *******  **  PROGRAM STARTED IN /home/kuehne88/periodic-gfn2-benchmar
                                           ks/X23b/runs/cellopt_gamma/GFN2/cyana
                                           mide_GFN2_gamma_cellopt

 CP2K| version string:                 CP2K version 2026.1 (Development Version)
 CP2K| source code revision number:                                   0622d442e4
 CP2K| cp2kflags: omp fftw3 libxc parallel scalapack mpi_f08 xsmm spglib libdftd
 CP2K|            4 dftd4_v3 mctc-lib tblite
 CP2K| is freely available from                            https://www.cp2k.org/
 CP2K| Program compiled at                                   2026-05-23 22:05:08
 CP2K| Program compiled on                                            spark-c86c
 CP2K| Program compiled for                                              aarch64
 CP2K| Data directory path    /home/kuehne88/cp2k-master-tblite-20260523/install
 CP2K| Input file name                                          continue_800.inp

 GLOBAL| Force Environment number                                              1
 GLOBAL| Basis set file name                                           BASIS_SET
 GLOBAL| Potential file name                                           POTENTIAL
 GLOBAL| MM Potential file name                                     MM_POTENTIAL
 GLOBAL| Coordinate file name                                      __STD_INPUT__
 GLOBAL| Method name                                                        CP2K
 GLOBAL| Project name                              cyanamide_GFN2_gamma_cell_opt
 GLOBAL| Run type                                                       CELL_OPT
 GLOBAL| FFT library                                                       FFTW3
 GLOBAL| Diagonalization library                                       ScaLAPACK
 GLOBAL| Cholesky decomposition library                                ScaLAPACK
 GLOBAL| DGEMM library                                                      BLAS
 GLOBAL| Direct generalized diagonalization requested                          F
 GLOBAL| Orthonormality check for eigenvectors                          DISABLED
 GLOBAL| Matrix multiplication library                                 ScaLAPACK
 GLOBAL| All-to-all communication in single precision                          F
 GLOBAL| FFTs using library dependent lengths                                  F
 GLOBAL| Grid backend                                                       AUTO
 GLOBAL| Global print level                                                  LOW
 GLOBAL| MPI I/O enabled                                                       T
 GLOBAL| Total number of message passing processes                             1
 GLOBAL| Number of distributed systems (nodes)                                 1
 GLOBAL| Number of threads for this process                                    1
 GLOBAL| This output is from process                                           0
 GLOBAL| OpenMP stack size per thread (OMP_STACKSIZE)                    default
 GLOBAL| CPU model name                                                  UNKNOWN
 GLOBAL| CPUID                                                              2200
 GLOBAL| Compiled for CPUID                                                 2000

 *** HINT in environment.F:970 :: The compiler target flags (arm_arch64)   ***
 *** used to build this binary cannot exploit all extensions of this CPU   ***
 *** model (arm_sve256). Consider compiler target flags as part of FCFLAGS ***
 *** and CFLAGS (ARCH file).                                               ***


 MEMORY| system memory details [Kb]
 MEMORY|                        rank 0           min           max       average
 MEMORY| MemTotal            125508532     125508532     125508532     125508532
 MEMORY| MemFree             106294024     106294024     106294024     106294024
 MEMORY| Buffers                870280        870280        870280        870280
 MEMORY| Cached               14131464      14131464      14131464      14131464
 MEMORY| Slab                  1599224       1599224       1599224       1599224
 MEMORY| SReclaimable           926060        926060        926060        926060
 MEMORY| MemLikelyFree       122221828     122221828     122221828     122221828


 GENERATE|  Preliminary Number of Bonds generated:                             0
 GENERATE|  Achieved consistency in connectivity generation.


                  #####   #####        #     #   #     #       #          
                 #     # #     #      #    ##### #     #   # #####  ####  
                 #     # #           #       #   ###   #       #   #    # 
                 #     #  #####     #        #   #  #  #   #   #   ###### 
                 #   # #       #   #         #   #   # #   #   #   #      
                 #    #  #     #  #          #   #  #  # # #   #    #   # 
                  #### #  #####  #           #   ###   ##  #   #     ###  

                                   GFN2-xTB  
                                 Version 0.0                       
                            Johann V. Pototschnig                  



 TOTAL NUMBERS AND MAXIMUM NUMBERS

  Total number of            - Atomic kinds:                                   3
                             - Atoms:                                         40
                             - Shell sets:                                    64
                             - Shells:                                        64
                             - Primitive Cartesian functions:                240
                             - Cartesian basis functions:                    112
                             - Spherical basis functions:                    112

  Maximum angular momentum of the orbital basis functions:                     1


 SCF PARAMETERS         Density guess:                                     MOPAC
                        --------------------------------------------------------
                        max_scf:                                             300
                        max_scf_history:                                       0
                        max_diis:                                              4
                        --------------------------------------------------------
                        eps_scf:                                        1.00E-09
                        eps_scf_history:                                0.00E+00
                        eps_diis:                                       1.00E-01
                        eps_eigval:                                     1.00E-05
                        --------------------------------------------------------
                        level_shift [a.u.]:                             0.000000
                        added MOs                                        48    0
                        --------------------------------------------------------
                        Mixing method:                           DIRECT_P_MIXING
                        --------------------------------------------------------
                        Smear method:                                FERMI_DIRAC
                        Electronic temperature [K]:                        300.0
                        Electronic temperature [a.u.]:                  9.50E-04
                        Accuracy threshold:                             1.00E-06
                        --------------------------------------------------------
                        No outer SCF

 CELL_OPT| Pressure tolerance [bar]:                                       100.0
 CELL_OPT| Keep volume of cell:                                               NO
 CELL_OPT| Keep angles between the cell vectors:                              NO
 CELL_OPT| Keep cell symmetry:                                                NO
 CELL_OPT| Constraint:                                                      NONE

 BFGS| Use rational function optimization for step estimation:                NO
 BFGS| Use model Hessian for initial guess:                                   NO
 BFGS| Restart Hessian:                                                       NO
 BFGS| Trust radius:                                                       0.472

 *******************************************************************************
 ***                     STARTING   CELL   OPTIMIZATION                      ***
 ***                                   BFGS                                  ***
 *******************************************************************************

 CELL| Volume [angstrom^3]:                                           410.077353
 CELL| Vector a [angstrom]:       6.741     0.000     0.000   |a| =     6.740875
 CELL| Vector b [angstrom]:       0.000     7.738     0.000   |b| =     7.737971
 CELL| Vector c [angstrom]:      -0.002    -0.008     7.862   |c| =     7.861812
 CELL| Angle (b,c), alpha [degree]:                                    90.055845
 CELL| Angle (a,c), beta  [degree]:                                    90.015546
 CELL| Angle (a,b), gamma [degree]:                                    89.999945
 CELL| Numerically orthorhombic:                                              NO
 CELL| Periodicity                                                           XYZ

 Extrapolation method: initial_guess

 Number of electrons:                                                        128
 Number of occupied orbitals:                                                 64
 Number of molecular orbitals:                                               112

 Number of orbital functions:                                                112
 Number of independent orbital functions:                                    112


 SCF WAVEFUNCTION OPTIMIZATION

  Step     Update method      Time    Convergence         Total energy    Change
  ------------------------------------------------------------------------------
     1 TBLite/Diag 0.40E+00    0.0     1.07626395       -71.0230650798 -7.10E+01
     2 TBLite/Diag 0.40E+00    0.0     0.34960717       -71.7020984264 -6.79E-01
     3 TBLite/Diag 0.40E+00    0.0     0.23680566       -71.7571284971 -5.50E-02
     4 TBLite/Diag 0.40E+00    0.0     0.13107292       -71.9014262191 -1.44E-01
     5 TBLite/Diag 0.40E+00    0.0     0.04385006       -71.9061283344 -4.70E-03
     6 TBLite/Diag 0.40E+00    0.0     0.03506651       -71.9072096767 -1.08E-03
     7 TBLite/Diag 0.40E+00    0.0     0.01804654       -71.9094853809 -2.28E-03
     8 TBLite/Diag 0.40E+00    0.0     0.00671885       -71.9095712087 -8.58E-05
     9 TBLite/Diag 0.40E+00    0.0     0.00187695       -71.9096189467 -4.77E-05
    10 TBLite/Diag 0.40E+00    0.0     0.00035145       -71.9096193556 -4.09E-07
    11 TBLite/Diag 0.40E+00    0.0     0.00011000       -71.9096193878 -3.22E-08
    12 TBLite/Diag 0.40E+00    0.0     0.00003766       -71.9096193877  1.35E-10
    13 TBLite/Diag 0.40E+00    0.0     0.00001913       -71.9096193889 -1.22E-09
    14 TBLite/Diag 0.40E+00    0.0     0.00000277       -71.9096193891 -1.91E-10
    15 TBLite/Diag 0.40E+00    0.0     0.00000318       -71.9096193892 -1.29E-10
    16 TBLite/Diag 0.40E+00    0.0     0.00000151       -71.9096193892 -2.36E-11
    17 TBLite/Diag 0.40E+00    0.0     0.00000021       -71.9096193892 -4.55E-13
    18 TBLite/Diag 0.40E+00    0.0     0.00000005       -71.9096193892 -9.95E-14
    19 TBLite/Diag 0.40E+00    0.0     0.00000002       -71.9096193892  4.26E-14
    20 TBLite/Diag 0.40E+00    0.0     3.7168E-09       -71.9096193892 -2.84E-14
    21 TBLite/Diag 0.40E+00    0.0     1.6360E-09       -71.9096193892 -1.42E-14
    22 TBLite/Diag 0.40E+00    0.0     6.3894E-10       -71.9096193892  1.42E-13

  *** SCF run converged in    22 steps ***


  Core Hamiltonian energy:                                    -73.33458188194128
  Repulsive potential energy:                                   1.28846259671347
  Electrostatic energy:                                         0.22223767365357
  Self-consistent dispersion energy:                           -0.10561776864428
  Non-self consistent dispersion energy:                        0.01987999098016
  Correction for halogen bonding:                               0.00000000000000
  Electronic entropic energy:                                  -0.00000000000000
  Fermi energy:                                                -0.25394286160205

  Total energy:                                               -71.90961938923836
  Total energy (extrapolated to T->0):                        -71.90961938923836

 ENERGY| Total FORCE_EVAL ( QS ) energy [hartree]            -71.909619389238358

 OPT| **************************************************************************
 OPT| Step number                                                            200
 OPT| Optimization method                                                   BFGS
 OPT| Total energy [hartree]                                      -71.9096193892
 OPT| Internal pressure [bar]                                  -10802.9930804990
 OPT| Used time [s]                                                        1.027

 --------------------------
 OPTIMIZATION STEP:    201
 --------------------------

 CELL| Volume [angstrom^3]:                                           409.500801
 CELL| Vector a [angstrom]:       6.741     0.000     0.000   |a| =     6.740770
 CELL| Vector b [angstrom]:       0.000     7.733     0.000   |b| =     7.732715
 CELL| Vector c [angstrom]:      -0.002    -0.008     7.856   |c| =     7.856216
 CELL| Angle (b,c), alpha [degree]:                                    90.057490
 CELL| Angle (a,c), beta  [degree]:                                    90.015328
 CELL| Angle (a,b), gamma [degree]:                                    89.999845
 CELL| Numerically orthorhombic:                                              NO
 CELL| Periodicity                                                           XYZ

 Extrapolation method: ASPC

 Number of electrons:                                                        128
 Number of occupied orbitals:                                                 64
 Number of molecular orbitals:                                               112

 Number of orbital functions:                                                112
 Number of independent orbital functions:                                    112


 SCF WAVEFUNCTION OPTIMIZATION

  Step     Update method      Time    Convergence         Total energy    Change
  ------------------------------------------------------------------------------
     1 TBLite/Diag 0.40E+00    0.0     0.02632202       -71.9094646629 -7.19E+01
     2 TBLite/Diag 0.40E+00    0.0     0.00630397       -71.9095951520 -1.30E-04
     3 TBLite/Diag 0.40E+00    0.0     0.00281515       -71.9096044054 -9.25E-06
     4 TBLite/Diag 0.40E+00    0.0     0.00196826       -71.9096040604  3.45E-07
     5 TBLite/Diag 0.40E+00    0.0     0.00101237       -71.9096080684 -4.01E-06
     6 TBLite/Diag 0.40E+00    0.0     0.00033813       -71.9096083207 -2.52E-07
     7 TBLite/Diag 0.40E+00    0.0     0.00007091       -71.9096083383 -1.75E-08
     8 TBLite/Diag 0.40E+00    0.0     0.00002448       -71.9096083397 -1.45E-09
     9 TBLite/Diag 0.40E+00    0.0     0.00001125       -71.9096083400 -3.19E-10
    10 TBLite/Diag 0.40E+00    0.0     0.00000375       -71.9096083401 -5.46E-11
    11 TBLite/Diag 0.40E+00    0.0     0.00000096       -71.9096083401 -2.84E-13
    12 TBLite/Diag 0.40E+00    0.0     0.00000083       -71.9096083401 -1.88E-12
    13 TBLite/Diag 0.40E+00    0.0     0.00000026       -71.9096083401 -1.28E-13
    14 TBLite/Diag 0.40E+00    0.0     0.00000012       -71.9096083401 -1.42E-13
    15 TBLite/Diag 0.40E+00    0.0     0.00000007       -71.9096083401 -1.42E-14
    16 TBLite/Diag 0.40E+00    0.0     7.8662E-09       -71.9096083401  8.53E-14
    17 TBLite/Diag 0.40E+00    0.0     2.2994E-09       -71.9096083401 -1.28E-13
    18 TBLite/Diag 0.40E+00    0.0     1.4609E-09       -71.9096083401  1.85E-13
    19 TBLite/Diag 0.40E+00    0.0     3.3985E-10       -71.9096083401 -1.42E-13

  *** SCF run converged in    19 steps ***


  Core Hamiltonian energy:                                    -73.38189495315822
  Repulsive potential energy:                                   1.33725166361080
  Electrostatic energy:                                         0.22087078852536
  Self-consistent dispersion energy:                           -0.10577732212490
  Non-self consistent dispersion energy:                        0.01994148305889
  Correction for halogen bonding:                               0.00000000000000
  Electronic entropic energy:                                  -0.00000000000000
  Fermi energy:                                                -0.25014994413764

  Total energy:                                               -71.90960834008807
  Total energy (extrapolated to T->0):                        -71.90960834008807

 ENERGY| Total FORCE_EVAL ( QS ) energy [hartree]            -71.909608340088070

 OPT| **************************************************************************
 OPT| Step number                                                            201
 OPT| Optimization method                                                   BFGS
 OPT| Total energy [hartree]                                      -71.9096083401
 OPT| Internal pressure [bar]                                    3353.1469429844
 OPT| Effective energy change [hartree]                             0.0000110492
 OPT| Predicted energy change [hartree]                            -0.0009313250
 OPT| Scaling factor                                                0.0000000000
 OPT| Step size                                                     0.0105747283
 OPT| Trust radius                                                  0.4724315332
 OPT| Decrease in energy                                                      NO
 OPT| Used time [s]                                                        1.019
 OPT|
 OPT| Maximum step size                                             0.0105747283
 OPT| Convergence limit for maximum step size                       0.0030000000
 OPT| Maximum step size is converged                                          NO
 OPT|
 OPT| RMS step size                                                 0.0038448585
 OPT| Convergence limit for RMS step size                           0.0015000000
 OPT| RMS step size is converged                                              NO
 OPT|
 OPT| Maximum gradient                                              0.0162881462
 OPT| Convergence limit for maximum gradient                        0.0004500000
 OPT| Maximum gradient is converged                                           NO
 OPT|
 OPT| RMS gradient                                                  0.0052335132
 OPT| Convergence limit for RMS gradient                            0.0003000000
 OPT| RMS gradient is converged                                               NO
 OPT|
 OPT| Pressure deviation [bar]                                   3353.1469429844
 OPT| Pressure tolerance [bar]                                    100.0000000000
 OPT| Pressure is converged                                                   NO
 OPT| **************************************************************************
 OPT| Estimated peak process memory after this step [MiB]                    167

 --------------------------
 OPTIMIZATION STEP:    202
 --------------------------

 CELL| Volume [angstrom^3]:                                           409.476870
 CELL| Vector a [angstrom]:       6.741     0.000     0.000   |a| =     6.740552
 CELL| Vector b [angstrom]:       0.000     7.733     0.000   |b| =     7.732526
 CELL| Vector c [angstrom]:      -0.002    -0.008     7.856   |c| =     7.856204
 CELL| Angle (b,c), alpha [degree]:                                    90.058210
 CELL| Angle (a,c), beta  [degree]:                                    90.015121
 CELL| Angle (a,b), gamma [degree]:                                    89.999881
 CELL| Numerically orthorhombic:                                              NO
 CELL| Periodicity                                                           XYZ

 Extrapolation method: ASPC

 Number of electrons:                                                        128
 Number of occupied orbitals:                                                 64
 Number of molecular orbitals:                                               112

 Number of orbital functions:                                                112
 Number of independent orbital functions:                                    112


 SCF WAVEFUNCTION OPTIMIZATION

  Step     Update method      Time    Convergence         Total energy    Change
  ------------------------------------------------------------------------------
     1 TBLite/Diag 0.40E+00    0.0     0.01536542       -71.9100807062 -7.19E+01
     2 TBLite/Diag 0.40E+00    0.0     0.00762725       -71.9102196368 -1.39E-04
     3 TBLite/Diag 0.40E+00    0.0     0.00290925       -71.9102487393 -2.91E-05
     4 TBLite/Diag 0.40E+00    0.0     0.00093857       -71.9102495516 -8.12E-07
     5 TBLite/Diag 0.40E+00    0.0     0.00048422       -71.9102500242 -4.73E-07
     6 TBLite/Diag 0.40E+00    0.0     0.00026280       -71.9102503674 -3.43E-07
     7 TBLite/Diag 0.40E+00    0.0     0.00005116       -71.9102503746 -7.24E-09
     8 TBLite/Diag 0.40E+00    0.0     0.00002576       -71.9102503759 -1.34E-09
     9 TBLite/Diag 0.40E+00    0.0     0.00000892       -71.9102503763 -3.47E-10
    10 TBLite/Diag 0.40E+00    0.0     0.00000208       -71.9102503763 -2.97E-11
    11 TBLite/Diag 0.40E+00    0.0     0.00000099       -71.9102503763 -9.24E-13
    12 TBLite/Diag 0.40E+00    0.0     0.00000055       -71.9102503763 -7.53E-13
    13 TBLite/Diag 0.40E+00    0.0     0.00000024       -71.9102503763 -1.14E-13
    14 TBLite/Diag 0.40E+00    0.0     0.00000004       -71.9102503763 -8.53E-14
    15 TBLite/Diag 0.40E+00    0.0     0.00000004       -71.9102503763 -4.26E-14
    16 TBLite/Diag 0.40E+00    0.0     0.00000001       -71.9102503763  0.00E+00
    17 TBLite/Diag 0.40E+00    0.0     3.7635E-09       -71.9102503763  5.68E-14
    18 TBLite/Diag 0.40E+00    0.0     2.4046E-09       -71.9102503763  2.84E-14
    19 TBLite/Diag 0.40E+00    0.0     2.0682E-10       -71.9102503763 -1.14E-13

  *** SCF run converged in    19 steps ***


  Core Hamiltonian energy:                                    -73.36557917755373
  Repulsive potential energy:                                   1.31944279877360
  Electrostatic energy:                                         0.22173127771475
  Self-consistent dispersion energy:                           -0.10578804191548
  Non-self consistent dispersion energy:                        0.01994276666277
  Correction for halogen bonding:                               0.00000000000000
  Electronic entropic energy:                                  -0.00000000000000
  Fermi energy:                                                -0.25145287804261

  Total energy:                                               -71.91025037631807
  Total energy (extrapolated to T->0):                        -71.91025037631807

 ENERGY| Total FORCE_EVAL ( QS ) energy [hartree]            -71.910250376318075

 OPT| **************************************************************************
 OPT| Step number                                                            202
 OPT| Optimization method                                                   BFGS
 OPT| Total energy [hartree]                                      -71.9102503763
 OPT| Internal pressure [bar]                                    -857.2290940874
 OPT| Effective energy change [hartree]                            -0.0006420362
 OPT| Predicted energy change [hartree]                            -0.0006661043
 OPT| Scaling factor                                                0.0000000000
 OPT| Step size                                                     0.0065934874
 OPT| Trust radius                                                  0.4724315332
 OPT| Decrease in energy                                                     YES
 OPT| Used time [s]                                                        1.019
 OPT|
 OPT| Maximum step size                                             0.0065934874
 OPT| Convergence limit for maximum step size                       0.0030000000
 OPT| Maximum step size is converged                                          NO
 OPT|
 OPT| RMS step size                                                 0.0020738355
 OPT| Convergence limit for RMS step size                           0.0015000000
 OPT| RMS step size is converged                                              NO
 OPT|
 OPT| Maximum gradient                                              0.0025073694
 OPT| Convergence limit for maximum gradient                        0.0004500000
 OPT| Maximum gradient is converged                                           NO
 OPT|
 OPT| RMS gradient                                                  0.0009298336
 OPT| Convergence limit for RMS gradient                            0.0003000000
 OPT| RMS gradient is converged                                               NO
 OPT|
 OPT| Pressure deviation [bar]                                   -857.2290940874
 OPT| Pressure tolerance [bar]                                    100.0000000000
 OPT| Pressure is converged                                                   NO
 OPT| **************************************************************************
 OPT| Estimated peak process memory after this step [MiB]                    168

 --------------------------
 OPTIMIZATION STEP:    203
 --------------------------

 CELL| Volume [angstrom^3]:                                           409.431857
 CELL| Vector a [angstrom]:       6.740     0.000     0.000   |a| =     6.740094
 CELL| Vector b [angstrom]:       0.000     7.732     0.000   |b| =     7.732039
 CELL| Vector c [angstrom]:      -0.002    -0.008     7.856   |c| =     7.856369
 CELL| Angle (b,c), alpha [degree]:                                    90.058469
 CELL| Angle (a,c), beta  [degree]:                                    90.014757
 CELL| Angle (a,b), gamma [degree]:                                    89.999977
 CELL| Numerically orthorhombic:                                              NO
 CELL| Periodicity                                                           XYZ

 Extrapolation method: ASPC

 Number of electrons:                                                        128
 Number of occupied orbitals:                                                 64
 Number of molecular orbitals:                                               112

 Number of orbital functions:                                                112
 Number of independent orbital functions:                                    112


 SCF WAVEFUNCTION OPTIMIZATION

  Step     Update method      Time    Convergence         Total energy    Change
  ------------------------------------------------------------------------------
     1 TBLite/Diag 0.40E+00    0.0     0.00244965       -71.9103231895 -7.19E+01
     2 TBLite/Diag 0.40E+00    0.0     0.00157452       -71.9103254579 -2.27E-06
     3 TBLite/Diag 0.40E+00    0.0     0.00077251       -71.9103270223 -1.56E-06
     4 TBLite/Diag 0.40E+00    0.0     0.00030300       -71.9103270639 -4.17E-08
     5 TBLite/Diag 0.40E+00    0.0     0.00016189       -71.9103271234 -5.94E-08
     6 TBLite/Diag 0.40E+00    0.0     0.00006513       -71.9103271404 -1.70E-08
     7 TBLite/Diag 0.40E+00    0.0     0.00000863       -71.9103271406 -1.91E-10
     8 TBLite/Diag 0.40E+00    0.0     0.00000427       -71.9103271406 -3.37E-11
     9 TBLite/Diag 0.40E+00    0.0     0.00000184       -71.9103271406 -5.63E-12
    10 TBLite/Diag 0.40E+00    0.0     0.00000061       -71.9103271406 -7.39E-13
    11 TBLite/Diag 0.40E+00    0.0     0.00000023       -71.9103271406 -8.53E-14
    12 TBLite/Diag 0.40E+00    0.0     0.00000013       -71.9103271406 -5.68E-14
    13 TBLite/Diag 0.40E+00    0.0     0.00000004       -71.9103271406  4.26E-14
    14 TBLite/Diag 0.40E+00    0.0     0.00000002       -71.9103271406 -5.68E-14
    15 TBLite/Diag 0.40E+00    0.0     6.9584E-09       -71.9103271406 -7.11E-14
    16 TBLite/Diag 0.40E+00    0.0     9.5159E-10       -71.9103271406 -2.84E-14

  *** SCF run converged in    16 steps ***


  Core Hamiltonian energy:                                    -73.36349923175138
  Repulsive potential energy:                                   1.31746080497280
  Electrostatic energy:                                         0.22156552939677
  Self-consistent dispersion energy:                           -0.10580070844089
  Non-self consistent dispersion energy:                        0.01994646521786
  Correction for halogen bonding:                               0.00000000000000
  Electronic entropic energy:                                  -0.00000000000000
  Fermi energy:                                                -0.25166453548403

  Total energy:                                               -71.91032714060483
  Total energy (extrapolated to T->0):                        -71.91032714060483

 ENERGY| Total FORCE_EVAL ( QS ) energy [hartree]            -71.910327140604835

 OPT| **************************************************************************
 OPT| Step number                                                            203
 OPT| Optimization method                                                   BFGS
 OPT| Total energy [hartree]                                      -71.9103271406
 OPT| Internal pressure [bar]                                   -1470.8386296716
 OPT| Effective energy change [hartree]                            -0.0000767643
 OPT| Predicted energy change [hartree]                            -0.0000507255
 OPT| Scaling factor                                                0.0000000000
 OPT| Step size                                                     0.0024096053
 OPT| Trust radius                                                  0.4724315332
 OPT| Decrease in energy                                                     YES
 OPT| Used time [s]                                                        1.005
 OPT|
 OPT| Maximum step size                                             0.0024096053
 OPT| Convergence limit for maximum step size                       0.0030000000
 OPT| Maximum step size is converged                                         YES
 OPT|
 OPT| RMS step size                                                 0.0008960303
 OPT| Convergence limit for RMS step size                           0.0015000000
 OPT| RMS step size is converged                                             YES
 OPT|
 OPT| Maximum gradient                                              0.0020354514
 OPT| Convergence limit for maximum gradient                        0.0004500000
 OPT| Maximum gradient is converged                                           NO
 OPT|
 OPT| RMS gradient                                                  0.0006747096
 OPT| Convergence limit for RMS gradient                            0.0003000000
 OPT| RMS gradient is converged                                               NO
 OPT|
 OPT| Pressure deviation [bar]                                  -1470.8386296716
 OPT| Pressure tolerance [bar]                                    100.0000000000
 OPT| Pressure is converged                                                   NO
 OPT| **************************************************************************
 OPT| Estimated peak process memory after this step [MiB]                    169

 --------------------------
 OPTIMIZATION STEP:    204
 --------------------------

 CELL| Volume [angstrom^3]:                                           409.163428
 CELL| Vector a [angstrom]:       6.739     0.000     0.000   |a| =     6.739039
 CELL| Vector b [angstrom]:      -0.000     7.729     0.000   |b| =     7.729177
 CELL| Vector c [angstrom]:      -0.002    -0.008     7.855   |c| =     7.855355
 CELL| Angle (b,c), alpha [degree]:                                    90.059117
 CELL| Angle (a,c), beta  [degree]:                                    90.013426
 CELL| Angle (a,b), gamma [degree]:                                    90.000282
 CELL| Numerically orthorhombic:                                              NO
 CELL| Periodicity                                                           XYZ

 Extrapolation method: ASPC

 Number of electrons:                                                        128
 Number of occupied orbitals:                                                 64
 Number of molecular orbitals:                                               112

 Number of orbital functions:                                                112
 Number of independent orbital functions:                                    112


 SCF WAVEFUNCTION OPTIMIZATION

  Step     Update method      Time    Convergence         Total energy    Change
  ------------------------------------------------------------------------------
     1 TBLite/Diag 0.40E+00    0.0     0.00836108       -71.9104681587 -7.19E+01
     2 TBLite/Diag 0.40E+00    0.0     0.00179298       -71.9104713851 -3.23E-06
     3 TBLite/Diag 0.40E+00    0.0     0.00135977       -71.9104719407 -5.56E-07
     4 TBLite/Diag 0.40E+00    0.0     0.00083161       -71.9104733652 -1.42E-06
     5 TBLite/Diag 0.40E+00    0.0     0.00026970       -71.9104735763 -2.11E-07
     6 TBLite/Diag 0.40E+00    0.0     0.00009461       -71.9104736027 -2.64E-08
     7 TBLite/Diag 0.40E+00    0.0     0.00001696       -71.9104736032 -5.62E-10
     8 TBLite/Diag 0.40E+00    0.0     0.00000832       -71.9104736034 -1.20E-10
     9 TBLite/Diag 0.40E+00    0.0     0.00000335       -71.9104736034 -3.62E-11
    10 TBLite/Diag 0.40E+00    0.0     0.00000106       -71.9104736034 -4.29E-12
    11 TBLite/Diag 0.40E+00    0.0     0.00000063       -71.9104736034  1.85E-13
    12 TBLite/Diag 0.40E+00    0.0     0.00000039       -71.9104736034 -4.41E-13
    13 TBLite/Diag 0.40E+00    0.0     0.00000007       -71.9104736034  2.84E-14
    14 TBLite/Diag 0.40E+00    0.0     0.00000005       -71.9104736034 -1.42E-13
    15 TBLite/Diag 0.40E+00    0.0     0.00000003       -71.9104736034 -1.42E-13
    16 TBLite/Diag 0.40E+00    0.0     3.7782E-09       -71.9104736034  2.13E-13
    17 TBLite/Diag 0.40E+00    0.0     1.8370E-09       -71.9104736034  0.00E+00
    18 TBLite/Diag 0.40E+00    0.0     4.4811E-10       -71.9104736034  1.14E-13

  *** SCF run converged in    18 steps ***


  Core Hamiltonian energy:                                    -73.36513885569680
  Repulsive potential energy:                                   1.31940360468327
  Electrostatic energy:                                         0.22116621942146
  Self-consistent dispersion energy:                           -0.10587701198084
  Non-self consistent dispersion energy:                        0.01997244017451
  Correction for halogen bonding:                               0.00000000000000
  Electronic entropic energy:                                  -0.00000000000000
  Fermi energy:                                                -0.25161004283927

  Total energy:                                               -71.91047360339839
  Total energy (extrapolated to T->0):                        -71.91047360339839

 ENERGY| Total FORCE_EVAL ( QS ) energy [hartree]            -71.910473603398387

 OPT| **************************************************************************
 OPT| Step number                                                            204
 OPT| Optimization method                                                   BFGS
 OPT| Total energy [hartree]                                      -71.9104736034
 OPT| Internal pressure [bar]                                    -682.9889327869
 OPT| Effective energy change [hartree]                            -0.0001464628
 OPT| Predicted energy change [hartree]                            -0.0001007920
 OPT| Scaling factor                                                0.0000000000
 OPT| Step size                                                     0.0065740870
 OPT| Trust radius                                                  0.4724315332
 OPT| Decrease in energy                                                     YES
 OPT| Used time [s]                                                        1.017
 OPT|
 OPT| Maximum step size                                             0.0065740870
 OPT| Convergence limit for maximum step size                       0.0030000000
 OPT| Maximum step size is converged                                          NO
 OPT|
 OPT| RMS step size                                                 0.0025609962
 OPT| Convergence limit for RMS step size                           0.0015000000
 OPT| RMS step size is converged                                              NO
 OPT|
 OPT| Maximum gradient                                              0.0021883214
 OPT| Convergence limit for maximum gradient                        0.0004500000
 OPT| Maximum gradient is converged                                           NO
 OPT|
 OPT| RMS gradient                                                  0.0009015573
 OPT| Convergence limit for RMS gradient                            0.0003000000
 OPT| RMS gradient is converged                                               NO
 OPT|
 OPT| Pressure deviation [bar]                                   -682.9889327869
 OPT| Pressure tolerance [bar]                                    100.0000000000
 OPT| Pressure is converged                                                   NO
 OPT| **************************************************************************
 OPT| Estimated peak process memory after this step [MiB]                    169

 --------------------------
 OPTIMIZATION STEP:    205
 --------------------------

 CELL| Volume [angstrom^3]:                                           408.620389
 CELL| Vector a [angstrom]:       6.737     0.000     0.000   |a| =     6.737420
 CELL| Vector b [angstrom]:      -0.000     7.723     0.000   |b| =     7.723019
 CELL| Vector c [angstrom]:      -0.001    -0.008     7.853   |c| =     7.853072
 CELL| Angle (b,c), alpha [degree]:                                    90.058063
 CELL| Angle (a,c), beta  [degree]:                                    90.010278
 CELL| Angle (a,b), gamma [degree]:                                    90.000891
 CELL| Numerically orthorhombic:                                              NO
 CELL| Periodicity                                                           XYZ

 Extrapolation method: ASPC

 Number of electrons:                                                        128
 Number of occupied orbitals:                                                 64
 Number of molecular orbitals:                                               112

 Number of orbital functions:                                                112
 Number of independent orbital functions:                                    112


 SCF WAVEFUNCTION OPTIMIZATION

  Step     Update method      Time    Convergence         Total energy    Change
  ------------------------------------------------------------------------------
     1 TBLite/Diag 0.40E+00    0.0     0.01780733       -71.9106081604 -7.19E+01
     2 TBLite/Diag 0.40E+00    0.0     0.00363742       -71.9106205168 -1.24E-05
     3 TBLite/Diag 0.40E+00    0.0     0.00319575       -71.9106215616 -1.04E-06
     4 TBLite/Diag 0.40E+00    0.0     0.00183137       -71.9106324558 -1.09E-05
     5 TBLite/Diag 0.40E+00    0.0     0.00050716       -71.9106333904 -9.35E-07
     6 TBLite/Diag 0.40E+00    0.0     0.00014004       -71.9106334151 -2.47E-08
     7 TBLite/Diag 0.40E+00    0.0     0.00005532       -71.9106334221 -7.03E-09
     8 TBLite/Diag 0.40E+00    0.0     0.00000730       -71.9106334223 -1.38E-10
     9 TBLite/Diag 0.40E+00    0.0     0.00000712       -71.9106334223 -4.60E-12
    10 TBLite/Diag 0.40E+00    0.0     0.00000336       -71.9106334223 -4.72E-11
    11 TBLite/Diag 0.40E+00    0.0     0.00000092       -71.9106334223 -1.14E-13
    12 TBLite/Diag 0.40E+00    0.0     0.00000060       -71.9106334223 -1.22E-12
    13 TBLite/Diag 0.40E+00    0.0     0.00000011       -71.9106334223 -2.84E-14
    14 TBLite/Diag 0.40E+00    0.0     0.00000007       -71.9106334223 -7.11E-14
    15 TBLite/Diag 0.40E+00    0.0     0.00000003       -71.9106334223  2.84E-14
    16 TBLite/Diag 0.40E+00    0.0     8.5249E-09       -71.9106334223 -9.95E-14
    17 TBLite/Diag 0.40E+00    0.0     3.6606E-09       -71.9106334223  1.42E-13
    18 TBLite/Diag 0.40E+00    0.0     1.3418E-09       -71.9106334223 -1.42E-13
    19 TBLite/Diag 0.40E+00    0.0     2.5270E-10       -71.9106334223  5.68E-14

  *** SCF run converged in    19 steps ***


  Core Hamiltonian energy:                                    -73.36788219952271
  Repulsive potential energy:                                   1.32252662620744
  Electrostatic energy:                                         0.22072697513759
  Self-consistent dispersion energy:                           -0.10603225244940
  Non-self consistent dispersion energy:                        0.02002742829441
  Correction for halogen bonding:                               0.00000000000000
  Electronic entropic energy:                                  -0.00000000000000
  Fermi energy:                                                -0.25141613612190

  Total energy:                                               -71.91063342233269
  Total energy (extrapolated to T->0):                        -71.91063342233269

 ENERGY| Total FORCE_EVAL ( QS ) energy [hartree]            -71.910633422332694

 OPT| **************************************************************************
 OPT| Step number                                                            205
 OPT| Optimization method                                                   BFGS
 OPT| Total energy [hartree]                                      -71.9106334223
 OPT| Internal pressure [bar]                                     891.3974164214
 OPT| Effective energy change [hartree]                            -0.0001598189
 OPT| Predicted energy change [hartree]                            -0.0001667007
 OPT| Scaling factor                                                0.0000000000
 OPT| Step size                                                     0.0132210999
 OPT| Trust radius                                                  0.4724315332
 OPT| Decrease in energy                                                     YES
 OPT| Used time [s]                                                        1.023
 OPT|
 OPT| Maximum step size                                             0.0132210999
 OPT| Convergence limit for maximum step size                       0.0030000000
 OPT| Maximum step size is converged                                          NO
 OPT|
 OPT| RMS step size                                                 0.0054707186
 OPT| Convergence limit for RMS step size                           0.0015000000
 OPT| RMS step size is converged                                              NO
 OPT|
 OPT| Maximum gradient                                              0.0052067382
 OPT| Convergence limit for maximum gradient                        0.0004500000
 OPT| Maximum gradient is converged                                           NO
 OPT|
 OPT| RMS gradient                                                  0.0017620167
 OPT| Convergence limit for RMS gradient                            0.0003000000
 OPT| RMS gradient is converged                                               NO
 OPT|
 OPT| Pressure deviation [bar]                                    891.3974164214
 OPT| Pressure tolerance [bar]                                    100.0000000000
 OPT| Pressure is converged                                                   NO
 OPT| **************************************************************************
 OPT| Estimated peak process memory after this step [MiB]                    169

 --------------------------
 OPTIMIZATION STEP:    206
 --------------------------

 CELL| Volume [angstrom^3]:                                           408.310546
 CELL| Vector a [angstrom]:       6.737     0.000     0.000   |a| =     6.736817
 CELL| Vector b [angstrom]:      -0.000     7.719     0.000   |b| =     7.718901
 CELL| Vector c [angstrom]:      -0.001    -0.008     7.852   |c| =     7.852005
 CELL| Angle (b,c), alpha [degree]:                                    90.055242
 CELL| Angle (a,c), beta  [degree]:                                    90.007596
 CELL| Angle (a,b), gamma [degree]:                                    90.001386
 CELL| Numerically orthorhombic:                                              NO
 CELL| Periodicity                                                           XYZ

 Extrapolation method: ASPC

 Number of electrons:                                                        128
 Number of occupied orbitals:                                                 64
 Number of molecular orbitals:                                               112

 Number of orbital functions:                                                112
 Number of independent orbital functions:                                    112


 SCF WAVEFUNCTION OPTIMIZATION

  Step     Update method      Time    Convergence         Total energy    Change
  ------------------------------------------------------------------------------
     1 TBLite/Diag 0.40E+00    0.0     0.01405968       -71.9107865714 -7.19E+01
     2 TBLite/Diag 0.40E+00    0.0     0.00324304       -71.9107968029 -1.02E-05
     3 TBLite/Diag 0.40E+00    0.0     0.00236883       -71.9108002181 -3.42E-06
     4 TBLite/Diag 0.40E+00    0.0     0.00122313       -71.9108053541 -5.14E-06
     5 TBLite/Diag 0.40E+00    0.0     0.00032351       -71.9108061031 -7.49E-07
     6 TBLite/Diag 0.40E+00    0.0     0.00008796       -71.9108061144 -1.13E-08
     7 TBLite/Diag 0.40E+00    0.0     0.00003303       -71.9108061192 -4.71E-09
     8 TBLite/Diag 0.40E+00    0.0     0.00000876       -71.9108061192 -8.30E-11
     9 TBLite/Diag 0.40E+00    0.0     0.00000523       -71.9108061193 -3.54E-11
    10 TBLite/Diag 0.40E+00    0.0     0.00000207       -71.9108061193 -1.86E-11
    11 TBLite/Diag 0.40E+00    0.0     0.00000077       -71.9108061193  7.67E-13
    12 TBLite/Diag 0.40E+00    0.0     0.00000053       -71.9108061193 -1.55E-12
    13 TBLite/Diag 0.40E+00    0.0     0.00000010       -71.9108061193  8.53E-14
    14 TBLite/Diag 0.40E+00    0.0     0.00000006       -71.9108061193 -2.84E-14
    15 TBLite/Diag 0.40E+00    0.0     0.00000003       -71.9108061193  2.84E-14
    16 TBLite/Diag 0.40E+00    0.0     3.7744E-09       -71.9108061193  1.42E-14
    17 TBLite/Diag 0.40E+00    0.0     3.5535E-09       -71.9108061193  4.26E-14
    18 TBLite/Diag 0.40E+00    0.0     1.4419E-09       -71.9108061193 -5.68E-14
    19 TBLite/Diag 0.40E+00    0.0     3.8465E-10       -71.9108061193  2.84E-14

  *** SCF run converged in    19 steps ***


  Core Hamiltonian energy:                                    -73.37032595377983
  Repulsive potential energy:                                   1.32504194953225
  Electrostatic energy:                                         0.22053738397594
  Self-consistent dispersion energy:                           -0.10612025994891
  Non-self consistent dispersion energy:                        0.02006076093244
  Correction for halogen bonding:                               0.00000000000000
  Electronic entropic energy:                                  -0.00000000000000
  Fermi energy:                                                -0.25110458147680

  Total energy:                                               -71.91080611928811
  Total energy (extrapolated to T->0):                        -71.91080611928811

 ENERGY| Total FORCE_EVAL ( QS ) energy [hartree]            -71.910806119288111

 OPT| **************************************************************************
 OPT| Step number                                                            206
 OPT| Optimization method                                                   BFGS
 OPT| Total energy [hartree]                                      -71.9108061193
 OPT| Internal pressure [bar]                                    1885.0853363012
 OPT| Effective energy change [hartree]                            -0.0001726970
 OPT| Predicted energy change [hartree]                            -0.0001352571
 OPT| Scaling factor                                                0.0000000000
 OPT| Step size                                                     0.0115832644
 OPT| Trust radius                                                  0.4724315332
 OPT| Decrease in energy                                                     YES
 OPT| Used time [s]                                                        1.030
 OPT|
 OPT| Maximum step size                                             0.0115832644
 OPT| Convergence limit for maximum step size                       0.0030000000
 OPT| Maximum step size is converged                                          NO
 OPT|
 OPT| RMS step size                                                 0.0042117039
 OPT| Convergence limit for RMS step size                           0.0015000000
 OPT| RMS step size is converged                                              NO
 OPT|
 OPT| Maximum gradient                                              0.0030437195
 OPT| Convergence limit for maximum gradient                        0.0004500000
 OPT| Maximum gradient is converged                                           NO
 OPT|
 OPT| RMS gradient                                                  0.0011439862
 OPT| Convergence limit for RMS gradient                            0.0003000000
 OPT| RMS gradient is converged                                               NO
 OPT|
 OPT| Pressure deviation [bar]                                   1885.0853363012
 OPT| Pressure tolerance [bar]                                    100.0000000000
 OPT| Pressure is converged                                                   NO
 OPT| **************************************************************************
 OPT| Estimated peak process memory after this step [MiB]                    169

 --------------------------
 OPTIMIZATION STEP:    207
 --------------------------

 CELL| Volume [angstrom^3]:                                           408.185548
 CELL| Vector a [angstrom]:       6.737     0.000     0.000   |a| =     6.736914
 CELL| Vector b [angstrom]:      -0.000     7.716     0.000   |b| =     7.716240
 CELL| Vector c [angstrom]:      -0.001    -0.007     7.852   |c| =     7.852194
 CELL| Angle (b,c), alpha [degree]:                                    90.048526
 CELL| Angle (a,c), beta  [degree]:                                    90.004924
 CELL| Angle (a,b), gamma [degree]:                                    90.001806
 CELL| Numerically orthorhombic:                                              NO
 CELL| Periodicity                                                           XYZ

 Extrapolation method: ASPC

 Number of electrons:                                                        128
 Number of occupied orbitals:                                                 64
 Number of molecular orbitals:                                               112

 Number of orbital functions:                                                112
 Number of independent orbital functions:                                    112


 SCF WAVEFUNCTION OPTIMIZATION

  Step     Update method      Time    Convergence         Total energy    Change
  ------------------------------------------------------------------------------
     1 TBLite/Diag 0.40E+00    0.0     0.00948781       -71.9109583685 -7.19E+01
     2 TBLite/Diag 0.40E+00    0.0     0.00178561       -71.9109618001 -3.43E-06
     3 TBLite/Diag 0.40E+00    0.0     0.00157434       -71.9109605745  1.23E-06
     4 TBLite/Diag 0.40E+00    0.0     0.00113518       -71.9109634489 -2.87E-06
     5 TBLite/Diag 0.40E+00    0.0     0.00022134       -71.9109635573 -1.08E-07
     6 TBLite/Diag 0.40E+00    0.0     0.00009996       -71.9109635771 -1.98E-08
     7 TBLite/Diag 0.40E+00    0.0     0.00002283       -71.9109635802 -3.13E-09
     8 TBLite/Diag 0.40E+00    0.0     0.00000901       -71.9109635803 -2.85E-11
     9 TBLite/Diag 0.40E+00    0.0     0.00000524       -71.9109635803 -7.38E-11
    10 TBLite/Diag 0.40E+00    0.0     0.00000079       -71.9109635803 -1.71E-12
    11 TBLite/Diag 0.40E+00    0.0     0.00000046       -71.9109635803  3.55E-13
    12 TBLite/Diag 0.40E+00    0.0     0.00000035       -71.9109635803 -4.69E-13
    13 TBLite/Diag 0.40E+00    0.0     0.00000007       -71.9109635803 -8.53E-14
    14 TBLite/Diag 0.40E+00    0.0     0.00000004       -71.9109635803  0.00E+00
    15 TBLite/Diag 0.40E+00    0.0     0.00000002       -71.9109635803  5.68E-14
    16 TBLite/Diag 0.40E+00    0.0     4.1814E-09       -71.9109635803  1.28E-13
    17 TBLite/Diag 0.40E+00    0.0     2.8133E-09       -71.9109635803 -1.28E-13
    18 TBLite/Diag 0.40E+00    0.0     1.1993E-09       -71.9109635803 -1.42E-14
    19 TBLite/Diag 0.40E+00    0.0     2.3778E-10       -71.9109635803  2.84E-14

  *** SCF run converged in    19 steps ***


  Core Hamiltonian energy:                                    -73.36950117249953
  Repulsive potential energy:                                   1.32394675215101
  Electrostatic energy:                                         0.22067356984153
  Self-consistent dispersion energy:                           -0.10615528997670
  Non-self consistent dispersion energy:                        0.02007256013727
  Correction for halogen bonding:                               0.00000000000000
  Electronic entropic energy:                                  -0.00000000000000
  Fermi energy:                                                -0.25094508864617

  Total energy:                                               -71.91096358034640
  Total energy (extrapolated to T->0):                        -71.91096358034640

 ENERGY| Total FORCE_EVAL ( QS ) energy [hartree]            -71.910963580346404

 OPT| **************************************************************************
 OPT| Step number                                                            207
 OPT| Optimization method                                                   BFGS
 OPT| Total energy [hartree]                                      -71.9109635803
 OPT| Internal pressure [bar]                                    1564.0727506132
 OPT| Effective energy change [hartree]                            -0.0001574611
 OPT| Predicted energy change [hartree]                            -0.0001100479
 OPT| Scaling factor                                                0.0000000000
 OPT| Step size                                                     0.0118370578
 OPT| Trust radius                                                  0.4724315332
 OPT| Decrease in energy                                                     YES
 OPT| Used time [s]                                                        1.024
 OPT|
 OPT| Maximum step size                                             0.0118370578
 OPT| Convergence limit for maximum step size                       0.0030000000
 OPT| Maximum step size is converged                                          NO
 OPT|
 OPT| RMS step size                                                 0.0038604320
 OPT| Convergence limit for RMS step size                           0.0015000000
 OPT| RMS step size is converged                                              NO
 OPT|
 OPT| Maximum gradient                                              0.0028900131
 OPT| Convergence limit for maximum gradient                        0.0004500000
 OPT| Maximum gradient is converged                                           NO
 OPT|
 OPT| RMS gradient                                                  0.0008909729
 OPT| Convergence limit for RMS gradient                            0.0003000000
 OPT| RMS gradient is converged                                               NO
 OPT|
 OPT| Pressure deviation [bar]                                   1564.0727506132
 OPT| Pressure tolerance [bar]                                    100.0000000000
 OPT| Pressure is converged                                                   NO
 OPT| **************************************************************************
 OPT| Estimated peak process memory after this step [MiB]                    169

 --------------------------
 OPTIMIZATION STEP:    208
 --------------------------

 CELL| Volume [angstrom^3]:                                           408.144789
 CELL| Vector a [angstrom]:       6.737     0.000     0.000   |a| =     6.737044
 CELL| Vector b [angstrom]:      -0.000     7.714     0.000   |b| =     7.714147
 CELL| Vector c [angstrom]:      -0.000    -0.005     7.853   |c| =     7.853388
 CELL| Angle (b,c), alpha [degree]:                                    90.039250
 CELL| Angle (a,c), beta  [degree]:                                    90.002004
 CELL| Angle (a,b), gamma [degree]:                                    90.002256
 CELL| Numerically orthorhombic:                                              NO
 CELL| Periodicity                                                           XYZ

 Extrapolation method: ASPC

 Number of electrons:                                                        128
 Number of occupied orbitals:                                                 64
 Number of molecular orbitals:                                               112

 Number of orbital functions:                                                112
 Number of independent orbital functions:                                    112


 SCF WAVEFUNCTION OPTIMIZATION

  Step     Update method      Time    Convergence         Total energy    Change
  ------------------------------------------------------------------------------
     1 TBLite/Diag 0.40E+00    0.0     0.00951603       -71.9110131522 -7.19E+01
     2 TBLite/Diag 0.40E+00    0.0     0.00441952       -71.9110258856 -1.27E-05
     3 TBLite/Diag 0.40E+00    0.0     0.00281450       -71.9110309726 -5.09E-06
     4 TBLite/Diag 0.40E+00    0.0     0.00148378       -71.9110338451 -2.87E-06
     5 TBLite/Diag 0.40E+00    0.0     0.00052137       -71.9110347111 -8.66E-07
     6 TBLite/Diag 0.40E+00    0.0     0.00016310       -71.9110348104 -9.93E-08
     7 TBLite/Diag 0.40E+00    0.0     0.00002649       -71.9110348109 -4.68E-10
     8 TBLite/Diag 0.40E+00    0.0     0.00001849       -71.9110348116 -6.99E-10
     9 TBLite/Diag 0.40E+00    0.0     0.00000567       -71.9110348116 -6.77E-11
    10 TBLite/Diag 0.40E+00    0.0     0.00000153       -71.9110348116 -6.18E-12
    11 TBLite/Diag 0.40E+00    0.0     0.00000101       -71.9110348116 -4.26E-13
    12 TBLite/Diag 0.40E+00    0.0     0.00000050       -71.9110348116 -8.38E-13
    13 TBLite/Diag 0.40E+00    0.0     0.00000012       -71.9110348116  1.14E-13
    14 TBLite/Diag 0.40E+00    0.0     0.00000008       -71.9110348116 -2.27E-13
    15 TBLite/Diag 0.40E+00    0.0     0.00000003       -71.9110348116  1.14E-13
    16 TBLite/Diag 0.40E+00    0.0     4.9174E-09       -71.9110348116  0.00E+00
    17 TBLite/Diag 0.40E+00    0.0     3.7685E-09       -71.9110348116  0.00E+00
    18 TBLite/Diag 0.40E+00    0.0     1.4043E-09       -71.9110348116 -4.26E-14
    19 TBLite/Diag 0.40E+00    0.0     2.2864E-10       -71.9110348116 -1.14E-13

  *** SCF run converged in    19 steps ***


  Core Hamiltonian energy:                                    -73.36437368642046
  Repulsive potential energy:                                   1.31841671877050
  Electrostatic energy:                                         0.22101340298684
  Self-consistent dispersion energy:                           -0.10616609783441
  Non-self consistent dispersion energy:                        0.02007485087202
  Correction for halogen bonding:                               0.00000000000000
  Electronic entropic energy:                                  -0.00000000000000
  Fermi energy:                                                -0.25111945200949

  Total energy:                                               -71.91103481162550
  Total energy (extrapolated to T->0):                        -71.91103481162550

 ENERGY| Total FORCE_EVAL ( QS ) energy [hartree]            -71.911034811625498

 OPT| **************************************************************************
 OPT| Step number                                                            208
 OPT| Optimization method                                                   BFGS
 OPT| Total energy [hartree]                                      -71.9110348116
 OPT| Internal pressure [bar]                                    -172.5711272452
 OPT| Effective energy change [hartree]                            -0.0000712313
 OPT| Predicted energy change [hartree]                            -0.0000962232
 OPT| Scaling factor                                                0.0000000000
 OPT| Step size                                                     0.0137341759
 OPT| Trust radius                                                  0.4724315332
 OPT| Decrease in energy                                                     YES
 OPT| Used time [s]                                                        1.025
 OPT|
 OPT| Maximum step size                                             0.0137341759
 OPT| Convergence limit for maximum step size                       0.0030000000
 OPT| Maximum step size is converged                                          NO
 OPT|
 OPT| RMS step size                                                 0.0042614263
 OPT| Convergence limit for RMS step size                           0.0015000000
 OPT| RMS step size is converged                                              NO
 OPT|
 OPT| Maximum gradient                                              0.0058630940
 OPT| Convergence limit for maximum gradient                        0.0004500000
 OPT| Maximum gradient is converged                                           NO
 OPT|
 OPT| RMS gradient                                                  0.0011859289
 OPT| Convergence limit for RMS gradient                            0.0003000000
 OPT| RMS gradient is converged                                               NO
 OPT|
 OPT| Pressure deviation [bar]                                   -172.5711272452
 OPT| Pressure tolerance [bar]                                    100.0000000000
 OPT| Pressure is converged                                                   NO
 OPT| **************************************************************************
 OPT| Estimated peak process memory after this step [MiB]                    169

 --------------------------
 OPTIMIZATION STEP:    209
 --------------------------

 CELL| Volume [angstrom^3]:                                           408.158533
 CELL| Vector a [angstrom]:       6.737     0.000     0.000   |a| =     6.736841
 CELL| Vector b [angstrom]:      -0.000     7.714     0.000   |b| =     7.713952
 CELL| Vector c [angstrom]:      -0.000    -0.005     7.854   |c| =     7.854088
 CELL| Angle (b,c), alpha [degree]:                                    90.035232
 CELL| Angle (a,c), beta  [degree]:                                    90.001420
 CELL| Angle (a,b), gamma [degree]:                                    90.002325
 CELL| Numerically orthorhombic:                                              NO
 CELL| Periodicity                                                           XYZ

 Extrapolation method: ASPC

 Number of electrons:                                                        128
 Number of occupied orbitals:                                                 64
 Number of molecular orbitals:                                               112

 Number of orbital functions:                                                112
 Number of independent orbital functions:                                    112


 SCF WAVEFUNCTION OPTIMIZATION

  Step     Update method      Time    Convergence         Total energy    Change
  ------------------------------------------------------------------------------
     1 TBLite/Diag 0.40E+00    0.0     0.00621726       -71.9110659396 -7.19E+01
     2 TBLite/Diag 0.40E+00    0.0     0.00314437       -71.9110749517 -9.01E-06
     3 TBLite/Diag 0.40E+00    0.0     0.00141883       -71.9110794957 -4.54E-06
     4 TBLite/Diag 0.40E+00    0.0     0.00040295       -71.9110795257 -3.00E-08
     5 TBLite/Diag 0.40E+00    0.0     0.00022340       -71.9110797421 -2.16E-07
     6 TBLite/Diag 0.40E+00    0.0     0.00008825       -71.9110797694 -2.73E-08
     7 TBLite/Diag 0.40E+00    0.0     0.00001686       -71.9110797705 -1.07E-09
     8 TBLite/Diag 0.40E+00    0.0     0.00000689       -71.9110797705 -5.55E-11
     9 TBLite/Diag 0.40E+00    0.0     0.00000448       -71.9110797706 -1.72E-11
    10 TBLite/Diag 0.40E+00    0.0     0.00000189       -71.9110797706 -1.22E-11
    11 TBLite/Diag 0.40E+00    0.0     0.00000063       -71.9110797706 -1.42E-13
    12 TBLite/Diag 0.40E+00    0.0     0.00000038       -71.9110797706 -4.55E-13
    13 TBLite/Diag 0.40E+00    0.0     0.00000009       -71.9110797706 -1.14E-13
    14 TBLite/Diag 0.40E+00    0.0     0.00000005       -71.9110797706  1.14E-13
    15 TBLite/Diag 0.40E+00    0.0     0.00000002       -71.9110797706  7.11E-14
    16 TBLite/Diag 0.40E+00    0.0     4.9284E-09       -71.9110797706 -8.53E-14
    17 TBLite/Diag 0.40E+00    0.0     3.9632E-09       -71.9110797706 -1.56E-13
    18 TBLite/Diag 0.40E+00    0.0     6.0769E-10       -71.9110797706  1.28E-13

  *** SCF run converged in    18 steps ***


  Core Hamiltonian energy:                                    -73.36331882985145
  Repulsive potential energy:                                   1.31728992865941
  Electrostatic energy:                                         0.22103675626439
  Self-consistent dispersion energy:                           -0.10616161819066
  Non-self consistent dispersion energy:                        0.02007399254720
  Correction for halogen bonding:                               0.00000000000000
  Electronic entropic energy:                                  -0.00000000000000
  Fermi energy:                                                -0.25113936261713

  Total energy:                                               -71.91107977057111
  Total energy (extrapolated to T->0):                        -71.91107977057111

 ENERGY| Total FORCE_EVAL ( QS ) energy [hartree]            -71.911079770571106

 OPT| **************************************************************************
 OPT| Step number                                                            209
 OPT| Optimization method                                                   BFGS
 OPT| Total energy [hartree]                                      -71.9110797706
 OPT| Internal pressure [bar]                                    -658.6614613153
 OPT| Effective energy change [hartree]                            -0.0000449589
 OPT| Predicted energy change [hartree]                            -0.0000516218
 OPT| Scaling factor                                                0.0000000000
 OPT| Step size                                                     0.0035330464
 OPT| Trust radius                                                  0.4724315332
 OPT| Decrease in energy                                                     YES
 OPT| Used time [s]                                                        1.019
 OPT|
 OPT| Maximum step size                                             0.0035330464
 OPT| Convergence limit for maximum step size                       0.0030000000
 OPT| Maximum step size is converged                                          NO
 OPT|
 OPT| RMS step size                                                 0.0012183237
 OPT| Convergence limit for RMS step size                           0.0015000000
 OPT| RMS step size is converged                                             YES
 OPT|
 OPT| Maximum gradient                                              0.0025439400
 OPT| Convergence limit for maximum gradient                        0.0004500000
 OPT| Maximum gradient is converged                                           NO
 OPT|
 OPT| RMS gradient                                                  0.0006786831
 OPT| Convergence limit for RMS gradient                            0.0003000000
 OPT| RMS gradient is converged                                               NO
 OPT|
 OPT| Pressure deviation [bar]                                   -658.6614613153
 OPT| Pressure tolerance [bar]                                    100.0000000000
 OPT| Pressure is converged                                                   NO
 OPT| **************************************************************************
 OPT| Estimated peak process memory after this step [MiB]                    169

 --------------------------
 OPTIMIZATION STEP:    210
 --------------------------

 CELL| Volume [angstrom^3]:                                           408.149209
 CELL| Vector a [angstrom]:       6.736     0.000     0.000   |a| =     6.736424
 CELL| Vector b [angstrom]:      -0.000     7.714     0.000   |b| =     7.714177
 CELL| Vector c [angstrom]:      -0.000    -0.005     7.854   |c| =     7.854165
 CELL| Angle (b,c), alpha [degree]:                                    90.035628
 CELL| Angle (a,c), beta  [degree]:                                    90.001863
 CELL| Angle (a,b), gamma [degree]:                                    90.002244
 CELL| Numerically orthorhombic:                                              NO
 CELL| Periodicity                                                           XYZ

 Extrapolation method: ASPC

 Number of electrons:                                                        128
 Number of occupied orbitals:                                                 64
 Number of molecular orbitals:                                               112

 Number of orbital functions:                                                112
 Number of independent orbital functions:                                    112


 SCF WAVEFUNCTION OPTIMIZATION

  Step     Update method      Time    Convergence         Total energy    Change
  ------------------------------------------------------------------------------
     1 TBLite/Diag 0.40E+00    0.0     0.00305131       -71.9111103750 -7.19E+01
     2 TBLite/Diag 0.40E+00    0.0     0.00052304       -71.9111106676 -2.93E-07
     3 TBLite/Diag 0.40E+00    0.0     0.00043603       -71.9111106375  3.01E-08
     4 TBLite/Diag 0.40E+00    0.0     0.00027373       -71.9111108769 -2.39E-07
     5 TBLite/Diag 0.40E+00    0.0     0.00008122       -71.9111109042 -2.73E-08
     6 TBLite/Diag 0.40E+00    0.0     0.00002362       -71.9111109064 -2.14E-09
     7 TBLite/Diag 0.40E+00    0.0     0.00000329       -71.9111109064 -3.05E-11
     8 TBLite/Diag 0.40E+00    0.0     0.00000235       -71.9111109064 -1.21E-11
     9 TBLite/Diag 0.40E+00    0.0     0.00000115       -71.9111109064 -3.27E-12
    10 TBLite/Diag 0.40E+00    0.0     0.00000020       -71.9111109064 -1.99E-13
    11 TBLite/Diag 0.40E+00    0.0     0.00000015       -71.9111109064  1.14E-13
    12 TBLite/Diag 0.40E+00    0.0     0.00000009       -71.9111109064 -8.53E-14
    13 TBLite/Diag 0.40E+00    0.0     0.00000002       -71.9111109064  5.68E-14
    14 TBLite/Diag 0.40E+00    0.0     9.4778E-09       -71.9111109064 -8.53E-14
    15 TBLite/Diag 0.40E+00    0.0     6.7886E-09       -71.9111109064  9.95E-14
    16 TBLite/Diag 0.40E+00    0.0     1.4551E-09       -71.9111109064  0.00E+00
    17 TBLite/Diag 0.40E+00    0.0     7.7949E-10       -71.9111109064 -9.95E-14

  *** SCF run converged in    17 steps ***


  Core Hamiltonian energy:                                    -73.36361498660018
  Repulsive potential energy:                                   1.31761107161268
  Electrostatic energy:                                         0.22098287515323
  Self-consistent dispersion energy:                           -0.10616449217718
  Non-self consistent dispersion energy:                        0.02007462559513
  Correction for halogen bonding:                               0.00000000000000
  Electronic entropic energy:                                  -0.00000000000000
  Fermi energy:                                                -0.25118314829880

  Total energy:                                               -71.91111090641634
  Total energy (extrapolated to T->0):                        -71.91111090641634

 ENERGY| Total FORCE_EVAL ( QS ) energy [hartree]            -71.911110906416340

 OPT| **************************************************************************
 OPT| Step number                                                            210
 OPT| Optimization method                                                   BFGS
 OPT| Total energy [hartree]                                      -71.9111109064
 OPT| Internal pressure [bar]                                    -540.6127250375
 OPT| Effective energy change [hartree]                            -0.0000311358
 OPT| Predicted energy change [hartree]                            -0.0000183192
 OPT| Scaling factor                                                0.0000000000
 OPT| Step size                                                     0.0018731962
 OPT| Trust radius                                                  0.4724315332
 OPT| Decrease in energy                                                     YES
 OPT| Used time [s]                                                        1.014
 OPT|
 OPT| Maximum step size                                             0.0018731962
 OPT| Convergence limit for maximum step size                       0.0030000000
 OPT| Maximum step size is converged                                         YES
 OPT|
 OPT| RMS step size                                                 0.0007115884
 OPT| Convergence limit for RMS step size                           0.0015000000
 OPT| RMS step size is converged                                             YES
 OPT|
 OPT| Maximum gradient                                              0.0018313762
 OPT| Convergence limit for maximum gradient                        0.0004500000
 OPT| Maximum gradient is converged                                           NO
 OPT|
 OPT| RMS gradient                                                  0.0004702901
 OPT| Convergence limit for RMS gradient                            0.0003000000
 OPT| RMS gradient is converged                                               NO
 OPT|
 OPT| Pressure deviation [bar]                                   -540.6127250375
 OPT| Pressure tolerance [bar]                                    100.0000000000
 OPT| Pressure is converged                                                   NO
 OPT| **************************************************************************
 OPT| Estimated peak process memory after this step [MiB]                    169

 --------------------------
 OPTIMIZATION STEP:    211
 --------------------------

 CELL| Volume [angstrom^3]:                                           407.994054
 CELL| Vector a [angstrom]:       6.734     0.000     0.000   |a| =     6.734448
 CELL| Vector b [angstrom]:      -0.000     7.713     0.000   |b| =     7.713040
 CELL| Vector c [angstrom]:      -0.000    -0.004     7.855   |c| =     7.854640
 CELL| Angle (b,c), alpha [degree]:                                    90.031894
 CELL| Angle (a,c), beta  [degree]:                                    90.001920
 CELL| Angle (a,b), gamma [degree]:                                    90.002201
 CELL| Numerically orthorhombic:                                              NO
 CELL| Periodicity                                                           XYZ

 Extrapolation method: ASPC

 Number of electrons:                                                        128
 Number of occupied orbitals:                                                 64
 Number of molecular orbitals:                                               112

 Number of orbital functions:                                                112
 Number of independent orbital functions:                                    112


 SCF WAVEFUNCTION OPTIMIZATION

  Step     Update method      Time    Convergence         Total energy    Change
  ------------------------------------------------------------------------------
     1 TBLite/Diag 0.40E+00    0.0     0.01093958       -71.9111819606 -7.19E+01
     2 TBLite/Diag 0.40E+00    0.0     0.00128324       -71.9111838431 -1.88E-06
     3 TBLite/Diag 0.40E+00    0.0     0.00116858       -71.9111827938  1.05E-06
     4 TBLite/Diag 0.40E+00    0.0     0.00079707       -71.9111845294 -1.74E-06
     5 TBLite/Diag 0.40E+00    0.0     0.00017882       -71.9111846765 -1.47E-07
     6 TBLite/Diag 0.40E+00    0.0     0.00007451       -71.9111846881 -1.16E-08
     7 TBLite/Diag 0.40E+00    0.0     0.00001581       -71.9111846889 -8.26E-10
     8 TBLite/Diag 0.40E+00    0.0     0.00000726       -71.9111846890 -7.47E-11
     9 TBLite/Diag 0.40E+00    0.0     0.00000337       -71.9111846890 -2.80E-11
    10 TBLite/Diag 0.40E+00    0.0     0.00000077       -71.9111846890 -3.07E-12
    11 TBLite/Diag 0.40E+00    0.0     0.00000035       -71.9111846890  1.71E-13
    12 TBLite/Diag 0.40E+00    0.0     0.00000032       -71.9111846890 -5.26E-13
[...]
 CELL| Angle (a,c), beta  [degree]:                                    90.000414
 CELL| Angle (a,b), gamma [degree]:                                    89.999433
 CELL| Numerically orthorhombic:                                              NO
 CELL| Periodicity                                                           XYZ

 Extrapolation method: ASPC

 Number of electrons:                                                        128
 Number of occupied orbitals:                                                 64
 Number of molecular orbitals:                                               112

 Number of orbital functions:                                                112
 Number of independent orbital functions:                                    112


 SCF WAVEFUNCTION OPTIMIZATION

  Step     Update method      Time    Convergence         Total energy    Change
  ------------------------------------------------------------------------------
     1 TBLite/Diag 0.40E+00    0.0     0.00060684       -71.9117457987 -7.19E+01
     2 TBLite/Diag 0.40E+00    0.0     0.00014936       -71.9117458216 -2.29E-08
     3 TBLite/Diag 0.40E+00    0.0     0.00008877       -71.9117458267 -5.13E-09
     4 TBLite/Diag 0.40E+00    0.0     0.00005355       -71.9117458296 -2.82E-09
     5 TBLite/Diag 0.40E+00    0.0     0.00001936       -71.9117458304 -8.00E-10
     6 TBLite/Diag 0.40E+00    0.0     0.00000716       -71.9117458305 -1.03E-10
     7 TBLite/Diag 0.40E+00    0.0     0.00000162       -71.9117458305 -6.07E-12
     8 TBLite/Diag 0.40E+00    0.0     0.00000102       -71.9117458305 -1.82E-12
     9 TBLite/Diag 0.40E+00    0.0     0.00000031       -71.9117458305 -3.84E-13
    10 TBLite/Diag 0.40E+00    0.0     0.00000006       -71.9117458305 -4.26E-14
    11 TBLite/Diag 0.40E+00    0.0     0.00000006       -71.9117458305  1.42E-14
    12 TBLite/Diag 0.40E+00    0.0     0.00000003       -71.9117458305 -2.84E-14
    13 TBLite/Diag 0.40E+00    0.0     7.7713E-09       -71.9117458305  1.42E-14
    14 TBLite/Diag 0.40E+00    0.0     5.1095E-09       -71.9117458305 -7.11E-14
    15 TBLite/Diag 0.40E+00    0.0     1.4579E-09       -71.9117458305  2.84E-14
    16 TBLite/Diag 0.40E+00    0.0     3.4145E-10       -71.9117458305  1.42E-14

  *** SCF run converged in    16 steps ***


  Core Hamiltonian energy:                                    -73.36633931624962
  Repulsive potential energy:                                   1.31894277046398
  Electrostatic energy:                                         0.22146500507071
  Self-consistent dispersion energy:                           -0.10575789773957
  Non-self consistent dispersion energy:                        0.01994360798105
  Correction for halogen bonding:                               0.00000000000000
  Electronic entropic energy:                                  -0.00000000000000
  Fermi energy:                                                -0.25078094125642

  Total energy:                                               -71.91174583047346
  Total energy (extrapolated to T->0):                        -71.91174583047346

 ENERGY| Total FORCE_EVAL ( QS ) energy [hartree]            -71.911745830473464

 OPT| **************************************************************************
 OPT| Step number                                                            244
 OPT| Optimization method                                                   BFGS
 OPT| Total energy [hartree]                                      -71.9117458305
 OPT| Internal pressure [bar]                                      28.9936193863
 OPT| Effective energy change [hartree]                            -0.0000013238
 OPT| Predicted energy change [hartree]                            -0.0000006791
 OPT| Scaling factor                                                0.0000000000
 OPT| Step size                                                     0.0012838474
 OPT| Trust radius                                                  0.4724315332
 OPT| Decrease in energy                                                     YES
 OPT| Used time [s]                                                        1.009
 OPT|
 OPT| Maximum step size                                             0.0012838474
 OPT| Convergence limit for maximum step size                       0.0030000000
 OPT| Maximum step size is converged                                         YES
 OPT|
 OPT| RMS step size                                                 0.0002359958
 OPT| Convergence limit for RMS step size                           0.0015000000
 OPT| RMS step size is converged                                             YES
 OPT|
 OPT| Maximum gradient                                              0.0002525488
 OPT| Convergence limit for maximum gradient                        0.0004500000
 OPT| Maximum gradient is converged                                          YES
 OPT|
 OPT| RMS gradient                                                  0.0000860447
 OPT| Convergence limit for RMS gradient                            0.0003000000
 OPT| RMS gradient is converged                                              YES
 OPT|
 OPT| Pressure deviation [bar]                                     28.9936193863
 OPT| Pressure tolerance [bar]                                    100.0000000000
 OPT| Pressure is converged                                                  YES
 OPT| **************************************************************************
 OPT| Estimated peak process memory after this step [MiB]                    169

 *******************************************************************************
 ***                    GEOMETRY OPTIMIZATION COMPLETED                      ***
 *******************************************************************************

 write_final_structure: Optimization converged, writing XYZ file gladly:
  cyanamide_GFN2_gamma_cell_opt-FINAL-1_244.xyz

 write_final_structure: Optimization converged, writing CIF file gladly:
  cyanamide_GFN2_gamma_cell_opt-FINAL-1_244.cif

 write_final_structure: Done!

                    Reevaluating energy at the minimum

 CELL| Volume [angstrom^3]:                                           409.535546
 CELL| Vector a [angstrom]:       6.729     0.000     0.000   |a| =     6.729450
 CELL| Vector b [angstrom]:       0.000     7.737     0.000   |b| =     7.737495
 CELL| Vector c [angstrom]:      -0.000    -0.002     7.865   |c| =     7.865235
 CELL| Angle (b,c), alpha [degree]:                                    90.011782
 CELL| Angle (a,c), beta  [degree]:                                    90.000414
 CELL| Angle (a,b), gamma [degree]:                                    89.999433
 CELL| Numerically orthorhombic:                                              NO
 CELL| Periodicity                                                           XYZ

 Extrapolation method: ASPC

 Number of electrons:                                                        128
 Number of occupied orbitals:                                                 64
 Number of molecular orbitals:                                               112

 Number of orbital functions:                                                112
 Number of independent orbital functions:                                    112


 SCF WAVEFUNCTION OPTIMIZATION

  Step     Update method      Time    Convergence         Total energy    Change
  ------------------------------------------------------------------------------
     1 TBLite/Diag 0.40E+00    0.0     9.0303E-10       -71.9117458305 -7.19E+01

  *** SCF run converged in     1 steps ***


  Core Hamiltonian energy:                                    -73.36633931634451
  Repulsive potential energy:                                   1.31894277046398
  Electrostatic energy:                                         0.22146500516634
  Self-consistent dispersion energy:                           -0.10575789774036
  Non-self consistent dispersion energy:                        0.01994360798105
  Correction for halogen bonding:                               0.00000000000000
  Electronic entropic energy:                                  -0.00000000000000
  Fermi energy:                                                -0.25078094125586

  Total energy:                                               -71.91174583047351
  Total energy (extrapolated to T->0):                        -71.91174583047351

 ENERGY| Total FORCE_EVAL ( QS ) energy [hartree]            -71.911745830473507

 -------------------------------------------------------------------------------
 -                                                                             -
 -                                DBCSR STATISTICS                             -
 -                                                                             -
 -------------------------------------------------------------------------------
 COUNTER                                    TOTAL       BLAS       SMM       ACC
 flops     1 x    16 x     1              1761280       0.0%    100.0%      0.0%     
 flops     1 x    16 x     4             10567680       0.0%    100.0%      0.0%     
 flops     4 x    16 x     1             10567680       0.0%    100.0%      0.0%     
 flops     1 x    32 x     1             10567680       0.0%    100.0%      0.0%     
 flops     1 x     1 x   112             26869248       0.0%    100.0%      0.0%     
 flops     1 x    32 x     4             63406080       0.0%    100.0%      0.0%     
 flops     4 x    32 x     1             63406080       0.0%    100.0%      0.0%     
 flops     4 x    16 x     4             63406080       0.0%    100.0%      0.0%     
 flops     1 x     4 x   112            151732224       0.0%    100.0%      0.0%     
 flops     4 x     1 x   112            151732224       0.0%    100.0%      0.0%     
 flops     4 x    32 x     4            380436480       0.0%    100.0%      0.0%     
 flops     4 x     4 x   112            948326400       0.0%    100.0%      0.0%     
 flops inhomo. stacks                           0       0.0%      0.0%      0.0%
 flops total                         1.882779E+09       0.0%    100.0%      0.0%
 flops max/rank                      1.882779E+09       0.0%    100.0%      0.0%
 matmuls inhomo. stacks                         0       0.0%      0.0%      0.0%
 matmuls total                            2099240       0.0%    100.0%      0.0%
 number of processed stacks                  5893       0.0%    100.0%      0.0%
 average stack size                                     0.0     356.2       0.0
 marketing flops                     2.020286E+09
 -------------------------------------------------------------------------------
 # multiplications                           1097
 max memory usage/rank              13.676659E+09
 # max total images/rank                        1
 # max 3D layers                                1
 # MPI messages exchanged                       0
 -------------------------------------------------------------------------------
 -                                                                             -
 -                      DBCSR MESSAGE PASSING PERFORMANCE                      -
 -                                                                             -
 -------------------------------------------------------------------------------
 ROUTINE             CALLS      AVE VOLUME [Bytes]
 MP_Bcast               13                     12.
 MP_Allreduce         5098                      8.
 MP_Alltoall         37635                  69712.
 MP_ISend             4388                   6022.
 MP_IRecv             4388                   6022.
 -------------------------------------------------------------------------------

 -------------------------------------------------------------------------------
 -                                                                             -
 -                          OFFLOAD MEMPOOL STATISTICS                         -
 -                                                                             -
 -------------------------------------------------------------------------------
 Memory consumption                Number of allocations  Used [MiB]  Size [MiB]
 Device                                                1           0           0
 Host                                                  1           0           0
 -------------------------------------------------------------------------------

 MEMORY| Estimated peak process memory [MiB]                                 169

 -------------------------------------------------------------------------------
 -                                                                             -
 -                         MESSAGE PASSING PERFORMANCE                         -
 -                                                                             -
 -------------------------------------------------------------------------------

 ROUTINE             CALLS      AVE VOLUME [Bytes]
 MP_Group               45
 MP_Bcast             1762                    453.
 MP_Allreduce        26590                    301.
 MP_Sync               926
 MP_comm_split         881
 -------------------------------------------------------------------------------


 -------------------------------------------------------------------------------
 -                                                                             -
 -                           R E F E R E N C E S                               -
 -                                                                             -
 -------------------------------------------------------------------------------
 
 CP2K version 2026.1 (Development Version), the CP2K developers group (2026).
 CP2K is freely available from https://www.cp2k.org/ .
 
 M. Iannuzzi, J. Wilhelm, F. Stein, A. Bussy, H. Elgabarty, D. Golze, A. Hehn, 
 M. Graml, S. Marek, B. Sertcan Gökmen, C. Schran, H. Forbert, R. Z. 
 Khaliullin, A. Kozhevnikov, M. Taillefumier, R. Meli, V. V. Rybkin, M. Brehm, 
 R. Schade, O. Schütt, J. V. Pototschnig, H. Mirhosseini, A. Knüpfer, D. Marx, 
 M. Krack, J. Hutter, T. D. Kühne.
 J. Phys. Chem. B 130, 1237-1310 (2026).
 The CP2K Program Package Made Simple.
 https://doi.org/10.1021/acs.jpcb.5c05851

 A. Katbashev, M. Stahn, T. Rose, V. Alizadeh, M. Friede, C. Plett, P. 
 Steinbach, S. Ehlert.
 J. Phys. Chem. A 129, 2667-2682 (2025).
 Overview on Building Blocks and Applications of Efficient and Robust Extended 
 Tight Binding.
 https://doi.org/10.1021/acs.jpca.4c08263

 T. D. Kühne, M. Iannuzzi, M. Del Ben, V. V. Rybkin, P. Seewald, F. Stein, T. 
 Laino, R. Z. Khaliullin, O. Schütt, F. Schiffmann, D. Golze, J. Wilhelm, S. 
 Chulkov, M. H. Bani-Hashemian, V. Weber, U. Borstnik, M. Taillefumier, A. S. 
 Jakobovits, A. Lazzaro, H. Pabst, T. Müller, R. Schade, M. Guidon, S. 
 Andermatt, N. Holmberg, G. K. Schenter, A. Hehn, A. Bussy, F. Belleflamme, G. 
 Tabacchi, A. Glöß, M. Lass, I. Bethune, C. J. Mundy, C. Plessl, M. Watkins, 
 J. VandeVondele, M. Krack, J. Hutter.
 J. Chem. Phys. 152, 194103 (2020).
 CP2K: An electronic structure and molecular dynamics software package - 
 Quickstep: Efficient and accurate electronic structure calculations.
 https://doi.org/10.1063/5.0007045

 P. Pracht, E. Caldeweyher, S. Ehlert, S. Grimme.
 ChemRxiv, (2019).
 A Robust Non-Self-Consistent Tight-Binding Quantum Chemistry Method for large 
 Molecules.
 https://doi.org/10.26434/chemrxiv.8326202.v1

 S. Grimme, C. Bannwarth, P. Shushkov.
 J. Chem. Theory Comput. 13, 1989 (2017).
 A Robust and Accurate Tight-Binding Quantum Chemical Method for Structures, 
 Vibrational Frequencies, and Noncovalent Interactions of Large Molecular 
 Systems Parametrized for All spd-Block Elements (Z = 1-86).
 https://doi.org/10.1021/acs.jctc.7b00118

 O. Schuett, P. Messmer, J. Hutter, J. VandeVondele.
 Electronic Structure Calculations on Graphics Processing Units, 173-190 (2016).
 GPU-Accelerated Sparse Matrix-Matrix Multiplication for Linear Scaling Density 
 Functional Theory.
 https://doi.org/10.1002/9781118670712.ch8

 A. Heinecke, G. Henry, M. Hutchinson, H. Pabst.
 Proceedings of Intl. Supercomputing Conference, 981-991 (2016).
 LIBXSMM: Accelerating Small Matrix Multiplications by Runtime Code Generation.
 https://doi.org/10.1109/SC.2016.83

 U. Borstnik, J. VandeVondele, V. Weber, J. Hutter.
 Parallel Comput. 40, 47-58 (2014).
 Sparse matrix multiplication: The distributed block-compressed sparse row 
 library.
 https://doi.org/10.1016/j.parco.2014.03.012

 T. D. Kühne, M. Krack, F. R. Mohamed, M. Parrinello.
 Phys. Rev. Lett. 98, 066401 (2007).
 Efficient and accurate Car-Parrinello-like approach to Born-Oppenheimer 
 molecular dynamics.
 https://doi.org/10.1103/PhysRevLett.98.066401

 M. Frigo, S. G. Johnson.
 Proc. IEEE 93, 216-231 (2005).
 The design and implementation of FFTW3.
 https://doi.org/10.1109/JPROC.2004.840301

 J. Kolafa.
 J. Comput. Chem. 25, 335-342 (2004).
 Time-reversible always stable predictor-corrector method for molecular dynamics 
 of polarizable molecules.
 https://doi.org/10.1002/jcc.10385

 N. D. Mermin.
 Phys. Rev. 137, A1441-A1443 (1965).
 Thermal Properties of the Inhomogeneous Electron Gas.
 https://doi.org/10.1103/PhysRev.137.A1441


 -------------------------------------------------------------------------------
 -                                                                             -
 -                                T I M I N G                                  -
 -                                                                             -
 -------------------------------------------------------------------------------
 SUBROUTINE                       CALLS  ASD         SELF TIME        TOTAL TIME
                                MAXIMUM       AVERAGE  MAXIMUM  AVERAGE  MAXIMUM
 CP2K                                 1  1.0    0.002    0.002   45.963   45.963
 cp_cell_opt                          1  2.0    0.000    0.000   45.958   45.958
 geoopt_bfgs                          1  3.0    0.003    0.003   45.958   45.958
 cp_eval_at                          46  4.0    0.003    0.003   45.869   45.869
 qs_forces                           45  5.0    0.002    0.002   45.627   45.627
 build_tblite_matrices               91  7.0   35.441   35.441   36.405   36.405
 qs_energies                         46  6.0    0.001    0.001   14.553   14.553
 qs_energies_init_hamiltonians       46  7.0    0.000    0.000   10.444   10.444
 rebuild_ks_matrix                  837  9.8    0.001    0.001    6.406    6.406
 build_tblite_ks_matrix             837 10.8    6.392    6.392    6.405    6.405
 qs_ks_update_qs_env_forces          45  6.0    0.000    0.000    5.299    5.299
 scf_env_do_scf                      46  7.0    0.000    0.000    3.775    3.775
 scf_env_do_scf_inner_loop          792  8.0    0.555    0.555    3.772    3.772
 qs_scf_new_mos                     792  9.0    0.002    0.002    1.976    1.976
 qs_ks_update_qs_env                792  9.0    0.001    0.001    1.144    1.144
 tb_get_multipole                    91  8.0    0.754    0.754    0.925    0.925
 -------------------------------------------------------------------------------

 The number of warnings for this run is : 0
 
 -------------------------------------------------------------------------------
  **** **** ******  **  PROGRAM ENDED AT                 2026-05-23 23:04:55.717
 ***** ** ***  *** **   PROGRAM RAN ON                                spark-c86c
 **    ****   ******    PROGRAM RAN BY                                  kuehne88
 ***** **    ** ** **   PROGRAM PROCESS ID                               2275616
  **** **  *******  **  PROGRAM STOPPED IN /home/kuehne88/periodic-gfn2-benchmar
                                           ks/X23b/runs/cellopt_gamma/GFN2/cyana
                                           mide_GFN2_gamma_cellopt
