 DBCSR| CPU Multiplication driver                                           XSMM (U)
 DBCSR| Multrec recursion limit                                              512 (U)
 DBCSR| Multiplication stack size                                           1000 (D)
 DBCSR| Maximum elements for images                                    UNLIMITED (U)
 DBCSR| Multiplicative factor virtual images                                   1 (U)
 DBCSR| Use multiplication densification                                       T (D)
 DBCSR| Multiplication size stacks                                             3 (U)
 DBCSR| Use memory pool for CPU allocation                                     F (U)
 DBCSR| Number of 3D layers                                               SINGLE (U)
 DBCSR| Use MPI memory allocation                                              F (U)
 DBCSR| Use RMA algorithm                                                      F (U)
 DBCSR| Use Communication thread                                               T (U)
 DBCSR| Communication thread load                                             87 (D)
 DBCSR| MPI: My process id                                                     0
 DBCSR| MPI: Number of processes                                               1
 DBCSR| OMP: Current number of threads                                         1
 DBCSR| OMP: Max number of threads                                             1
 DBCSR| Split modifier for TAS multiplication algorithm                  1.0E+00 (U)


  **** **** ******  **  PROGRAM STARTED AT               2026-05-23 22:47:24.644
 ***** ** ***  *** **   PROGRAM STARTED ON                            spark-c86c
 **    ****   ******    PROGRAM STARTED BY                              kuehne88
 ***** **    ** ** **   PROGRAM PROCESS ID                               2268824
  **** **  *******  **  PROGRAM STARTED IN /home/kuehne88/periodic-gfn2-benchmar
                                           ks/X23b/runs/cellopt_gamma/GFN2/cyana
                                           mide_GFN2_gamma_cellopt

 CP2K| version string:                 CP2K version 2026.1 (Development Version)
 CP2K| source code revision number:                                   0622d442e4
 CP2K| cp2kflags: omp fftw3 libxc parallel scalapack mpi_f08 xsmm spglib libdftd
 CP2K|            4 dftd4_v3 mctc-lib tblite
 CP2K| is freely available from                            https://www.cp2k.org/
 CP2K| Program compiled at                                   2026-05-23 22:05:08
 CP2K| Program compiled on                                            spark-c86c
 CP2K| Program compiled for                                              aarch64
 CP2K| Data directory path    /home/kuehne88/cp2k-master-tblite-20260523/install
 CP2K| Input file name                          cyanamide_GFN2_gamma_cellopt.inp

 GLOBAL| Force Environment number                                              1
 GLOBAL| Basis set file name                                           BASIS_SET
 GLOBAL| Potential file name                                           POTENTIAL
 GLOBAL| MM Potential file name                                     MM_POTENTIAL
 GLOBAL| Coordinate file name                                      __STD_INPUT__
 GLOBAL| Method name                                                        CP2K
 GLOBAL| Project name                              cyanamide_GFN2_gamma_cell_opt
 GLOBAL| Run type                                                       CELL_OPT
 GLOBAL| FFT library                                                       FFTW3
 GLOBAL| Diagonalization library                                       ScaLAPACK
 GLOBAL| Cholesky decomposition library                                ScaLAPACK
 GLOBAL| DGEMM library                                                      BLAS
 GLOBAL| Direct generalized diagonalization requested                          F
 GLOBAL| Orthonormality check for eigenvectors                          DISABLED
 GLOBAL| Matrix multiplication library                                 ScaLAPACK
 GLOBAL| All-to-all communication in single precision                          F
 GLOBAL| FFTs using library dependent lengths                                  F
 GLOBAL| Grid backend                                                       AUTO
 GLOBAL| Global print level                                                  LOW
 GLOBAL| MPI I/O enabled                                                       T
 GLOBAL| Total number of message passing processes                             1
 GLOBAL| Number of distributed systems (nodes)                                 1
 GLOBAL| Number of threads for this process                                    1
 GLOBAL| This output is from process                                           0
 GLOBAL| OpenMP stack size per thread (OMP_STACKSIZE)                    default
 GLOBAL| CPU model name                                                  UNKNOWN
 GLOBAL| CPUID                                                              2200
 GLOBAL| Compiled for CPUID                                                 2000

 *** HINT in environment.F:970 :: The compiler target flags (arm_arch64)   ***
 *** used to build this binary cannot exploit all extensions of this CPU   ***
 *** model (arm_sve256). Consider compiler target flags as part of FCFLAGS ***
 *** and CFLAGS (ARCH file).                                               ***


 MEMORY| system memory details [Kb]
 MEMORY|                        rank 0           min           max       average
 MEMORY| MemTotal            125508532     125508532     125508532     125508532
 MEMORY| MemFree             104352536     104352536     104352536     104352536
 MEMORY| Buffers                868004        868004        868004        868004
 MEMORY| Cached               14077320      14077320      14077320      14077320
 MEMORY| Slab                  1596636       1596636       1596636       1596636
 MEMORY| SReclaimable           918440        918440        918440        918440
 MEMORY| MemLikelyFree       120216300     120216300     120216300     120216300


 GENERATE|  Preliminary Number of Bonds generated:                             0
 GENERATE|  Achieved consistency in connectivity generation.


                  #####   #####        #     #   #     #       #          
                 #     # #     #      #    ##### #     #   # #####  ####  
                 #     # #           #       #   ###   #       #   #    # 
                 #     #  #####     #        #   #  #  #   #   #   ###### 
                 #   # #       #   #         #   #   # #   #   #   #      
                 #    #  #     #  #          #   #  #  # # #   #    #   # 
                  #### #  #####  #           #   ###   ##  #   #     ###  

                                   GFN2-xTB  
                                 Version 0.0                       
                            Johann V. Pototschnig                  



 TOTAL NUMBERS AND MAXIMUM NUMBERS

  Total number of            - Atomic kinds:                                   3
                             - Atoms:                                         40
                             - Shell sets:                                    64
                             - Shells:                                        64
                             - Primitive Cartesian functions:                240
                             - Cartesian basis functions:                    112
                             - Spherical basis functions:                    112

  Maximum angular momentum of the orbital basis functions:                     1


 SCF PARAMETERS         Density guess:                                     MOPAC
                        --------------------------------------------------------
                        max_scf:                                             300
                        max_scf_history:                                       0
                        max_diis:                                              4
                        --------------------------------------------------------
                        eps_scf:                                        1.00E-09
                        eps_scf_history:                                0.00E+00
                        eps_diis:                                       1.00E-01
                        eps_eigval:                                     1.00E-05
                        --------------------------------------------------------
                        level_shift [a.u.]:                             0.000000
                        added MOs                                        48    0
                        --------------------------------------------------------
                        Mixing method:                           DIRECT_P_MIXING
                        --------------------------------------------------------
                        Smear method:                                FERMI_DIRAC
                        Electronic temperature [K]:                        300.0
                        Electronic temperature [a.u.]:                  9.50E-04
                        Accuracy threshold:                             1.00E-06
                        --------------------------------------------------------
                        No outer SCF

 CELL_OPT| Pressure tolerance [bar]:                                       100.0
 CELL_OPT| Keep volume of cell:                                               NO
 CELL_OPT| Keep angles between the cell vectors:                              NO
 CELL_OPT| Keep cell symmetry:                                                NO
 CELL_OPT| Constraint:                                                      NONE

 BFGS| Use rational function optimization for step estimation:                NO
 BFGS| Use model Hessian for initial guess:                                   NO
 BFGS| Restart Hessian:                                                       NO
 BFGS| Trust radius:                                                       0.472

 *******************************************************************************
 ***                     STARTING   CELL   OPTIMIZATION                      ***
 ***                                   BFGS                                  ***
 *******************************************************************************

 CELL| Volume [angstrom^3]:                                           415.654022
 CELL| Vector a [angstrom]:       6.856     0.000     0.000   |a| =     6.856000
 CELL| Vector b [angstrom]:       0.000     6.628     0.000   |b| =     6.628000
 CELL| Vector c [angstrom]:       0.000     0.000     9.147   |c| =     9.147000
 CELL| Angle (b,c), alpha [degree]:                                    90.000000
 CELL| Angle (a,c), beta  [degree]:                                    90.000000
 CELL| Angle (a,b), gamma [degree]:                                    90.000000
 CELL| Numerically orthorhombic:                                             YES
 CELL| Periodicity                                                           XYZ

 Extrapolation method: initial_guess

 Number of electrons:                                                        128
 Number of occupied orbitals:                                                 64
 Number of molecular orbitals:                                               112

 Number of orbital functions:                                                112
 Number of independent orbital functions:                                    112


 SCF WAVEFUNCTION OPTIMIZATION

  Step     Update method      Time    Convergence         Total energy    Change
  ------------------------------------------------------------------------------
     1 TBLite/Diag 0.40E+00    0.0     1.17225824       -70.6544177254 -7.07E+01
     2 TBLite/Diag 0.40E+00    0.0     0.40735516       -71.2968409473 -6.42E-01
     3 TBLite/Diag 0.40E+00    0.0     0.29253641       -71.3952420808 -9.84E-02
     4 TBLite/Diag 0.40E+00    0.0     0.14606618       -71.6065340402 -2.11E-01
     5 TBLite/Diag 0.40E+00    0.0     0.02632105       -71.6174254870 -1.09E-02
     6 TBLite/Diag 0.40E+00    0.0     0.00312405       -71.6174495983 -2.41E-05
     7 TBLite/Diag 0.40E+00    0.0     0.00113005       -71.6174724125 -2.28E-05
     8 TBLite/Diag 0.40E+00    0.0     0.00170621       -71.6175118504 -3.94E-05
     9 TBLite/Diag 0.40E+00    0.0     0.00041783       -71.6175130950 -1.24E-06
    10 TBLite/Diag 0.40E+00    0.0     0.00009915       -71.6175131738 -7.89E-08
    11 TBLite/Diag 0.40E+00    0.0     0.00002771       -71.6175131815 -7.70E-09
    12 TBLite/Diag 0.40E+00    0.0     0.00000914       -71.6175131820 -4.49E-10
    13 TBLite/Diag 0.40E+00    0.0     0.00000221       -71.6175131821 -1.02E-10
    14 TBLite/Diag 0.40E+00    0.0     0.00000145       -71.6175131821 -2.26E-11
    15 TBLite/Diag 0.40E+00    0.0     0.00000009       -71.6175131821 -2.27E-13
    16 TBLite/Diag 0.40E+00    0.0     0.00000005       -71.6175131821  1.14E-13
    17 TBLite/Diag 0.40E+00    0.0     0.00000004       -71.6175131821 -1.56E-13
    18 TBLite/Diag 0.40E+00    0.0     2.1829E-09       -71.6175131821  7.11E-14
    19 TBLite/Diag 0.40E+00    0.0     2.0772E-10       -71.6175131821  1.42E-13

  *** SCF run converged in    19 steps ***


  Core Hamiltonian energy:                                    -73.60661753076110
  Repulsive potential energy:                                   1.84347064418839
  Electrostatic energy:                                         0.23097925272048
  Self-consistent dispersion energy:                           -0.10467369563854
  Non-self consistent dispersion energy:                        0.01932814736857
  Correction for halogen bonding:                               0.00000000000000
  Electronic entropic energy:                                  -0.00000000000000
  Fermi energy:                                                -0.24800930049807

  Total energy:                                               -71.61751318212221
  Total energy (extrapolated to T->0):                        -71.61751318212221

 ENERGY| Total FORCE_EVAL ( QS ) energy [hartree]            -71.617513182122210

 OPT| **************************************************************************
 OPT| Step number                                                              0
 OPT| Optimization method                                                   BFGS
 OPT| Total energy [hartree]                                      -71.6175131821
 OPT| Internal pressure [bar]                                  125540.0165116467
 OPT| Used time [s]                                                        2.007
 OPT| **************************************************************************
 OPT| Estimated peak process memory [MiB]                                    166

 --------------------------
 OPTIMIZATION STEP:      1
 --------------------------

 CELL| Volume [angstrom^3]:                                           423.971504
 CELL| Vector a [angstrom]:       6.909     0.000     0.000   |a| =     6.909300
 CELL| Vector b [angstrom]:       0.000     6.690     0.000   |b| =     6.690331
 CELL| Vector c [angstrom]:      -0.000     0.000     9.172   |c| =     9.171810
 CELL| Angle (b,c), alpha [degree]:                                    90.000000
 CELL| Angle (a,c), beta  [degree]:                                    90.000000
 CELL| Angle (a,b), gamma [degree]:                                    90.000000
 CELL| Numerically orthorhombic:                                              NO
 CELL| Periodicity                                                           XYZ

 Extrapolation method: ASPC

 Number of electrons:                                                        128
 Number of occupied orbitals:                                                 64
 Number of molecular orbitals:                                               112

 Number of orbital functions:                                                112
 Number of independent orbital functions:                                    112


 SCF WAVEFUNCTION OPTIMIZATION

  Step     Update method      Time    Convergence         Total energy    Change
  ------------------------------------------------------------------------------
     1 TBLite/Diag 0.40E+00    0.0     0.11171055       -71.7866970749 -7.18E+01
     2 TBLite/Diag 0.40E+00    0.0     0.09282637       -71.8057325680 -1.90E-02
     3 TBLite/Diag 0.40E+00    0.0     0.04424366       -71.8181786619 -1.24E-02
     4 TBLite/Diag 0.40E+00    0.0     0.01413246       -71.8194478737 -1.27E-03
     5 TBLite/Diag 0.40E+00    0.0     0.00226392       -71.8195713203 -1.23E-04
     6 TBLite/Diag 0.40E+00    0.0     0.00088453       -71.8195756632 -4.34E-06
     7 TBLite/Diag 0.40E+00    0.0     0.00018560       -71.8195759211 -2.58E-07
     8 TBLite/Diag 0.40E+00    0.0     0.00007030       -71.8195759229 -1.72E-09
     9 TBLite/Diag 0.40E+00    0.0     0.00004023       -71.8195759351 -1.22E-08
    10 TBLite/Diag 0.40E+00    0.0     0.00000309       -71.8195759352 -7.89E-11
    11 TBLite/Diag 0.40E+00    0.0     0.00000063       -71.8195759352 -2.47E-12
    12 TBLite/Diag 0.40E+00    0.0     0.00000042       -71.8195759352  7.11E-14
    13 TBLite/Diag 0.40E+00    0.0     0.00000025       -71.8195759352 -2.56E-13
    14 TBLite/Diag 0.40E+00    0.0     0.00000005       -71.8195759352 -1.14E-13
    15 TBLite/Diag 0.40E+00    0.0     0.00000002       -71.8195759352 -5.68E-14
    16 TBLite/Diag 0.40E+00    0.0     2.0841E-09       -71.8195759352  9.95E-14
    17 TBLite/Diag 0.40E+00    0.0     3.0258E-10       -71.8195759352  2.84E-14

  *** SCF run converged in    17 steps ***


  Core Hamiltonian energy:                                    -73.42158838267959
  Repulsive potential energy:                                   1.42993382670624
  Electrostatic energy:                                         0.25598183689986
  Self-consistent dispersion energy:                           -0.10249916209987
  Non-self consistent dispersion energy:                        0.01859594599710
  Correction for halogen bonding:                               0.00000000000000
  Electronic entropic energy:                                  -0.00000000000000
  Fermi energy:                                                -0.25073531276678

  Total energy:                                               -71.81957593517626
  Total energy (extrapolated to T->0):                        -71.81957593517626

 ENERGY| Total FORCE_EVAL ( QS ) energy [hartree]            -71.819575935176260

 OPT| **************************************************************************
 OPT| Step number                                                              1
 OPT| Optimization method                                                   BFGS
 OPT| Total energy [hartree]                                      -71.8195759352
 OPT| Internal pressure [bar]                                   20079.0784029340
 OPT| Effective energy change [hartree]                            -0.2020627531
 OPT| Predicted energy change [hartree]                            -0.3299051140
 OPT| Scaling factor                                                0.0000000000
 OPT| Step size                                                     0.1472654795
 OPT| Trust radius                                                  0.4724315332
 OPT| Decrease in energy                                                     YES
 OPT| Used time [s]                                                        1.911
 OPT|
 OPT| Maximum step size                                             0.1472654795
 OPT| Convergence limit for maximum step size                       0.0030000000
 OPT| Maximum step size is converged                                          NO
 OPT|
 OPT| RMS step size                                                 0.0723642806
 OPT| Convergence limit for RMS step size                           0.0015000000
 OPT| RMS step size is converged                                              NO
 OPT|
 OPT| Maximum gradient                                              0.0868359684
 OPT| Convergence limit for maximum gradient                        0.0004500000
 OPT| Maximum gradient is converged                                           NO
 OPT|
 OPT| RMS gradient                                                  0.0358723304
 OPT| Convergence limit for RMS gradient                            0.0003000000
 OPT| RMS gradient is converged                                               NO
 OPT|
 OPT| Pressure deviation [bar]                                  20079.0784029340
 OPT| Pressure tolerance [bar]                                    100.0000000000
 OPT| Pressure is converged                                                   NO
 OPT| **************************************************************************
 OPT| Estimated peak process memory after this step [MiB]                    167

 --------------------------
 OPTIMIZATION STEP:      2
 --------------------------

 CELL| Volume [angstrom^3]:                                           425.587680
 CELL| Vector a [angstrom]:       6.910     0.000     0.000   |a| =     6.909990
 CELL| Vector b [angstrom]:       0.000     6.700     0.000   |b| =     6.700105
 CELL| Vector c [angstrom]:      -0.000     0.000     9.192   |c| =     9.192424
 CELL| Angle (b,c), alpha [degree]:                                    90.000000
 CELL| Angle (a,c), beta  [degree]:                                    90.000000
 CELL| Angle (a,b), gamma [degree]:                                    90.000000
 CELL| Numerically orthorhombic:                                              NO
 CELL| Periodicity                                                           XYZ

 Extrapolation method: ASPC

 Number of electrons:                                                        128
 Number of occupied orbitals:                                                 64
 Number of molecular orbitals:                                               112

 Number of orbital functions:                                                112
 Number of independent orbital functions:                                    112


 SCF WAVEFUNCTION OPTIMIZATION

  Step     Update method      Time    Convergence         Total energy    Change
  ------------------------------------------------------------------------------
     1 TBLite/Diag 0.40E+00    0.0     0.09693464       -71.8192781731 -7.18E+01
     2 TBLite/Diag 0.40E+00    0.0     0.06833625       -71.8377510145 -1.85E-02
     3 TBLite/Diag 0.40E+00    0.0     0.02392724       -71.8433691499 -5.62E-03
     4 TBLite/Diag 0.40E+00    0.0     0.00610208       -71.8434150031 -4.59E-05
     5 TBLite/Diag 0.40E+00    0.0     0.00208077       -71.8435173415 -1.02E-04
     6 TBLite/Diag 0.40E+00    0.0     0.00049875       -71.8435194724 -2.13E-06
     7 TBLite/Diag 0.40E+00    0.0     0.00008607       -71.8435194591  1.33E-08
     8 TBLite/Diag 0.40E+00    0.0     0.00006971       -71.8435194814 -2.22E-08
     9 TBLite/Diag 0.40E+00    0.0     0.00002849       -71.8435194863 -4.98E-09
    10 TBLite/Diag 0.40E+00    0.0     0.00000243       -71.8435194864 -3.54E-11
    11 TBLite/Diag 0.40E+00    0.0     0.00000042       -71.8435194864 -2.19E-12
    12 TBLite/Diag 0.40E+00    0.0     0.00000009       -71.8435194864  2.56E-13
    13 TBLite/Diag 0.40E+00    0.0     0.00000006       -71.8435194864 -8.53E-14
    14 TBLite/Diag 0.40E+00    0.0     0.00000001       -71.8435194864 -1.42E-13
    15 TBLite/Diag 0.40E+00    0.0     8.0886E-09       -71.8435194864  1.42E-13
    16 TBLite/Diag 0.40E+00    0.0     1.8407E-09       -71.8435194864 -1.71E-13
    17 TBLite/Diag 0.40E+00    0.0     1.0475E-10       -71.8435194864  2.56E-13

  *** SCF run converged in    17 steps ***


  Core Hamiltonian energy:                                    -73.49389023380003
  Repulsive potential energy:                                   1.49322942632145
  Electrostatic energy:                                         0.24072835032443
  Self-consistent dispersion energy:                           -0.10204237624168
  Non-self consistent dispersion energy:                        0.01845534701690
  Correction for halogen bonding:                               0.00000000000000
  Electronic entropic energy:                                  -0.00000000000000
  Fermi energy:                                                -0.24281339144928

  Total energy:                                               -71.84351948637894
  Total energy (extrapolated to T->0):                        -71.84351948637894

 ENERGY| Total FORCE_EVAL ( QS ) energy [hartree]            -71.843519486378938

 OPT| **************************************************************************
 OPT| Step number                                                              2
 OPT| Optimization method                                                   BFGS
 OPT| Total energy [hartree]                                      -71.8435194864
 OPT| Internal pressure [bar]                                   19641.5134057300
 OPT| Effective energy change [hartree]                            -0.0239435512
 OPT| Predicted energy change [hartree]                            -0.0559504487
 OPT| Scaling factor                                                0.0000000000
 OPT| Step size                                                     0.0674063582
 OPT| Trust radius                                                  0.4724315332
 OPT| Decrease in energy                                                     YES
 OPT| Used time [s]                                                        1.901
 OPT|
 OPT| Maximum step size                                             0.0674063582
 OPT| Convergence limit for maximum step size                       0.0030000000
 OPT| Maximum step size is converged                                          NO
 OPT|
 OPT| RMS step size                                                 0.0260028540
 OPT| Convergence limit for RMS step size                           0.0015000000
 OPT| RMS step size is converged                                              NO
 OPT|
 OPT| Maximum gradient                                              0.0888695094
 OPT| Convergence limit for maximum gradient                        0.0004500000
 OPT| Maximum gradient is converged                                           NO
 OPT|
 OPT| RMS gradient                                                  0.0331399316
 OPT| Convergence limit for RMS gradient                            0.0003000000
 OPT| RMS gradient is converged                                               NO
 OPT|
 OPT| Pressure deviation [bar]                                  19641.5134057300
 OPT| Pressure tolerance [bar]                                    100.0000000000
 OPT| Pressure is converged                                                   NO
 OPT| **************************************************************************
 OPT| Estimated peak process memory after this step [MiB]                    168

 --------------------------
 OPTIMIZATION STEP:      3
 --------------------------

 CELL| Volume [angstrom^3]:                                           426.226908
 CELL| Vector a [angstrom]:       6.904     0.000     0.000   |a| =     6.903610
 CELL| Vector b [angstrom]:       0.000     6.702     0.000   |b| =     6.701504
 CELL| Vector c [angstrom]:      -0.000     0.000     9.213   |c| =     9.212815
 CELL| Angle (b,c), alpha [degree]:                                    90.000000
 CELL| Angle (a,c), beta  [degree]:                                    90.000000
 CELL| Angle (a,b), gamma [degree]:                                    90.000000
 CELL| Numerically orthorhombic:                                              NO
 CELL| Periodicity                                                           XYZ

 Extrapolation method: ASPC

 Number of electrons:                                                        128
 Number of occupied orbitals:                                                 64
 Number of molecular orbitals:                                               112

 Number of orbital functions:                                                112
 Number of independent orbital functions:                                    112


 SCF WAVEFUNCTION OPTIMIZATION

  Step     Update method      Time    Convergence         Total energy    Change
  ------------------------------------------------------------------------------
     1 TBLite/Diag 0.40E+00    0.0     0.09198140       -71.8600680618 -7.19E+01
     2 TBLite/Diag 0.40E+00    0.0     0.01176884       -71.8617255780 -1.66E-03
     3 TBLite/Diag 0.40E+00    0.0     0.00484948       -71.8617727482 -4.72E-05
     4 TBLite/Diag 0.40E+00    0.0     0.00536378       -71.8617517284  2.10E-05
     5 TBLite/Diag 0.40E+00    0.0     0.00292003       -71.8618542052 -1.02E-04
     6 TBLite/Diag 0.40E+00    0.0     0.00012434       -71.8618543054 -1.00E-07
     7 TBLite/Diag 0.40E+00    0.0     0.00004871       -71.8618543304 -2.51E-08
     8 TBLite/Diag 0.40E+00    0.0     0.00001721       -71.8618543307 -3.36E-10
     9 TBLite/Diag 0.40E+00    0.0     0.00000773       -71.8618543311 -3.59E-10
    10 TBLite/Diag 0.40E+00    0.0     0.00000237       -71.8618543311 -3.35E-11
    11 TBLite/Diag 0.40E+00    0.0     0.00000032       -71.8618543311  1.14E-13
    12 TBLite/Diag 0.40E+00    0.0     0.00000023       -71.8618543311 -5.68E-14
    13 TBLite/Diag 0.40E+00    0.0     0.00000009       -71.8618543311 -1.71E-13
    14 TBLite/Diag 0.40E+00    0.0     0.00000001       -71.8618543311  1.42E-13
    15 TBLite/Diag 0.40E+00    0.0     5.9927E-09       -71.8618543311 -3.13E-13
    16 TBLite/Diag 0.40E+00    0.0     2.4230E-09       -71.8618543311  3.13E-13
    17 TBLite/Diag 0.40E+00    0.0     3.4934E-11       -71.8618543311 -1.42E-13

  *** SCF run converged in    17 steps ***


  Core Hamiltonian energy:                                    -73.27136078623178
  Repulsive potential energy:                                   1.24776773006340
  Electrostatic energy:                                         0.24521230852380
  Self-consistent dispersion energy:                           -0.10186843856425
  Non-self consistent dispersion energy:                        0.01839485507374
  Correction for halogen bonding:                               0.00000000000000
  Electronic entropic energy:                                  -0.00000000000000
  Fermi energy:                                                -0.26136235104315

  Total energy:                                               -71.86185433113509
  Total energy (extrapolated to T->0):                        -71.86185433113509

 ENERGY| Total FORCE_EVAL ( QS ) energy [hartree]            -71.861854331135092

 OPT| **************************************************************************
 OPT| Step number                                                              3
 OPT| Optimization method                                                   BFGS
 OPT| Total energy [hartree]                                      -71.8618543311
 OPT| Internal pressure [bar]                                  -47731.1502138585
 OPT| Effective energy change [hartree]                            -0.0183348448
 OPT| Predicted energy change [hartree]                            -0.0335963992
 OPT| Scaling factor                                                0.0000000000
 OPT| Step size                                                     0.0491766420
 OPT| Trust radius                                                  0.4724315332
 OPT| Decrease in energy                                                     YES
 OPT| Used time [s]                                                        1.890
 OPT|
 OPT| Maximum step size                                             0.0491766420
 OPT| Convergence limit for maximum step size                       0.0030000000
 OPT| Maximum step size is converged                                          NO
 OPT|
 OPT| RMS step size                                                 0.0193947005
 OPT| Convergence limit for RMS step size                           0.0015000000
 OPT| RMS step size is converged                                              NO
 OPT|
 OPT| Maximum gradient                                              0.0664525432
 OPT| Convergence limit for maximum gradient                        0.0004500000
 OPT| Maximum gradient is converged                                           NO
 OPT|
 OPT| RMS gradient                                                  0.0125399016
 OPT| Convergence limit for RMS gradient                            0.0003000000
 OPT| RMS gradient is converged                                               NO
 OPT|
 OPT| Pressure deviation [bar]                                 -47731.1502138585
 OPT| Pressure tolerance [bar]                                    100.0000000000
 OPT| Pressure is converged                                                   NO
 OPT| **************************************************************************
 OPT| Estimated peak process memory after this step [MiB]                    168

 --------------------------
 OPTIMIZATION STEP:      4
 --------------------------

 CELL| Volume [angstrom^3]:                                           424.455350
 CELL| Vector a [angstrom]:       6.903     0.000     0.000   |a| =     6.902526
 CELL| Vector b [angstrom]:      -0.000     6.694     0.000   |b| =     6.693876
 CELL| Vector c [angstrom]:      -0.000     0.000     9.186   |c| =     9.186420
 CELL| Angle (b,c), alpha [degree]:                                    90.000000
 CELL| Angle (a,c), beta  [degree]:                                    90.000000
 CELL| Angle (a,b), gamma [degree]:                                    90.000000
 CELL| Numerically orthorhombic:                                              NO
 CELL| Periodicity                                                           XYZ

 Extrapolation method: ASPC

 Number of electrons:                                                        128
 Number of occupied orbitals:                                                 64
 Number of molecular orbitals:                                               112

 Number of orbital functions:                                                112
 Number of independent orbital functions:                                    112


 SCF WAVEFUNCTION OPTIMIZATION

  Step     Update method      Time    Convergence         Total energy    Change
  ------------------------------------------------------------------------------
     1 TBLite/Diag 0.40E+00    0.0     0.02414627       -71.8689266395 -7.19E+01
     2 TBLite/Diag 0.40E+00    0.0     0.01220629       -71.8690915426 -1.65E-04
     3 TBLite/Diag 0.40E+00    0.0     0.00596258       -71.8694062374 -3.15E-04
     4 TBLite/Diag 0.40E+00    0.0     0.00129792       -71.8694149162 -8.68E-06
     5 TBLite/Diag 0.40E+00    0.0     0.00023423       -71.8694161423 -1.23E-06
     6 TBLite/Diag 0.40E+00    0.0     0.00009722       -71.8694162121 -6.97E-08
     7 TBLite/Diag 0.40E+00    0.0     0.00001267       -71.8694162123 -2.18E-10
     8 TBLite/Diag 0.40E+00    0.0     0.00000703       -71.8694162125 -2.17E-10
     9 TBLite/Diag 0.40E+00    0.0     0.00000129       -71.8694162125 -1.73E-11
    10 TBLite/Diag 0.40E+00    0.0     0.00000004       -71.8694162125  5.68E-14
    11 TBLite/Diag 0.40E+00    0.0     0.00000004       -71.8694162125  0.00E+00
    12 TBLite/Diag 0.40E+00    0.0     0.00000003       -71.8694162125  1.42E-14
    13 TBLite/Diag 0.40E+00    0.0     0.00000001       -71.8694162125 -1.56E-13
    14 TBLite/Diag 0.40E+00    0.0     5.6112E-09       -71.8694162125  5.68E-14
    15 TBLite/Diag 0.40E+00    0.0     2.2203E-10       -71.8694162125  1.14E-13

  *** SCF run converged in    15 steps ***


  Core Hamiltonian energy:                                    -73.35554366506143
  Repulsive potential energy:                                   1.32549500810743
  Electrostatic energy:                                         0.24441529116799
  Self-consistent dispersion energy:                           -0.10232942155468
  Non-self consistent dispersion energy:                        0.01854657482776
  Correction for halogen bonding:                               0.00000000000000
  Electronic entropic energy:                                  -0.00000000000000
  Fermi energy:                                                -0.25514557576627

  Total energy:                                               -71.86941621251295
  Total energy (extrapolated to T->0):                        -71.86941621251295

 ENERGY| Total FORCE_EVAL ( QS ) energy [hartree]            -71.869416212512945

 OPT| **************************************************************************
 OPT| Step number                                                              4
 OPT| Optimization method                                                   BFGS
 OPT| Total energy [hartree]                                      -71.8694162125
 OPT| Internal pressure [bar]                                  -22147.7485749983
 OPT| Effective energy change [hartree]                            -0.0075618814
 OPT| Predicted energy change [hartree]                            -0.0061798240
 OPT| Scaling factor                                                0.0000000000
 OPT| Step size                                                     0.0498785268
 OPT| Trust radius                                                  0.4724315332
 OPT| Decrease in energy                                                     YES
 OPT| Used time [s]                                                        1.905
 OPT|
 OPT| Maximum step size                                             0.0498785268
 OPT| Convergence limit for maximum step size                       0.0030000000
 OPT| Maximum step size is converged                                          NO
 OPT|
 OPT| RMS step size                                                 0.0085932706
 OPT| Convergence limit for RMS step size                           0.0015000000
 OPT| RMS step size is converged                                              NO
 OPT|
 OPT| Maximum gradient                                              0.0274573763
 OPT| Convergence limit for maximum gradient                        0.0004500000
 OPT| Maximum gradient is converged                                           NO
 OPT|
 OPT| RMS gradient                                                  0.0037598839
 OPT| Convergence limit for RMS gradient                            0.0003000000
 OPT| RMS gradient is converged                                               NO
 OPT|
 OPT| Pressure deviation [bar]                                 -22147.7485749983
 OPT| Pressure tolerance [bar]                                    100.0000000000
 OPT| Pressure is converged                                                   NO
 OPT| **************************************************************************
 OPT| Estimated peak process memory after this step [MiB]                    169

 --------------------------
 OPTIMIZATION STEP:      5
 --------------------------

 CELL| Volume [angstrom^3]:                                           422.949341
 CELL| Vector a [angstrom]:       6.899     0.000     0.000   |a| =     6.899288
 CELL| Vector b [angstrom]:      -0.000     6.688     0.000   |b| =     6.687511
 CELL| Vector c [angstrom]:      -0.000     0.000     9.167   |c| =     9.166839
 CELL| Angle (b,c), alpha [degree]:                                    90.000000
 CELL| Angle (a,c), beta  [degree]:                                    90.000000
 CELL| Angle (a,b), gamma [degree]:                                    90.000000
 CELL| Numerically orthorhombic:                                              NO
 CELL| Periodicity                                                           XYZ

 Extrapolation method: ASPC

 Number of electrons:                                                        128
 Number of occupied orbitals:                                                 64
 Number of molecular orbitals:                                               112

 Number of orbital functions:                                                112
 Number of independent orbital functions:                                    112


 SCF WAVEFUNCTION OPTIMIZATION

  Step     Update method      Time    Convergence         Total energy    Change
  ------------------------------------------------------------------------------
     1 TBLite/Diag 0.40E+00    0.0     0.00723443       -71.8712424795 -7.19E+01
     2 TBLite/Diag 0.40E+00    0.0     0.00292237       -71.8712529678 -1.05E-05
     3 TBLite/Diag 0.40E+00    0.0     0.00180942       -71.8712676474 -1.47E-05
     4 TBLite/Diag 0.40E+00    0.0     0.00067175       -71.8712719372 -4.29E-06
     5 TBLite/Diag 0.40E+00    0.0     0.00004245       -71.8712719758 -3.87E-08
     6 TBLite/Diag 0.40E+00    0.0     0.00001661       -71.8712719786 -2.76E-09
     7 TBLite/Diag 0.40E+00    0.0     0.00000251       -71.8712719786 -6.96E-12
     8 TBLite/Diag 0.40E+00    0.0     0.00000144       -71.8712719786 -1.07E-11
     9 TBLite/Diag 0.40E+00    0.0     0.00000035       -71.8712719786 -8.67E-13
    10 TBLite/Diag 0.40E+00    0.0     0.00000004       -71.8712719786  2.27E-13
    11 TBLite/Diag 0.40E+00    0.0     0.00000002       -71.8712719786 -7.11E-14
    12 TBLite/Diag 0.40E+00    0.0     0.00000001       -71.8712719786 -8.53E-14
    13 TBLite/Diag 0.40E+00    0.0     4.5697E-09       -71.8712719786  1.85E-13
    14 TBLite/Diag 0.40E+00    0.0     4.6210E-10       -71.8712719786  1.42E-14

  *** SCF run converged in    14 steps ***


  Core Hamiltonian energy:                                    -73.38028124146409
  Repulsive potential energy:                                   1.34979805751628
  Electrostatic energy:                                         0.24325670061318
  Self-consistent dispersion energy:                           -0.10272001193278
  Non-self consistent dispersion energy:                        0.01867451665490
  Correction for halogen bonding:                               0.00000000000000
  Electronic entropic energy:                                  -0.00000000000000
  Fermi energy:                                                -0.25332321114961

  Total energy:                                               -71.87127197861251
  Total energy (extrapolated to T->0):                        -71.87127197861251

 ENERGY| Total FORCE_EVAL ( QS ) energy [hartree]            -71.871271978612512

 OPT| **************************************************************************
 OPT| Step number                                                              5
 OPT| Optimization method                                                   BFGS
 OPT| Total energy [hartree]                                      -71.8712719786
 OPT| Internal pressure [bar]                                  -13964.8380650805
 OPT| Effective energy change [hartree]                            -0.0018557661
 OPT| Predicted energy change [hartree]                            -0.0011214435
 OPT| Scaling factor                                                0.0000000000
 OPT| Step size                                                     0.0370020340
 OPT| Trust radius                                                  0.4724315332
 OPT| Decrease in energy                                                     YES
 OPT| Used time [s]                                                        1.893
 OPT|
 OPT| Maximum step size                                             0.0370020340
 OPT| Convergence limit for maximum step size                       0.0030000000
 OPT| Maximum step size is converged                                          NO
 OPT|
 OPT| RMS step size                                                 0.0048968614
 OPT| Convergence limit for RMS step size                           0.0015000000
 OPT| RMS step size is converged                                              NO
 OPT|
 OPT| Maximum gradient                                              0.0153935630
 OPT| Convergence limit for maximum gradient                        0.0004500000
 OPT| Maximum gradient is converged                                           NO
 OPT|
 OPT| RMS gradient                                                  0.0031401323
 OPT| Convergence limit for RMS gradient                            0.0003000000
 OPT| RMS gradient is converged                                               NO
 OPT|
 OPT| Pressure deviation [bar]                                 -13964.8380650805
 OPT| Pressure tolerance [bar]                                    100.0000000000
 OPT| Pressure is converged                                                   NO
 OPT| **************************************************************************
 OPT| Estimated peak process memory after this step [MiB]                    169

 --------------------------
 OPTIMIZATION STEP:      6
 --------------------------

 CELL| Volume [angstrom^3]:                                           418.157603
 CELL| Vector a [angstrom]:       6.887     0.000     0.000   |a| =     6.887085
 CELL| Vector b [angstrom]:      -0.000     6.667     0.000   |b| =     6.667090
 CELL| Vector c [angstrom]:      -0.000     0.000     9.107   |c| =     9.106851
 CELL| Angle (b,c), alpha [degree]:                                    90.000000
 CELL| Angle (a,c), beta  [degree]:                                    90.000000
 CELL| Angle (a,b), gamma [degree]:                                    90.000000
 CELL| Numerically orthorhombic:                                              NO
 CELL| Periodicity                                                           XYZ

 Extrapolation method: ASPC

 Number of electrons:                                                        128
 Number of occupied orbitals:                                                 64
 Number of molecular orbitals:                                               112

 Number of orbital functions:                                                112
 Number of independent orbital functions:                                    112


 SCF WAVEFUNCTION OPTIMIZATION

  Step     Update method      Time    Convergence         Total energy    Change
  ------------------------------------------------------------------------------
     1 TBLite/Diag 0.40E+00    0.0     0.01993800       -71.8753996200 -7.19E+01
     2 TBLite/Diag 0.40E+00    0.0     0.00450490       -71.8754333056 -3.37E-05
     3 TBLite/Diag 0.40E+00    0.0     0.00391048       -71.8754217558  1.15E-05
     4 TBLite/Diag 0.40E+00    0.0     0.00226155       -71.8754772175 -5.55E-05
     5 TBLite/Diag 0.40E+00    0.0     0.00007632       -71.8754773335 -1.16E-07
     6 TBLite/Diag 0.40E+00    0.0     0.00001648       -71.8754773381 -4.55E-09
     7 TBLite/Diag 0.40E+00    0.0     0.00000404       -71.8754773381 -4.14E-11
     8 TBLite/Diag 0.40E+00    0.0     0.00000267       -71.8754773381 -1.57E-11
     9 TBLite/Diag 0.40E+00    0.0     0.00000089       -71.8754773381 -6.75E-12
    10 TBLite/Diag 0.40E+00    0.0     0.00000006       -71.8754773381  5.68E-14
    11 TBLite/Diag 0.40E+00    0.0     0.00000002       -71.8754773381 -1.56E-13
    12 TBLite/Diag 0.40E+00    0.0     0.00000002       -71.8754773381 -2.84E-14
    13 TBLite/Diag 0.40E+00    0.0     7.2046E-09       -71.8754773381  2.42E-13
    14 TBLite/Diag 0.40E+00    0.0     2.4258E-09       -71.8754773381 -5.68E-14
    15 TBLite/Diag 0.40E+00    0.0     6.3701E-10       -71.8754773381 -7.11E-14

  *** SCF run converged in    15 steps ***


  Core Hamiltonian energy:                                    -73.41432817888416
  Repulsive potential energy:                                   1.38385079217901
  Electrostatic energy:                                         0.23988209729714
  Self-consistent dispersion energy:                           -0.10397842053238
  Non-self consistent dispersion energy:                        0.01909637181882
  Correction for halogen bonding:                               0.00000000000000
  Electronic entropic energy:                                  -0.00000000000000
  Fermi energy:                                                -0.25061948864633

  Total energy:                                               -71.87547733812158
  Total energy (extrapolated to T->0):                        -71.87547733812158

 ENERGY| Total FORCE_EVAL ( QS ) energy [hartree]            -71.875477338121584

 OPT| **************************************************************************
 OPT| Step number                                                              6
 OPT| Optimization method                                                   BFGS
 OPT| Total energy [hartree]                                      -71.8754773381
 OPT| Internal pressure [bar]                                   -1540.4998202556
 OPT| Effective energy change [hartree]                            -0.0042053595
 OPT| Predicted energy change [hartree]                            -0.0028829352
 OPT| Scaling factor                                                0.0000000000
 OPT| Step size                                                     0.1133615043
 OPT| Trust radius                                                  0.4724315332
 OPT| Decrease in energy                                                     YES
 OPT| Used time [s]                                                        1.958
 OPT|
 OPT| Maximum step size                                             0.1133615043
 OPT| Convergence limit for maximum step size                       0.0030000000
 OPT| Maximum step size is converged                                          NO
 OPT|
 OPT| RMS step size                                                 0.0163963032
 OPT| Convergence limit for RMS step size                           0.0015000000
 OPT| RMS step size is converged                                              NO
 OPT|
 OPT| Maximum gradient                                              0.0144407041
 OPT| Convergence limit for maximum gradient                        0.0004500000
 OPT| Maximum gradient is converged                                           NO
 OPT|
 OPT| RMS gradient                                                  0.0051765660
 OPT| Convergence limit for RMS gradient                            0.0003000000
 OPT| RMS gradient is converged                                               NO
 OPT|
 OPT| Pressure deviation [bar]                                  -1540.4998202556
 OPT| Pressure tolerance [bar]                                    100.0000000000
 OPT| Pressure is converged                                                   NO
 OPT| **************************************************************************
 OPT| Estimated peak process memory after this step [MiB]                    169

 --------------------------
 OPTIMIZATION STEP:      7
 --------------------------

 CELL| Volume [angstrom^3]:                                           412.304528
 CELL| Vector a [angstrom]:       6.870     0.000     0.000   |a| =     6.869823
 CELL| Vector b [angstrom]:       0.000     6.641     0.000   |b| =     6.640948
 CELL| Vector c [angstrom]:      -0.000    -0.000     9.037   |c| =     9.037378
 CELL| Angle (b,c), alpha [degree]:                                    90.000000
 CELL| Angle (a,c), beta  [degree]:                                    90.000000
 CELL| Angle (a,b), gamma [degree]:                                    90.000000
 CELL| Numerically orthorhombic:                                              NO
 CELL| Periodicity                                                           XYZ

 Extrapolation method: ASPC

 Number of electrons:                                                        128
 Number of occupied orbitals:                                                 64
 Number of molecular orbitals:                                               112

 Number of orbital functions:                                                112
 Number of independent orbital functions:                                    112


 SCF WAVEFUNCTION OPTIMIZATION

  Step     Update method      Time    Convergence         Total energy    Change
  ------------------------------------------------------------------------------
     1 TBLite/Diag 0.40E+00    0.0     0.02496010       -71.8791412488 -7.19E+01
     2 TBLite/Diag 0.40E+00    0.0     0.00236774       -71.8791577852 -1.65E-05
     3 TBLite/Diag 0.40E+00    0.0     0.00287500       -71.8791218598  3.59E-05
     4 TBLite/Diag 0.40E+00    0.0     0.00216443       -71.8791706752 -4.88E-05
     5 TBLite/Diag 0.40E+00    0.0     0.00007186       -71.8791707355 -6.03E-08
     6 TBLite/Diag 0.40E+00    0.0     0.00001220       -71.8791707369 -1.35E-09
     7 TBLite/Diag 0.40E+00    0.0     0.00000901       -71.8791707369 -1.01E-11
     8 TBLite/Diag 0.40E+00    0.0     0.00000508       -71.8791707371 -1.88E-10
     9 TBLite/Diag 0.40E+00    0.0     0.00000060       -71.8791707371 -1.14E-12
    10 TBLite/Diag 0.40E+00    0.0     0.00000055       -71.8791707371  1.28E-13
    11 TBLite/Diag 0.40E+00    0.0     0.00000029       -71.8791707371 -5.68E-13
    12 TBLite/Diag 0.40E+00    0.0     0.00000005       -71.8791707371  5.68E-14
    13 TBLite/Diag 0.40E+00    0.0     0.00000004       -71.8791707371 -1.42E-14
    14 TBLite/Diag 0.40E+00    0.0     2.0741E-09       -71.8791707371 -1.99E-13
    15 TBLite/Diag 0.40E+00    0.0     4.6648E-10       -71.8791707371  7.11E-14

  *** SCF run converged in    15 steps ***


  Core Hamiltonian energy:                                    -73.41554625760250
  Repulsive potential energy:                                   1.38563136940447
  Electrostatic energy:                                         0.23666624075100
  Self-consistent dispersion energy:                           -0.10555225078247
  Non-self consistent dispersion energy:                        0.01963016114909
  Correction for halogen bonding:                               0.00000000000000
  Electronic entropic energy:                                  -0.00000000000000
  Fermi energy:                                                -0.24993819439903

  Total energy:                                               -71.87917073708040
  Total energy (extrapolated to T->0):                        -71.87917073708040

 ENERGY| Total FORCE_EVAL ( QS ) energy [hartree]            -71.879170737080400

 OPT| **************************************************************************
 OPT| Step number                                                              7
 OPT| Optimization method                                                   BFGS
 OPT| Total energy [hartree]                                      -71.8791707371
 OPT| Internal pressure [bar]                                     993.9353737057
 OPT| Effective energy change [hartree]                            -0.0036933990
 OPT| Predicted energy change [hartree]                            -0.0025939542
 OPT| Scaling factor                                                0.0000000000
 OPT| Step size                                                     0.1312841011
 OPT| Trust radius                                                  0.4724315332
 OPT| Decrease in energy                                                     YES
 OPT| Used time [s]                                                        1.998
 OPT|
 OPT| Maximum step size                                             0.1312841011
 OPT| Convergence limit for maximum step size                       0.0030000000
 OPT| Maximum step size is converged                                          NO
 OPT|
 OPT| RMS step size                                                 0.0207540332
 OPT| Convergence limit for RMS step size                           0.0015000000
 OPT| RMS step size is converged                                              NO
 OPT|
 OPT| Maximum gradient                                              0.0157374265
 OPT| Convergence limit for maximum gradient                        0.0004500000
 OPT| Maximum gradient is converged                                           NO
 OPT|
 OPT| RMS gradient                                                  0.0053345576
 OPT| Convergence limit for RMS gradient                            0.0003000000
 OPT| RMS gradient is converged                                               NO
 OPT|
 OPT| Pressure deviation [bar]                                    993.9353737057
 OPT| Pressure tolerance [bar]                                    100.0000000000
 OPT| Pressure is converged                                                   NO
 OPT| **************************************************************************
 OPT| Estimated peak process memory after this step [MiB]                    169

 --------------------------
 OPTIMIZATION STEP:      8
 --------------------------

 CELL| Volume [angstrom^3]:                                           406.843704
 CELL| Vector a [angstrom]:       6.851     0.000     0.000   |a| =     6.850639
 CELL| Vector b [angstrom]:      -0.000     6.614     0.000   |b| =     6.613974
 CELL| Vector c [angstrom]:       0.000     0.000     8.979   |c| =     8.979125
 CELL| Angle (b,c), alpha [degree]:                                    90.000000
 CELL| Angle (a,c), beta  [degree]:                                    90.000000
 CELL| Angle (a,b), gamma [degree]:                                    90.000000
 CELL| Numerically orthorhombic:                                              NO
 CELL| Periodicity                                                           XYZ

 Extrapolation method: ASPC

 Number of electrons:                                                        128
 Number of occupied orbitals:                                                 64
 Number of molecular orbitals:                                               112

 Number of orbital functions:                                                112
 Number of independent orbital functions:                                    112


 SCF WAVEFUNCTION OPTIMIZATION

  Step     Update method      Time    Convergence         Total energy    Change
  ------------------------------------------------------------------------------
     1 TBLite/Diag 0.40E+00    0.0     0.02251502       -71.8816807125 -7.19E+01
     2 TBLite/Diag 0.40E+00    0.0     0.00082424       -71.8816875435 -6.83E-06
     3 TBLite/Diag 0.40E+00    0.0     0.00086014       -71.8816878566 -3.13E-07
     4 TBLite/Diag 0.40E+00    0.0     0.00078823       -71.8816901929 -2.34E-06
     5 TBLite/Diag 0.40E+00    0.0     0.00015862       -71.8816902736 -8.08E-08
     6 TBLite/Diag 0.40E+00    0.0     0.00003995       -71.8816902836 -9.98E-09
     7 TBLite/Diag 0.40E+00    0.0     0.00001784       -71.8816902838 -2.35E-10
     8 TBLite/Diag 0.40E+00    0.0     0.00000663       -71.8816902841 -3.24E-10
     9 TBLite/Diag 0.40E+00    0.0     0.00000125       -71.8816902841  1.07E-12
    10 TBLite/Diag 0.40E+00    0.0     0.00000125       -71.8816902841 -2.32E-12
    11 TBLite/Diag 0.40E+00    0.0     0.00000049       -71.8816902841 -2.12E-12
    12 TBLite/Diag 0.40E+00    0.0     0.00000008       -71.8816902841  2.27E-13
    13 TBLite/Diag 0.40E+00    0.0     0.00000004       -71.8816902841 -1.85E-13
    14 TBLite/Diag 0.40E+00    0.0     4.6723E-09       -71.8816902841 -1.14E-13
    15 TBLite/Diag 0.40E+00    0.0     9.1764E-10       -71.8816902841  8.53E-14

  *** SCF run converged in    15 steps ***


  Core Hamiltonian energy:                                    -73.39004042787381
  Repulsive potential energy:                                   1.36068559611612
  Electrostatic energy:                                         0.23455045289996
  Self-consistent dispersion energy:                           -0.10706076877060
  Non-self consistent dispersion energy:                        0.02017486348016
  Correction for halogen bonding:                               0.00000000000000
  Electronic entropic energy:                                  -0.00000000000000
  Fermi energy:                                                -0.25114993054690

  Total energy:                                               -71.88169028414818
  Total energy (extrapolated to T->0):                        -71.88169028414818

 ENERGY| Total FORCE_EVAL ( QS ) energy [hartree]            -71.881690284148178

 OPT| **************************************************************************
 OPT| Step number                                                              8
 OPT| Optimization method                                                   BFGS
 OPT| Total energy [hartree]                                      -71.8816902841
 OPT| Internal pressure [bar]                                   -5425.5602693074
 OPT| Effective energy change [hartree]                            -0.0025195471
 OPT| Predicted energy change [hartree]                            -0.0018738997
 OPT| Scaling factor                                                0.0000000000
 OPT| Step size                                                     0.1100827738
 OPT| Trust radius                                                  0.4724315332
 OPT| Decrease in energy                                                     YES
 OPT| Used time [s]                                                        2.152
 OPT|
 OPT| Maximum step size                                             0.1100827738
 OPT| Convergence limit for maximum step size                       0.0030000000
 OPT| Maximum step size is converged                                          NO
 OPT|
 OPT| RMS step size                                                 0.0187760922
 OPT| Convergence limit for RMS step size                           0.0015000000
 OPT| RMS step size is converged                                              NO
 OPT|
 OPT| Maximum gradient                                              0.0093534709
 OPT| Convergence limit for maximum gradient                        0.0004500000
 OPT| Maximum gradient is converged                                           NO
 OPT|
 OPT| RMS gradient                                                  0.0035224182
 OPT| Convergence limit for RMS gradient                            0.0003000000
 OPT| RMS gradient is converged                                               NO
 OPT|
 OPT| Pressure deviation [bar]                                  -5425.5602693074
 OPT| Pressure tolerance [bar]                                    100.0000000000
 OPT| Pressure is converged                                                   NO
 OPT| **************************************************************************
 OPT| Estimated peak process memory after this step [MiB]                    169

 --------------------------
 OPTIMIZATION STEP:      9
 --------------------------

 CELL| Volume [angstrom^3]:                                           402.380970
 CELL| Vector a [angstrom]:       6.832     0.000     0.000   |a| =     6.831670
 CELL| Vector b [angstrom]:       0.000     6.588     0.000   |b| =     6.588421
 CELL| Vector c [angstrom]:      -0.000    -0.000     8.940   |c| =     8.939828
 CELL| Angle (b,c), alpha [degree]:                                    90.000000
 CELL| Angle (a,c), beta  [degree]:                                    90.000000
 CELL| Angle (a,b), gamma [degree]:                                    90.000000
 CELL| Numerically orthorhombic:                                              NO
 CELL| Periodicity                                                           XYZ

 Extrapolation method: ASPC

 Number of electrons:                                                        128
 Number of occupied orbitals:                                                 64
 Number of molecular orbitals:                                               112

 Number of orbital functions:                                                112
 Number of independent orbital functions:                                    112


 SCF WAVEFUNCTION OPTIMIZATION

  Step     Update method      Time    Convergence         Total energy    Change
  ------------------------------------------------------------------------------
     1 TBLite/Diag 0.40E+00    0.0     0.01630708       -71.8834842723 -7.19E+01
     2 TBLite/Diag 0.40E+00    0.0     0.00143896       -71.8834905023 -6.23E-06
     3 TBLite/Diag 0.40E+00    0.0     0.00144574       -71.8834854015  5.10E-06
     4 TBLite/Diag 0.40E+00    0.0     0.00132481       -71.8834926218 -7.22E-06
     5 TBLite/Diag 0.40E+00    0.0     0.00017379       -71.8834927964 -1.75E-07
     6 TBLite/Diag 0.40E+00    0.0     0.00002377       -71.8834927989 -2.55E-09
     7 TBLite/Diag 0.40E+00    0.0     0.00002063       -71.8834927997 -7.82E-10
     8 TBLite/Diag 0.40E+00    0.0     0.00000976       -71.8834928000 -2.98E-10
     9 TBLite/Diag 0.40E+00    0.0     0.00000462       -71.8834928001 -1.19E-10
    10 TBLite/Diag 0.40E+00    0.0     0.00000080       -71.8834928001 -3.01E-12
    11 TBLite/Diag 0.40E+00    0.0     0.00000030       -71.8834928001 -2.56E-13
    12 TBLite/Diag 0.40E+00    0.0     0.00000017       -71.8834928001  2.84E-14
    13 TBLite/Diag 0.40E+00    0.0     0.00000003       -71.8834928001  4.26E-14
    14 TBLite/Diag 0.40E+00    0.0     4.9245E-09       -71.8834928001 -7.11E-14
    15 TBLite/Diag 0.40E+00    0.0     1.4000E-09       -71.8834928001  1.71E-13
    16 TBLite/Diag 0.40E+00    0.0     1.5350E-10       -71.8834928001 -4.26E-14

  *** SCF run converged in    16 steps ***


  Core Hamiltonian energy:                                    -73.36371751963169
  Repulsive potential energy:                                   1.33467958695122
  Electrostatic energy:                                         0.23323761079366
  Self-consistent dispersion energy:                           -0.10832587519858
  Non-self consistent dispersion energy:                        0.02063339698238
  Correction for halogen bonding:                               0.00000000000000
  Electronic entropic energy:                                  -0.00000000000000
  Fermi energy:                                                -0.25281860383117

  Total energy:                                               -71.88349280010300
  Total energy (extrapolated to T->0):                        -71.88349280010300

 ENERGY| Total FORCE_EVAL ( QS ) energy [hartree]            -71.883492800102999

 OPT| **************************************************************************
 OPT| Step number                                                              9
 OPT| Optimization method                                                   BFGS
 OPT| Total energy [hartree]                                      -71.8834928001
 OPT| Internal pressure [bar]                                  -12778.5206894228
 OPT| Effective energy change [hartree]                            -0.0018025160
 OPT| Predicted energy change [hartree]                            -0.0012121700
 OPT| Scaling factor                                                0.0000000000
 OPT| Step size                                                     0.0742601741
 OPT| Trust radius                                                  0.4724315332
 OPT| Decrease in energy                                                     YES
 OPT| Used time [s]                                                        2.185
 OPT|
 OPT| Maximum step size                                             0.0742601741
 OPT| Convergence limit for maximum step size                       0.0030000000
 OPT| Maximum step size is converged                                          NO
 OPT|
 OPT| RMS step size                                                 0.0136554576
 OPT| Convergence limit for RMS step size                           0.0015000000
 OPT| RMS step size is converged                                              NO
 OPT|
 OPT| Maximum gradient                                              0.0130665722
 OPT| Convergence limit for maximum gradient                        0.0004500000
 OPT| Maximum gradient is converged                                           NO
 OPT|
 OPT| RMS gradient                                                  0.0031881223
 OPT| Convergence limit for RMS gradient                            0.0003000000
 OPT| RMS gradient is converged                                               NO
 OPT|
 OPT| Pressure deviation [bar]                                 -12778.5206894228
 OPT| Pressure tolerance [bar]                                    100.0000000000
 OPT| Pressure is converged                                                   NO
 OPT| **************************************************************************
 OPT| Estimated peak process memory after this step [MiB]                    169

 --------------------------
 OPTIMIZATION STEP:     10
 --------------------------

 CELL| Volume [angstrom^3]:                                           394.603031
 CELL| Vector a [angstrom]:       6.795     0.000     0.000   |a| =     6.795041
 CELL| Vector b [angstrom]:      -0.000     6.540     0.000   |b| =     6.539549
 CELL| Vector c [angstrom]:       0.000    -0.000     8.880   |c| =     8.880154
 CELL| Angle (b,c), alpha [degree]:                                    90.000002
 CELL| Angle (a,c), beta  [degree]:                                    90.000000
 CELL| Angle (a,b), gamma [degree]:                                    90.000000
 CELL| Numerically orthorhombic:                                              NO
 CELL| Periodicity                                                           XYZ

 Extrapolation method: ASPC

 Number of electrons:                                                        128
 Number of occupied orbitals:                                                 64
 Number of molecular orbitals:                                               112

 Number of orbital functions:                                                112
 Number of independent orbital functions:                                    112


 SCF WAVEFUNCTION OPTIMIZATION

  Step     Update method      Time    Convergence         Total energy    Change
  ------------------------------------------------------------------------------
     1 TBLite/Diag 0.40E+00    0.0     0.02510146       -71.8861310732 -7.19E+01
     2 TBLite/Diag 0.40E+00    0.0     0.00499985       -71.8861794882 -4.84E-05
     3 TBLite/Diag 0.40E+00    0.0     0.00424604       -71.8861625908  1.69E-05
     4 TBLite/Diag 0.40E+00    0.0     0.00316155       -71.8862010456 -3.85E-05
     5 TBLite/Diag 0.40E+00    0.0     0.00039096       -71.8862021863 -1.14E-06
     6 TBLite/Diag 0.40E+00    0.0     0.00011437       -71.8862021781  8.17E-09
     7 TBLite/Diag 0.40E+00    0.0     0.00008836       -71.8862022002 -2.21E-08
     8 TBLite/Diag 0.40E+00    0.0     0.00002874       -71.8862021989  1.29E-09
     9 TBLite/Diag 0.40E+00    0.0     0.00001894       -71.8862022014 -2.50E-09
    10 TBLite/Diag 0.40E+00    0.0     0.00000142       -71.8862022014 -8.41E-12
    11 TBLite/Diag 0.40E+00    0.0     0.00000054       -71.8862022014 -1.46E-12
    12 TBLite/Diag 0.40E+00    0.0     0.00000027       -71.8862022014 -4.12E-13
    13 TBLite/Diag 0.40E+00    0.0     0.00000010       -71.8862022014  1.71E-13
    14 TBLite/Diag 0.40E+00    0.0     0.00000003       -71.8862022014  0.00E+00
    15 TBLite/Diag 0.40E+00    0.0     3.8331E-09       -71.8862022014 -1.42E-14
    16 TBLite/Diag 0.40E+00    0.0     1.6872E-09       -71.8862022014 -7.11E-14
    17 TBLite/Diag 0.40E+00    0.0     1.7583E-10       -71.8862022014  4.26E-14

  *** SCF run converged in    17 steps ***


  Core Hamiltonian energy:                                    -73.32968344560989
  Repulsive potential energy:                                   1.30154294056792
  Electrostatic energy:                                         0.23107959352804
  Self-consistent dispersion energy:                           -0.11059652516092
  Non-self consistent dispersion energy:                        0.02145523529510
  Correction for halogen bonding:                               0.00000000000000
  Electronic entropic energy:                                  -0.00000000000000
  Fermi energy:                                                -0.25546505761901

  Total energy:                                               -71.88620220137975
  Total energy (extrapolated to T->0):                        -71.88620220137975

 ENERGY| Total FORCE_EVAL ( QS ) energy [hartree]            -71.886202201379746

 OPT| **************************************************************************
 OPT| Step number                                                             10
 OPT| Optimization method                                                   BFGS
 OPT| Total energy [hartree]                                      -71.8862022014
 OPT| Internal pressure [bar]                                  -21683.0825307124
 OPT| Effective energy change [hartree]                            -0.0027094013
 OPT| Predicted energy change [hartree]                            -0.0019720901
 OPT| Scaling factor                                                0.0000000000
 OPT| Step size                                                     0.1127674341
 OPT| Trust radius                                                  0.4724315332
 OPT| Decrease in energy                                                     YES
 OPT| Used time [s]                                                        2.224
 OPT|
 OPT| Maximum step size                                             0.1127674341
 OPT| Convergence limit for maximum step size                       0.0030000000
 OPT| Maximum step size is converged                                          NO
 OPT|
 OPT| RMS step size                                                 0.0219990848
 OPT| Convergence limit for RMS step size                           0.0015000000
 OPT| RMS step size is converged                                              NO
 OPT|
 OPT| Maximum gradient                                              0.0176156508
 OPT| Convergence limit for maximum gradient                        0.0004500000
 OPT| Maximum gradient is converged                                           NO
 OPT|
 OPT| RMS gradient                                                  0.0057881586
 OPT| Convergence limit for RMS gradient                            0.0003000000
 OPT| RMS gradient is converged                                               NO
 OPT|
 OPT| Pressure deviation [bar]                                 -21683.0825307124
 OPT| Pressure tolerance [bar]                                    100.0000000000
 OPT| Pressure is converged                                                   NO
 OPT| **************************************************************************
 OPT| Estimated peak process memory after this step [MiB]                    169

 --------------------------
 OPTIMIZATION STEP:     11
 --------------------------

 CELL| Volume [angstrom^3]:                                           383.287672
 CELL| Vector a [angstrom]:       6.738     0.000     0.000   |a| =     6.737688
 CELL| Vector b [angstrom]:       0.000     6.464     0.000   |b| =     6.463515
 CELL| Vector c [angstrom]:      -0.000    -0.000     8.801   |c| =     8.801267
 CELL| Angle (b,c), alpha [degree]:                                    90.000020
 CELL| Angle (a,c), beta  [degree]:                                    90.000000
 CELL| Angle (a,b), gamma [degree]:                                    90.000000
 CELL| Numerically orthorhombic:                                              NO
 CELL| Periodicity                                                           XYZ

 Extrapolation method: ASPC

 Number of electrons:                                                        128
 Number of occupied orbitals:                                                 64
 Number of molecular orbitals:                                               112

 Number of orbital functions:                                                112
 Number of independent orbital functions:                                    112


 SCF WAVEFUNCTION OPTIMIZATION

  Step     Update method      Time    Convergence         Total energy    Change
  ------------------------------------------------------------------------------
     1 TBLite/Diag 0.40E+00    0.0     0.03299518       -71.8889629056 -7.19E+01
     2 TBLite/Diag 0.40E+00    0.0     0.01053226       -71.8891599168 -1.97E-04
     3 TBLite/Diag 0.40E+00    0.0     0.00743169       -71.8891788944 -1.90E-05
     4 TBLite/Diag 0.40E+00    0.0     0.00471751       -71.8892576134 -7.87E-05
     5 TBLite/Diag 0.40E+00    0.0     0.00075565       -71.8892617626 -4.15E-06
     6 TBLite/Diag 0.40E+00    0.0     0.00025510       -71.8892616535  1.09E-07
     7 TBLite/Diag 0.40E+00    0.0     0.00019980       -71.8892618071 -1.54E-07
     8 TBLite/Diag 0.40E+00    0.0     0.00005960       -71.8892618084 -1.28E-09
     9 TBLite/Diag 0.40E+00    0.0     0.00003691       -71.8892618146 -6.25E-09
    10 TBLite/Diag 0.40E+00    0.0     0.00000307       -71.8892618147 -2.85E-11
    11 TBLite/Diag 0.40E+00    0.0     0.00000056       -71.8892618147 -3.55E-12
    12 TBLite/Diag 0.40E+00    0.0     0.00000024       -71.8892618147 -3.55E-13
    13 TBLite/Diag 0.40E+00    0.0     0.00000018       -71.8892618147 -2.56E-13
    14 TBLite/Diag 0.40E+00    0.0     0.00000010       -71.8892618147  1.85E-13
    15 TBLite/Diag 0.40E+00    0.0     0.00000001       -71.8892618147 -7.11E-14
    16 TBLite/Diag 0.40E+00    0.0     3.5314E-09       -71.8892618147  0.00E+00
    17 TBLite/Diag 0.40E+00    0.0     4.2245E-10       -71.8892618147  8.53E-14

  *** SCF run converged in    17 steps ***


  Core Hamiltonian energy:                                    -73.29980293032770
  Repulsive potential energy:                                   1.27380531523100
  Electrostatic energy:                                         0.22803254239444
  Self-consistent dispersion energy:                           -0.11404507755838
  Non-self consistent dispersion energy:                        0.02274833558127
  Correction for halogen bonding:                               0.00000000000000
  Electronic entropic energy:                                  -0.00000000000000
  Fermi energy:                                                -0.25844622472927

  Total energy:                                               -71.88926181467936
  Total energy (extrapolated to T->0):                        -71.88926181467936

 ENERGY| Total FORCE_EVAL ( QS ) energy [hartree]            -71.889261814679358

 OPT| **************************************************************************
 OPT| Step number                                                             11
 OPT| Optimization method                                                   BFGS
 OPT| Total energy [hartree]                                      -71.8892618147
 OPT| Internal pressure [bar]                                  -26567.2678935086
 OPT| Effective energy change [hartree]                            -0.0030596133
 OPT| Predicted energy change [hartree]                            -0.0028665191
 OPT| Scaling factor                                                0.0000000000
 OPT| Step size                                                     0.1490757022
 OPT| Trust radius                                                  0.4724315332
[...]
 OPT| Predicted energy change [hartree]                            -0.0000468999
 OPT| Scaling factor                                                0.9519464266
 OPT| Step size                                                     0.1677634020
 OPT| Trust radius                                                  0.4724315332
 OPT| Decrease in energy                                                      NO
 OPT| Used time [s]                                                        1.036
 OPT|
 OPT| Maximum step size                                             0.1677634020
 OPT| Convergence limit for maximum step size                       0.0030000000
 OPT| Maximum step size is converged                                          NO
 OPT|
 OPT| RMS step size                                                 0.0230672854
 OPT| Convergence limit for RMS step size                           0.0015000000
 OPT| RMS step size is converged                                              NO
 OPT|
 OPT| Maximum gradient                                              0.0031420383
 OPT| Convergence limit for maximum gradient                        0.0004500000
 OPT| Maximum gradient is converged                                           NO
 OPT|
 OPT| RMS gradient                                                  0.0009601234
 OPT| Convergence limit for RMS gradient                            0.0003000000
 OPT| RMS gradient is converged                                               NO
 OPT|
 OPT| Pressure deviation [bar]                                  -1891.2622380102
 OPT| Pressure tolerance [bar]                                    100.0000000000
 OPT| Pressure is converged                                                   NO
 OPT| **************************************************************************
 OPT| Estimated peak process memory after this step [MiB]                    169

 --------------------------
 OPTIMIZATION STEP:    200
 --------------------------

  Step is scaled; Scaling factor =  0.53456

 CELL| Volume [angstrom^3]:                                           410.077353
 CELL| Vector a [angstrom]:       6.741     0.000     0.000   |a| =     6.740875
 CELL| Vector b [angstrom]:       0.000     7.738     0.000   |b| =     7.737971
 CELL| Vector c [angstrom]:      -0.002    -0.008     7.862   |c| =     7.861812
 CELL| Angle (b,c), alpha [degree]:                                    90.055845
 CELL| Angle (a,c), beta  [degree]:                                    90.015546
 CELL| Angle (a,b), gamma [degree]:                                    89.999945
 CELL| Numerically orthorhombic:                                              NO
 CELL| Periodicity                                                           XYZ

 Extrapolation method: ASPC

 Number of electrons:                                                        128
 Number of occupied orbitals:                                                 64
 Number of molecular orbitals:                                               112

 Number of orbital functions:                                                112
 Number of independent orbital functions:                                    112


 SCF WAVEFUNCTION OPTIMIZATION

  Step     Update method      Time    Convergence         Total energy    Change
  ------------------------------------------------------------------------------
     1 TBLite/Diag 0.40E+00    0.0     0.12382226       -71.9095197960 -7.19E+01
     2 TBLite/Diag 0.40E+00    0.0     0.00325410       -71.9095905360 -7.07E-05
     3 TBLite/Diag 0.40E+00    0.0     0.00476477       -71.9095608486  2.97E-05
     4 TBLite/Diag 0.40E+00    0.0     0.00354192       -71.9096186600 -5.78E-05
     5 TBLite/Diag 0.40E+00    0.0     0.00040930       -71.9096192976 -6.38E-07
     6 TBLite/Diag 0.40E+00    0.0     0.00026996       -71.9096193077 -1.01E-08
     7 TBLite/Diag 0.40E+00    0.0     0.00015990       -71.9096193883 -8.06E-08
     8 TBLite/Diag 0.40E+00    0.0     0.00002372       -71.9096193875  8.24E-10
     9 TBLite/Diag 0.40E+00    0.0     0.00002142       -71.9096193892 -1.74E-09
    10 TBLite/Diag 0.40E+00    0.0     0.00000251       -71.9096193892 -2.81E-11
    11 TBLite/Diag 0.40E+00    0.0     0.00000067       -71.9096193892 -1.48E-12
    12 TBLite/Diag 0.40E+00    0.0     0.00000037       -71.9096193892 -1.85E-13
    13 TBLite/Diag 0.40E+00    0.0     0.00000021       -71.9096193892 -4.83E-13
    14 TBLite/Diag 0.40E+00    0.0     0.00000005       -71.9096193892 -1.42E-14
    15 TBLite/Diag 0.40E+00    0.0     0.00000002       -71.9096193892  4.26E-14
    16 TBLite/Diag 0.40E+00    0.0     0.00000001       -71.9096193892  5.68E-14
    17 TBLite/Diag 0.40E+00    0.0     2.5889E-09       -71.9096193892  1.28E-13
    18 TBLite/Diag 0.40E+00    0.0     1.3645E-09       -71.9096193892  0.00E+00
    19 TBLite/Diag 0.40E+00    0.0     6.1627E-10       -71.9096193892 -7.11E-14

  *** SCF run converged in    19 steps ***


  Core Hamiltonian energy:                                    -73.33458188215558
  Repulsive potential energy:                                   1.28846259671346
  Electrostatic energy:                                         0.22223767386962
  Self-consistent dispersion energy:                           -0.10561776864610
  Non-self consistent dispersion energy:                        0.01987999098016
  Correction for halogen bonding:                               0.00000000000000
  Electronic entropic energy:                                  -0.00000000000000
  Fermi energy:                                                -0.25394286160261

  Total energy:                                               -71.90961938923843
  Total energy (extrapolated to T->0):                        -71.90961938923843

 ENERGY| Total FORCE_EVAL ( QS ) energy [hartree]            -71.909619389238429

 OPT| **************************************************************************
 OPT| Step number                                                            200
 OPT| Optimization method                                                   BFGS
 OPT| Total energy [hartree]                                      -71.9096193892
 OPT| Internal pressure [bar]                                  -10802.9931158773
 OPT| Effective energy change [hartree]                             0.0008515749
 OPT| Predicted energy change [hartree]                            -0.0001894276
 OPT| Scaling factor                                                0.5345643820
 OPT| Step size                                                     0.4724315332
 OPT| Trust radius                                                  0.4724315332
 OPT| Decrease in energy                                                      NO
 OPT| Used time [s]                                                        1.025
 OPT|
 OPT| Maximum step size                                             0.4724315332
 OPT| Convergence limit for maximum step size                       0.0030000000
 OPT| Maximum step size is converged                                          NO
 OPT|
 OPT| RMS step size                                                 0.0663757055
 OPT| Convergence limit for RMS step size                           0.0015000000
 OPT| RMS step size is converged                                              NO
 OPT|
 OPT| Maximum gradient                                              0.0122520164
 OPT| Convergence limit for maximum gradient                        0.0004500000
 OPT| Maximum gradient is converged                                           NO
 OPT|
 OPT| RMS gradient                                                  0.0039371411
 OPT| Convergence limit for RMS gradient                            0.0003000000
 OPT| RMS gradient is converged                                               NO
 OPT|
 OPT| Pressure deviation [bar]                                 -10802.9931158773
 OPT| Pressure tolerance [bar]                                    100.0000000000
 OPT| Pressure is converged                                                   NO
 OPT| **************************************************************************
 OPT| Estimated peak process memory after this step [MiB]                    169

 *** MAXIMUM NUMBER OF OPTIMIZATION STEPS REACHED ***
 ***        EXITING GEOMETRY OPTIMIZATION         ***

 write_final_structure: Optimization not yet converged, writing XYZ file anyway:
  cyanamide_GFN2_gamma_cell_opt-FINAL-1_200.xyz

 write_final_structure: Optimization not yet converged, writing CIF file anyway:
  cyanamide_GFN2_gamma_cell_opt-FINAL-1_200.cif

 write_final_structure: Done!

 -------------------------------------------------------------------------------
 -                                                                             -
 -                                DBCSR STATISTICS                             -
 -                                                                             -
 -------------------------------------------------------------------------------
 COUNTER                                    TOTAL       BLAS       SMM       ACC
 flops     1 x    16 x     1              8110080       0.0%    100.0%      0.0%     
 flops     1 x    16 x     4             48660480       0.0%    100.0%      0.0%     
 flops     4 x    16 x     1             48660480       0.0%    100.0%      0.0%     
 flops     1 x    32 x     1             48660480       0.0%    100.0%      0.0%     
 flops     1 x     1 x   112            124110336       0.0%    100.0%      0.0%     
 flops     1 x    32 x     4            291962880       0.0%    100.0%      0.0%     
 flops     4 x    32 x     1            291962880       0.0%    100.0%      0.0%     
 flops     4 x    16 x     4            291962880       0.0%    100.0%      0.0%     
 flops     1 x     4 x   112            700858368       0.0%    100.0%      0.0%     
 flops     4 x     1 x   112            700858368       0.0%    100.0%      0.0%     
 flops     4 x    32 x     4           1751777280       0.0%    100.0%      0.0%     
 flops     4 x     4 x   112           4380364800       0.0%    100.0%      0.0%     
 flops inhomo. stacks                           0       0.0%      0.0%      0.0%
 flops total                         8.687949E+09       0.0%    100.0%      0.0%
 flops max/rank                      8.687949E+09       0.0%    100.0%      0.0%
 matmuls inhomo. stacks                         0       0.0%      0.0%      0.0%
 matmuls total                            9676680       0.0%    100.0%      0.0%
 number of processed stacks                 27186       0.0%    100.0%      0.0%
 average stack size                                     0.0     355.9       0.0
 marketing flops                     9.323102E+09
 -------------------------------------------------------------------------------
 # multiplications                           5064
 max memory usage/rank              13.676405E+09
 # max total images/rank                        1
 # max 3D layers                                1
 # MPI messages exchanged                       0
 -------------------------------------------------------------------------------
 -                                                                             -
 -                      DBCSR MESSAGE PASSING PERFORMANCE                      -
 -                                                                             -
 -------------------------------------------------------------------------------
 ROUTINE             CALLS      AVE VOLUME [Bytes]
 MP_Bcast               13                     12.
 MP_Allreduce        23383                      8.
 MP_Alltoall        174126                  69747.
 MP_ISend            20256                   6015.
 MP_IRecv            20256                   6015.
 -------------------------------------------------------------------------------

 -------------------------------------------------------------------------------
 -                                                                             -
 -                          OFFLOAD MEMPOOL STATISTICS                         -
 -                                                                             -
 -------------------------------------------------------------------------------
 Memory consumption                Number of allocations  Used [MiB]  Size [MiB]
 Device                                                2           0           0
 Host                                                  2           0           0
 -------------------------------------------------------------------------------

 MEMORY| Estimated peak process memory [MiB]                                 169

 -------------------------------------------------------------------------------
 -                                                                             -
 -                         MESSAGE PASSING PERFORMANCE                         -
 -                                                                             -
 -------------------------------------------------------------------------------

 ROUTINE             CALLS      AVE VOLUME [Bytes]
 MP_Group              201
 MP_Bcast             8147                    453.
 MP_Allreduce       122306                    302.
 MP_Sync              4274
 MP_comm_split        4073
 -------------------------------------------------------------------------------


 -------------------------------------------------------------------------------
 -                                                                             -
 -                           R E F E R E N C E S                               -
 -                                                                             -
 -------------------------------------------------------------------------------
 
 CP2K version 2026.1 (Development Version), the CP2K developers group (2026).
 CP2K is freely available from https://www.cp2k.org/ .
 
 M. Iannuzzi, J. Wilhelm, F. Stein, A. Bussy, H. Elgabarty, D. Golze, A. Hehn, 
 M. Graml, S. Marek, B. Sertcan Gökmen, C. Schran, H. Forbert, R. Z. 
 Khaliullin, A. Kozhevnikov, M. Taillefumier, R. Meli, V. V. Rybkin, M. Brehm, 
 R. Schade, O. Schütt, J. V. Pototschnig, H. Mirhosseini, A. Knüpfer, D. Marx, 
 M. Krack, J. Hutter, T. D. Kühne.
 J. Phys. Chem. B 130, 1237-1310 (2026).
 The CP2K Program Package Made Simple.
 https://doi.org/10.1021/acs.jpcb.5c05851

 A. Katbashev, M. Stahn, T. Rose, V. Alizadeh, M. Friede, C. Plett, P. 
 Steinbach, S. Ehlert.
 J. Phys. Chem. A 129, 2667-2682 (2025).
 Overview on Building Blocks and Applications of Efficient and Robust Extended 
 Tight Binding.
 https://doi.org/10.1021/acs.jpca.4c08263

 T. D. Kühne, M. Iannuzzi, M. Del Ben, V. V. Rybkin, P. Seewald, F. Stein, T. 
 Laino, R. Z. Khaliullin, O. Schütt, F. Schiffmann, D. Golze, J. Wilhelm, S. 
 Chulkov, M. H. Bani-Hashemian, V. Weber, U. Borstnik, M. Taillefumier, A. S. 
 Jakobovits, A. Lazzaro, H. Pabst, T. Müller, R. Schade, M. Guidon, S. 
 Andermatt, N. Holmberg, G. K. Schenter, A. Hehn, A. Bussy, F. Belleflamme, G. 
 Tabacchi, A. Glöß, M. Lass, I. Bethune, C. J. Mundy, C. Plessl, M. Watkins, 
 J. VandeVondele, M. Krack, J. Hutter.
 J. Chem. Phys. 152, 194103 (2020).
 CP2K: An electronic structure and molecular dynamics software package - 
 Quickstep: Efficient and accurate electronic structure calculations.
 https://doi.org/10.1063/5.0007045

 P. Pracht, E. Caldeweyher, S. Ehlert, S. Grimme.
 ChemRxiv, (2019).
 A Robust Non-Self-Consistent Tight-Binding Quantum Chemistry Method for large 
 Molecules.
 https://doi.org/10.26434/chemrxiv.8326202.v1

 S. Grimme, C. Bannwarth, P. Shushkov.
 J. Chem. Theory Comput. 13, 1989 (2017).
 A Robust and Accurate Tight-Binding Quantum Chemical Method for Structures, 
 Vibrational Frequencies, and Noncovalent Interactions of Large Molecular 
 Systems Parametrized for All spd-Block Elements (Z = 1-86).
 https://doi.org/10.1021/acs.jctc.7b00118

 O. Schuett, P. Messmer, J. Hutter, J. VandeVondele.
 Electronic Structure Calculations on Graphics Processing Units, 173-190 (2016).
 GPU-Accelerated Sparse Matrix-Matrix Multiplication for Linear Scaling Density 
 Functional Theory.
 https://doi.org/10.1002/9781118670712.ch8

 A. Heinecke, G. Henry, M. Hutchinson, H. Pabst.
 Proceedings of Intl. Supercomputing Conference, 981-991 (2016).
 LIBXSMM: Accelerating Small Matrix Multiplications by Runtime Code Generation.
 https://doi.org/10.1109/SC.2016.83

 U. Borstnik, J. VandeVondele, V. Weber, J. Hutter.
 Parallel Comput. 40, 47-58 (2014).
 Sparse matrix multiplication: The distributed block-compressed sparse row 
 library.
 https://doi.org/10.1016/j.parco.2014.03.012

 T. D. Kühne, M. Krack, F. R. Mohamed, M. Parrinello.
 Phys. Rev. Lett. 98, 066401 (2007).
 Efficient and accurate Car-Parrinello-like approach to Born-Oppenheimer 
 molecular dynamics.
 https://doi.org/10.1103/PhysRevLett.98.066401

 M. Frigo, S. G. Johnson.
 Proc. IEEE 93, 216-231 (2005).
 The design and implementation of FFTW3.
 https://doi.org/10.1109/JPROC.2004.840301

 J. Kolafa.
 J. Comput. Chem. 25, 335-342 (2004).
 Time-reversible always stable predictor-corrector method for molecular dynamics 
 of polarizable molecules.
 https://doi.org/10.1002/jcc.10385

 N. D. Mermin.
 Phys. Rev. 137, A1441-A1443 (1965).
 Thermal Properties of the Inhomogeneous Electron Gas.
 https://doi.org/10.1103/PhysRev.137.A1441


 -------------------------------------------------------------------------------
 -                                                                             -
 -                                T I M I N G                                  -
 -                                                                             -
 -------------------------------------------------------------------------------
 SUBROUTINE                       CALLS  ASD         SELF TIME        TOTAL TIME
                                MAXIMUM       AVERAGE  MAXIMUM  AVERAGE  MAXIMUM
 CP2K                                 1  1.0    0.002    0.002  266.982  266.982
 cp_cell_opt                          1  2.0    0.000    0.000  266.976  266.976
 geoopt_bfgs                          1  3.0    0.021    0.021  266.976  266.976
 cp_eval_at                         201  4.0    0.020    0.020  266.517  266.517
 qs_forces                          201  5.0    0.011    0.011  266.493  266.493
 build_tblite_matrices              402  7.0  207.366  207.366  212.461  212.461
 qs_energies                        201  6.0    0.005    0.005   85.634   85.634
 qs_energies_init_hamiltonians      201  7.0    0.001    0.001   60.972   60.972
 rebuild_ks_matrix                 3874  9.8    0.003    0.003   35.597   35.597
 build_tblite_ks_matrix            3874 10.8   35.515   35.515   35.593   35.593
 qs_ks_update_qs_env_forces         201  6.0    0.001    0.001   29.073   29.073
 scf_env_do_scf                     201  7.0    0.003    0.003   22.689   22.689
 scf_env_do_scf_inner_loop         3673  8.0    3.315    3.315   22.673   22.673
 qs_scf_new_mos                    3673  9.0    0.015    0.015   12.008   12.008
 qs_ks_update_qs_env               3673  9.0    0.006    0.006    6.751    6.751
 -------------------------------------------------------------------------------

 The number of warnings for this run is : 0
 
 -------------------------------------------------------------------------------
  **** **** ******  **  PROGRAM ENDED AT                 2026-05-23 22:51:51.954
 ***** ** ***  *** **   PROGRAM RAN ON                                spark-c86c
 **    ****   ******    PROGRAM RAN BY                                  kuehne88
 ***** **    ** ** **   PROGRAM PROCESS ID                               2268824
  **** **  *******  **  PROGRAM STOPPED IN /home/kuehne88/periodic-gfn2-benchmar
                                           ks/X23b/runs/cellopt_gamma/GFN2/cyana
                                           mide_GFN2_gamma_cellopt
