 DBCSR| CPU Multiplication driver                                           XSMM (U)
 DBCSR| Multrec recursion limit                                              512 (U)
 DBCSR| Multiplication stack size                                           1000 (D)
 DBCSR| Maximum elements for images                                    UNLIMITED (U)
 DBCSR| Multiplicative factor virtual images                                   1 (U)
 DBCSR| Use multiplication densification                                       T (D)
 DBCSR| Multiplication size stacks                                             3 (U)
 DBCSR| Use memory pool for CPU allocation                                     F (U)
 DBCSR| Number of 3D layers                                               SINGLE (U)
 DBCSR| Use MPI memory allocation                                              F (U)
 DBCSR| Use RMA algorithm                                                      F (U)
 DBCSR| Use Communication thread                                               T (U)
 DBCSR| Communication thread load                                             87 (D)
 DBCSR| MPI: My process id                                                     0
 DBCSR| MPI: Number of processes                                               1
 DBCSR| OMP: Current number of threads                                         1
 DBCSR| OMP: Max number of threads                                             1
 DBCSR| Split modifier for TAS multiplication algorithm                  1.0E+00 (U)


  **** **** ******  **  PROGRAM STARTED AT               2026-05-23 23:10:48.845
 ***** ** ***  *** **   PROGRAM STARTED ON                            spark-c86c
 **    ****   ******    PROGRAM STARTED BY                              kuehne88
 ***** **    ** ** **   PROGRAM PROCESS ID                               2279104
  **** **  *******  **  PROGRAM STARTED IN /home/kuehne88/periodic-gfn2-benchmar
                                           ks/X23b/runs/cellopt_gamma/GFN1/hexam
                                           ine_GFN1_gamma_cellopt

 CP2K| version string:                 CP2K version 2026.1 (Development Version)
 CP2K| source code revision number:                                   0622d442e4
 CP2K| cp2kflags: omp fftw3 libxc parallel scalapack mpi_f08 xsmm spglib libdftd
 CP2K|            4 dftd4_v3 mctc-lib tblite
 CP2K| is freely available from                            https://www.cp2k.org/
 CP2K| Program compiled at                                   2026-05-23 22:05:08
 CP2K| Program compiled on                                            spark-c86c
 CP2K| Program compiled for                                              aarch64
 CP2K| Data directory path    /home/kuehne88/cp2k-master-tblite-20260523/install
 CP2K| Input file name                           hexamine_GFN1_gamma_cellopt.inp

 GLOBAL| Force Environment number                                              1
 GLOBAL| Basis set file name                                           BASIS_SET
 GLOBAL| Potential file name                                           POTENTIAL
 GLOBAL| MM Potential file name                                     MM_POTENTIAL
 GLOBAL| Coordinate file name                                      __STD_INPUT__
 GLOBAL| Method name                                                        CP2K
 GLOBAL| Project name                               hexamine_GFN1_gamma_cell_opt
 GLOBAL| Run type                                                       CELL_OPT
 GLOBAL| FFT library                                                       FFTW3
 GLOBAL| Diagonalization library                                       ScaLAPACK
 GLOBAL| Cholesky decomposition library                                ScaLAPACK
 GLOBAL| DGEMM library                                                      BLAS
 GLOBAL| Direct generalized diagonalization requested                          F
 GLOBAL| Orthonormality check for eigenvectors                          DISABLED
 GLOBAL| Matrix multiplication library                                 ScaLAPACK
 GLOBAL| All-to-all communication in single precision                          F
 GLOBAL| FFTs using library dependent lengths                                  F
 GLOBAL| Grid backend                                                       AUTO
 GLOBAL| Global print level                                                  LOW
 GLOBAL| MPI I/O enabled                                                       T
 GLOBAL| Total number of message passing processes                             1
 GLOBAL| Number of distributed systems (nodes)                                 1
 GLOBAL| Number of threads for this process                                    1
 GLOBAL| This output is from process                                           0
 GLOBAL| OpenMP stack size per thread (OMP_STACKSIZE)                    default
 GLOBAL| CPU model name                                                  UNKNOWN
 GLOBAL| CPUID                                                              2200
 GLOBAL| Compiled for CPUID                                                 2000

 *** HINT in environment.F:970 :: The compiler target flags (arm_arch64)   ***
 *** used to build this binary cannot exploit all extensions of this CPU   ***
 *** model (arm_sve256). Consider compiler target flags as part of FCFLAGS ***
 *** and CFLAGS (ARCH file).                                               ***


 MEMORY| system memory details [Kb]
 MEMORY|                        rank 0           min           max       average
 MEMORY| MemTotal            125508532     125508532     125508532     125508532
 MEMORY| MemFree             105817788     105817788     105817788     105817788
 MEMORY| Buffers                870780        870780        870780        870780
 MEMORY| Cached               14105124      14105124      14105124      14105124
 MEMORY| Slab                  1600016       1600016       1600016       1600016
 MEMORY| SReclaimable           925820        925820        925820        925820
 MEMORY| MemLikelyFree       121719512     121719512     121719512     121719512


 *** WARNING in cell_methods.F:457 :: Cell vectors are read but cell   ***
 *** matrix is not a lower triangle, not conforming to the program     ***
 *** convention that A lies along the X-axis and B is in the XY plane. ***


 GENERATE|  Preliminary Number of Bonds generated:                             0
 GENERATE|  Achieved consistency in connectivity generation.


                  #####   #####        #     #   #     #       #          
                 #     # #     #      #    ##### #     #   # #####  ####  
                 #     # #           #       #   ###   #       #   #    # 
                 #     #  #####     #        #   #  #  #   #   #   ###### 
                 #   # #       #   #         #   #   # #   #   #   #      
                 #    #  #     #  #          #   #  #  # # #   #    #   # 
                  #### #  #####  #           #   ###   ##  #   #     ###  

                                   GFN1-xTB  
                                 Version 0.0                       
                            Johann V. Pototschnig                  



 TOTAL NUMBERS AND MAXIMUM NUMBERS

  Total number of            - Atomic kinds:                                   3
                             - Atoms:                                         22
                             - Shell sets:                                    44
                             - Shells:                                        44
                             - Primitive Cartesian functions:                252
                             - Cartesian basis functions:                     64
                             - Spherical basis functions:                     64

  Maximum angular momentum of the orbital basis functions:                     1


 SCF PARAMETERS         Density guess:                                     MOPAC
                        --------------------------------------------------------
                        max_scf:                                             300
                        max_scf_history:                                       0
                        max_diis:                                              4
                        --------------------------------------------------------
                        eps_scf:                                        1.00E-09
                        eps_scf_history:                                0.00E+00
                        eps_diis:                                       1.00E-01
                        eps_eigval:                                     1.00E-05
                        --------------------------------------------------------
                        level_shift [a.u.]:                             0.000000
                        added MOs                                        36    0
                        --------------------------------------------------------
                        Mixing method:                           DIRECT_P_MIXING
                        --------------------------------------------------------
                        Smear method:                                FERMI_DIRAC
                        Electronic temperature [K]:                        300.0
                        Electronic temperature [a.u.]:                  9.50E-04
                        Accuracy threshold:                             1.00E-06
                        --------------------------------------------------------
                        No outer SCF

 CELL_OPT| Pressure tolerance [bar]:                                       100.0
 CELL_OPT| Keep volume of cell:                                               NO
 CELL_OPT| Keep angles between the cell vectors:                              NO
 CELL_OPT| Keep cell symmetry:                                                NO
 CELL_OPT| Constraint:                                                      NONE

 BFGS| Use rational function optimization for step estimation:                NO
 BFGS| Use model Hessian for initial guess:                                   NO
 BFGS| Restart Hessian:                                                       NO
 BFGS| Trust radius:                                                       0.472

 *******************************************************************************
 ***                     STARTING   CELL   OPTIMIZATION                      ***
 ***                                   BFGS                                  ***
 *******************************************************************************

 CELL| Volume [angstrom^3]:                                           165.351022
 CELL| Vector a [angstrom]:       5.989    -0.000    -0.000   |a| =     5.988828
 CELL| Vector b [angstrom]:      -1.996     5.646    -0.000   |b| =     5.988835
 CELL| Vector c [angstrom]:      -1.996    -2.823     4.890   |c| =     5.988837
 CELL| Angle (b,c), alpha [degree]:                                   109.471140
 CELL| Angle (a,c), beta  [degree]:                                   109.471090
 CELL| Angle (a,b), gamma [degree]:                                   109.471040
 CELL| Numerically orthorhombic:                                              NO
 CELL| Periodicity                                                           XYZ

 Extrapolation method: initial_guess

 Number of electrons:                                                         56
 Number of occupied orbitals:                                                 28
 Number of molecular orbitals:                                                64

 Number of orbital functions:                                                 64
 Number of independent orbital functions:                                     64


 SCF WAVEFUNCTION OPTIMIZATION

  Step     Update method      Time    Convergence         Total energy    Change
  ------------------------------------------------------------------------------
     1 TBLite/Diag 0.40E+00    0.0     1.43836299       -31.7896960044 -3.18E+01
     2 TBLite/Diag 0.40E+00    0.0     0.14593725       -31.9516706882 -1.62E-01
     3 TBLite/Diag 0.40E+00    0.0     0.03580897       -31.9536642695 -1.99E-03
     4 TBLite/Diag 0.40E+00    0.0     0.01478540       -31.9546929172 -1.03E-03
     5 TBLite/Diag 0.40E+00    0.0     0.00331579       -31.9547238818 -3.10E-05
     6 TBLite/Diag 0.40E+00    0.0     0.00125428       -31.9547364593 -1.26E-05
     7 TBLite/Diag 0.40E+00    0.0     0.00002820       -31.9547364661 -6.75E-09
     8 TBLite/Diag 0.40E+00    0.0     0.00000060       -31.9547364661 -3.67E-12
     9 TBLite/Diag 0.40E+00    0.0     0.00000014       -31.9547364661 -1.92E-13
    10 TBLite/Diag 0.40E+00    0.0     1.3167E-09       -31.9547364661  1.07E-14
    11 TBLite/Diag 0.40E+00    0.0     1.0777E-10       -31.9547364661 -3.55E-15

  *** SCF run converged in    11 steps ***


  Core Hamiltonian energy:                                    -32.26716256842764
  Repulsive potential energy:                                   0.28893890109444
  Electrostatic energy:                                         0.06116865557550
  Self-consistent dispersion energy:                            0.00000000000000
  Non-self consistent dispersion energy:                       -0.03768145432933
  Correction for halogen bonding:                               0.00000000000000
  Electronic entropic energy:                                  -0.00000000000000
  Fermi energy:                                                -0.18805982794536

  Total energy:                                               -31.95473646608704
  Total energy (extrapolated to T->0):                        -31.95473646608704

 ENERGY| Total FORCE_EVAL ( QS ) energy [hartree]            -31.954736466087041

 OPT| **************************************************************************
 OPT| Step number                                                              0
 OPT| Optimization method                                                   BFGS
 OPT| Total energy [hartree]                                      -31.9547364661
 OPT| Internal pressure [bar]                                  -25854.5108621773
 OPT| Used time [s]                                                        0.147
 OPT| **************************************************************************
 OPT| Estimated peak process memory [MiB]                                    166

 --------------------------
 OPTIMIZATION STEP:      1
 --------------------------

 CELL| Volume [angstrom^3]:                                           164.892313
 CELL| Vector a [angstrom]:       5.984    -0.000    -0.000   |a| =     5.984244
 CELL| Vector b [angstrom]:      -1.996     5.641    -0.000   |b| =     5.984249
 CELL| Vector c [angstrom]:      -1.996    -2.823     4.884   |c| =     5.984252
 CELL| Angle (b,c), alpha [degree]:                                   109.478913
 CELL| Angle (a,c), beta  [degree]:                                   109.486654
 CELL| Angle (a,b), gamma [degree]:                                   109.486606
 CELL| Numerically orthorhombic:                                              NO
 CELL| Periodicity                                                           XYZ

 Extrapolation method: ASPC

 Number of electrons:                                                         56
 Number of occupied orbitals:                                                 28
 Number of molecular orbitals:                                                64

 Number of orbital functions:                                                 64
 Number of independent orbital functions:                                     64


 SCF WAVEFUNCTION OPTIMIZATION

  Step     Update method      Time    Convergence         Total energy    Change
  ------------------------------------------------------------------------------
     1 TBLite/Diag 0.40E+00    0.0     0.01329378       -31.9556356673 -3.20E+01
     2 TBLite/Diag 0.40E+00    0.0     0.00073036       -31.9556389687 -3.30E-06
     3 TBLite/Diag 0.40E+00    0.0     0.00008715       -31.9556389847 -1.61E-08
     4 TBLite/Diag 0.40E+00    0.0     0.00002609       -31.9556389898 -5.08E-09
     5 TBLite/Diag 0.40E+00    0.0     0.00000667       -31.9556389901 -2.48E-10
     6 TBLite/Diag 0.40E+00    0.0     0.00000044       -31.9556389901 -4.41E-13
     7 TBLite/Diag 0.40E+00    0.0     0.00000017       -31.9556389901 -7.82E-14
     8 TBLite/Diag 0.40E+00    0.0     9.6090E-09       -31.9556389901  1.42E-14
     9 TBLite/Diag 0.40E+00    0.0     8.6122E-10       -31.9556389901 -3.55E-15

  *** SCF run converged in     9 steps ***


  Core Hamiltonian energy:                                    -32.27546632230076
  Repulsive potential energy:                                   0.29596148282077
  Electrostatic energy:                                         0.06164574446038
  Self-consistent dispersion energy:                            0.00000000000000
  Non-self consistent dispersion energy:                       -0.03777989504648
  Correction for halogen bonding:                               0.00000000000000
  Electronic entropic energy:                                  -0.00000000000000
  Fermi energy:                                                -0.18776183364200

  Total energy:                                               -31.95563899006609
  Total energy (extrapolated to T->0):                        -31.95563899006609

 ENERGY| Total FORCE_EVAL ( QS ) energy [hartree]            -31.955638990066088

 OPT| **************************************************************************
 OPT| Step number                                                              1
 OPT| Optimization method                                                   BFGS
 OPT| Total energy [hartree]                                      -31.9556389901
 OPT| Internal pressure [bar]                                  -15345.4788815576
 OPT| Effective energy change [hartree]                            -0.0009025240
 OPT| Predicted energy change [hartree]                            -0.0005969590
 OPT| Scaling factor                                                0.0000000000
 OPT| Step size                                                     0.0144116298
 OPT| Trust radius                                                  0.4724315332
 OPT| Decrease in energy                                                     YES
 OPT| Used time [s]                                                        0.137
 OPT|
 OPT| Maximum step size                                             0.0144116298
 OPT| Convergence limit for maximum step size                       0.0030000000
 OPT| Maximum step size is converged                                          NO
 OPT|
 OPT| RMS step size                                                 0.0040721240
 OPT| Convergence limit for RMS step size                           0.0015000000
 OPT| RMS step size is converged                                              NO
 OPT|
 OPT| Maximum gradient                                              0.0076053953
 OPT| Convergence limit for maximum gradient                        0.0004500000
 OPT| Maximum gradient is converged                                           NO
 OPT|
 OPT| RMS gradient                                                  0.0021410233
 OPT| Convergence limit for RMS gradient                            0.0003000000
 OPT| RMS gradient is converged                                               NO
 OPT|
 OPT| Pressure deviation [bar]                                 -15345.4788815576
 OPT| Pressure tolerance [bar]                                    100.0000000000
 OPT| Pressure is converged                                                   NO
 OPT| **************************************************************************
 OPT| Estimated peak process memory after this step [MiB]                    167

 --------------------------
 OPTIMIZATION STEP:      2
 --------------------------

 CELL| Volume [angstrom^3]:                                           164.324086
 CELL| Vector a [angstrom]:       5.978    -0.000    -0.000   |a| =     5.978418
 CELL| Vector b [angstrom]:      -1.996     5.635    -0.000   |b| =     5.978389
 CELL| Vector c [angstrom]:      -1.996    -2.823     4.877   |c| =     5.978393
 CELL| Angle (b,c), alpha [degree]:                                   109.487815
 CELL| Angle (a,c), beta  [degree]:                                   109.503160
 CELL| Angle (a,b), gamma [degree]:                                   109.503114
 CELL| Numerically orthorhombic:                                              NO
 CELL| Periodicity                                                           XYZ

 Extrapolation method: ASPC

 Number of electrons:                                                         56
 Number of occupied orbitals:                                                 28
 Number of molecular orbitals:                                                64

 Number of orbital functions:                                                 64
 Number of independent orbital functions:                                     64


 SCF WAVEFUNCTION OPTIMIZATION

  Step     Update method      Time    Convergence         Total energy    Change
  ------------------------------------------------------------------------------
     1 TBLite/Diag 0.40E+00    0.0     0.01622386       -31.9559998210 -3.20E+01
     2 TBLite/Diag 0.40E+00    0.0     0.00070079       -31.9560044319 -4.61E-06
     3 TBLite/Diag 0.40E+00    0.0     0.00007766       -31.9560044440 -1.22E-08
     4 TBLite/Diag 0.40E+00    0.0     0.00002745       -31.9560044502 -6.16E-09
     5 TBLite/Diag 0.40E+00    0.0     0.00000129       -31.9560044502 -1.25E-11
     6 TBLite/Diag 0.40E+00    0.0     0.00000011       -31.9560044502 -8.17E-14
     7 TBLite/Diag 0.40E+00    0.0     0.00000006       -31.9560044502 -1.07E-14
     8 TBLite/Diag 0.40E+00    0.0     5.2177E-09       -31.9560044502  7.11E-15
     9 TBLite/Diag 0.40E+00    0.0     4.4311E-10       -31.9560044502 -7.11E-15

  *** SCF run converged in     9 steps ***


  Core Hamiltonian energy:                                    -32.28303309855598
  Repulsive potential energy:                                   0.30287255588978
  Electrostatic energy:                                         0.06205736975855
  Self-consistent dispersion energy:                            0.00000000000000
  Non-self consistent dispersion energy:                       -0.03790127729141
  Correction for halogen bonding:                               0.00000000000000
  Electronic entropic energy:                                  -0.00000000000000
  Fermi energy:                                                -0.18770411653703

  Total energy:                                               -31.95600445019906
  Total energy (extrapolated to T->0):                        -31.95600445019906

 ENERGY| Total FORCE_EVAL ( QS ) energy [hartree]            -31.956004450199060

 OPT| **************************************************************************
 OPT| Step number                                                              2
 OPT| Optimization method                                                   BFGS
 OPT| Total energy [hartree]                                      -31.9560044502
 OPT| Internal pressure [bar]                                   -2969.8058970377
 OPT| Effective energy change [hartree]                            -0.0003654601
 OPT| Predicted energy change [hartree]                            -0.0003571003
 OPT| Scaling factor                                                0.0000000000
 OPT| Step size                                                     0.0164807887
 OPT| Trust radius                                                  0.4724315332
 OPT| Decrease in energy                                                     YES
 OPT| Used time [s]                                                        0.138
 OPT|
 OPT| Maximum step size                                             0.0164807887
 OPT| Convergence limit for maximum step size                       0.0030000000
 OPT| Maximum step size is converged                                          NO
 OPT|
 OPT| RMS step size                                                 0.0046334641
 OPT| Convergence limit for RMS step size                           0.0015000000
 OPT| RMS step size is converged                                              NO
 OPT|
 OPT| Maximum gradient                                              0.0009599501
 OPT| Convergence limit for maximum gradient                        0.0004500000
 OPT| Maximum gradient is converged                                           NO
 OPT|
 OPT| RMS gradient                                                  0.0004261577
 OPT| Convergence limit for RMS gradient                            0.0003000000
 OPT| RMS gradient is converged                                               NO
 OPT|
 OPT| Pressure deviation [bar]                                  -2969.8058970377
 OPT| Pressure tolerance [bar]                                    100.0000000000
 OPT| Pressure is converged                                                   NO
 OPT| **************************************************************************
 OPT| Estimated peak process memory after this step [MiB]                    167

 --------------------------
 OPTIMIZATION STEP:      3
 --------------------------

 CELL| Volume [angstrom^3]:                                           164.267894
 CELL| Vector a [angstrom]:       5.978    -0.000    -0.000   |a| =     5.977748
 CELL| Vector b [angstrom]:      -1.996     5.635    -0.000   |b| =     5.977694
 CELL| Vector c [angstrom]:      -1.996    -2.822     4.877   |c| =     5.977697
 CELL| Angle (b,c), alpha [degree]:                                   109.488241
 CELL| Angle (a,c), beta  [degree]:                                   109.502827
 CELL| Angle (a,b), gamma [degree]:                                   109.502781
 CELL| Numerically orthorhombic:                                              NO
 CELL| Periodicity                                                           XYZ

 Extrapolation method: ASPC

 Number of electrons:                                                         56
 Number of occupied orbitals:                                                 28
 Number of molecular orbitals:                                                64

 Number of orbital functions:                                                 64
 Number of independent orbital functions:                                     64


 SCF WAVEFUNCTION OPTIMIZATION

  Step     Update method      Time    Convergence         Total energy    Change
  ------------------------------------------------------------------------------
     1 TBLite/Diag 0.40E+00    0.0     0.00090724       -31.9560143235 -3.20E+01
     2 TBLite/Diag 0.40E+00    0.0     0.00007567       -31.9560143673 -4.37E-08
     3 TBLite/Diag 0.40E+00    0.0     0.00001552       -31.9560143683 -1.02E-09
     4 TBLite/Diag 0.40E+00    0.0     0.00000220       -31.9560143683  5.74E-12
     5 TBLite/Diag 0.40E+00    0.0     0.00000165       -31.9560143683 -1.38E-11
     6 TBLite/Diag 0.40E+00    0.0     0.00000019       -31.9560143683 -1.21E-13
     7 TBLite/Diag 0.40E+00    0.0     0.00000006       -31.9560143683  2.49E-14
     8 TBLite/Diag 0.40E+00    0.0     7.5270E-09       -31.9560143683 -7.11E-15
     9 TBLite/Diag 0.40E+00    0.0     1.7459E-10       -31.9560143683 -1.78E-14

  *** SCF run converged in     9 steps ***


  Core Hamiltonian energy:                                    -32.28284437518369
  Repulsive potential energy:                                   0.30272390621263
  Electrostatic energy:                                         0.06201971906150
  Self-consistent dispersion energy:                            0.00000000000000
  Non-self consistent dispersion energy:                       -0.03791361840298
  Correction for halogen bonding:                               0.00000000000000
  Electronic entropic energy:                                  -0.00000000000000
  Fermi energy:                                                -0.18775991333462

  Total energy:                                               -31.95601436831255
  Total energy (extrapolated to T->0):                        -31.95601436831255

 ENERGY| Total FORCE_EVAL ( QS ) energy [hartree]            -31.956014368312548

 OPT| **************************************************************************
 OPT| Step number                                                              3
 OPT| Optimization method                                                   BFGS
 OPT| Total energy [hartree]                                      -31.9560143683
 OPT| Internal pressure [bar]                                   -2464.1029226648
 OPT| Effective energy change [hartree]                            -0.0000099181
 OPT| Predicted energy change [hartree]                            -0.0000065501
 OPT| Scaling factor                                                0.0000000000
 OPT| Step size                                                     0.0012673637
 OPT| Trust radius                                                  0.4724315332
 OPT| Decrease in energy                                                     YES
 OPT| Used time [s]                                                        0.138
 OPT|
 OPT| Maximum step size                                             0.0012673637
 OPT| Convergence limit for maximum step size                       0.0030000000
 OPT| Maximum step size is converged                                         YES
 OPT|
 OPT| RMS step size                                                 0.0004465776
 OPT| Convergence limit for RMS step size                           0.0015000000
 OPT| RMS step size is converged                                             YES
 OPT|
 OPT| Maximum gradient                                              0.0007984596
 OPT| Convergence limit for maximum gradient                        0.0004500000
 OPT| Maximum gradient is converged                                           NO
 OPT|
 OPT| RMS gradient                                                  0.0002575043
 OPT| Convergence limit for RMS gradient                            0.0003000000
 OPT| RMS gradient is converged                                              YES
 OPT|
 OPT| Pressure deviation [bar]                                  -2464.1029226648
 OPT| Pressure tolerance [bar]                                    100.0000000000
 OPT| Pressure is converged                                                   NO
 OPT| **************************************************************************
 OPT| Estimated peak process memory after this step [MiB]                    167

 --------------------------
 OPTIMIZATION STEP:      4
 --------------------------

 CELL| Volume [angstrom^3]:                                           164.168181
 CELL| Vector a [angstrom]:       5.977    -0.000    -0.000   |a| =     5.976525
 CELL| Vector b [angstrom]:      -1.995     5.634    -0.000   |b| =     5.976423
 CELL| Vector c [angstrom]:      -1.995    -2.822     4.876   |c| =     5.976426
 CELL| Angle (b,c), alpha [degree]:                                   109.488866
 CELL| Angle (a,c), beta  [degree]:                                   109.501597
 CELL| Angle (a,b), gamma [degree]:                                   109.501551
 CELL| Numerically orthorhombic:                                              NO
 CELL| Periodicity                                                           XYZ

 Extrapolation method: ASPC

 Number of electrons:                                                         56
 Number of occupied orbitals:                                                 28
 Number of molecular orbitals:                                                64

 Number of orbital functions:                                                 64
 Number of independent orbital functions:                                     64


 SCF WAVEFUNCTION OPTIMIZATION

  Step     Update method      Time    Convergence         Total energy    Change
  ------------------------------------------------------------------------------
     1 TBLite/Diag 0.40E+00    0.0     0.00068607       -31.9560225744 -3.20E+01
     2 TBLite/Diag 0.40E+00    0.0     0.00007669       -31.9560226120 -3.76E-08
     3 TBLite/Diag 0.40E+00    0.0     0.00001363       -31.9560226130 -1.01E-09
     4 TBLite/Diag 0.40E+00    0.0     0.00000323       -31.9560226130  4.19E-12
     5 TBLite/Diag 0.40E+00    0.0     0.00000139       -31.9560226130 -9.70E-12
     6 TBLite/Diag 0.40E+00    0.0     0.00000021       -31.9560226130 -8.88E-14
     7 TBLite/Diag 0.40E+00    0.0     0.00000005       -31.9560226130 -3.20E-14
     8 TBLite/Diag 0.40E+00    0.0     8.3715E-09       -31.9560226130  1.78E-14
     9 TBLite/Diag 0.40E+00    0.0     2.6703E-10       -31.9560226130 -2.84E-14

  *** SCF run converged in     9 steps ***


  Core Hamiltonian energy:                                    -32.28262955179630
  Repulsive potential energy:                                   0.30257868798999
  Electrostatic energy:                                         0.06196501265806
  Self-consistent dispersion energy:                            0.00000000000000
  Non-self consistent dispersion energy:                       -0.03793676183506
  Correction for halogen bonding:                               0.00000000000000
  Electronic entropic energy:                                  -0.00000000000000
  Fermi energy:                                                -0.18776176721063

  Total energy:                                               -31.95602261298331
  Total energy (extrapolated to T->0):                        -31.95602261298331

 ENERGY| Total FORCE_EVAL ( QS ) energy [hartree]            -31.956022612983308

 OPT| **************************************************************************
 OPT| Step number                                                              4
 OPT| Optimization method                                                   BFGS
 OPT| Total energy [hartree]                                      -31.9560226130
 OPT| Internal pressure [bar]                                   -1911.6435717757
 OPT| Effective energy change [hartree]                            -0.0000082447
 OPT| Predicted energy change [hartree]                            -0.0000060987
 OPT| Scaling factor                                                0.0000000000
 OPT| Step size                                                     0.0023111956
 OPT| Trust radius                                                  0.4724315332
 OPT| Decrease in energy                                                     YES
 OPT| Used time [s]                                                        0.139
 OPT|
 OPT| Maximum step size                                             0.0023111956
 OPT| Convergence limit for maximum step size                       0.0030000000
 OPT| Maximum step size is converged                                         YES
 OPT|
 OPT| RMS step size                                                 0.0006767763
 OPT| Convergence limit for RMS step size                           0.0015000000
 OPT| RMS step size is converged                                             YES
 OPT|
 OPT| Maximum gradient                                              0.0006281013
 OPT| Convergence limit for maximum gradient                        0.0004500000
 OPT| Maximum gradient is converged                                           NO
 OPT|
 OPT| RMS gradient                                                  0.0002346065
 OPT| Convergence limit for RMS gradient                            0.0003000000
 OPT| RMS gradient is converged                                              YES
 OPT|
 OPT| Pressure deviation [bar]                                  -1911.6435717757
 OPT| Pressure tolerance [bar]                                    100.0000000000
 OPT| Pressure is converged                                                   NO
 OPT| **************************************************************************
 OPT| Estimated peak process memory after this step [MiB]                    167

 --------------------------
 OPTIMIZATION STEP:      5
 --------------------------

 CELL| Volume [angstrom^3]:                                           164.054256
 CELL| Vector a [angstrom]:       5.975    -0.000    -0.000   |a| =     5.975128
 CELL| Vector b [angstrom]:      -1.995     5.632    -0.000   |b| =     5.974980
 CELL| Vector c [angstrom]:      -1.995    -2.821     4.875   |c| =     5.974982
 CELL| Angle (b,c), alpha [degree]:                                   109.489600
 CELL| Angle (a,c), beta  [degree]:                                   109.500321
 CELL| Angle (a,b), gamma [degree]:                                   109.500274
 CELL| Numerically orthorhombic:                                              NO
 CELL| Periodicity                                                           XYZ

 Extrapolation method: ASPC

 Number of electrons:                                                         56
 Number of occupied orbitals:                                                 28
 Number of molecular orbitals:                                                64

 Number of orbital functions:                                                 64
 Number of independent orbital functions:                                     64


 SCF WAVEFUNCTION OPTIMIZATION

  Step     Update method      Time    Convergence         Total energy    Change
  ------------------------------------------------------------------------------
     1 TBLite/Diag 0.40E+00    0.0     0.00057898       -31.9560292553 -3.20E+01
     2 TBLite/Diag 0.40E+00    0.0     0.00007210       -31.9560292655 -1.02E-08
     3 TBLite/Diag 0.40E+00    0.0     0.00000525       -31.9560292656 -1.27E-10
     4 TBLite/Diag 0.40E+00    0.0     0.00000205       -31.9560292656  2.56E-13
     5 TBLite/Diag 0.40E+00    0.0     0.00000074       -31.9560292656 -2.16E-12
     6 TBLite/Diag 0.40E+00    0.0     0.00000015       -31.9560292656 -3.55E-14
     7 TBLite/Diag 0.40E+00    0.0     0.00000003       -31.9560292656 -1.78E-14
     8 TBLite/Diag 0.40E+00    0.0     4.4762E-09       -31.9560292656  1.78E-14
     9 TBLite/Diag 0.40E+00    0.0     2.5344E-10       -31.9560292656 -2.49E-14

  *** SCF run converged in     9 steps ***


  Core Hamiltonian energy:                                    -32.28264391955041
  Repulsive potential energy:                                   0.30264756021098
  Electrostatic energy:                                         0.06193126224796
  Self-consistent dispersion energy:                            0.00000000000000
  Non-self consistent dispersion energy:                       -0.03796416855813
  Correction for halogen bonding:                               0.00000000000000
  Electronic entropic energy:                                  -0.00000000000000
  Fermi energy:                                                -0.18768257341715

  Total energy:                                               -31.95602926564960
  Total energy (extrapolated to T->0):                        -31.95602926564960

 ENERGY| Total FORCE_EVAL ( QS ) energy [hartree]            -31.956029265649601

 OPT| **************************************************************************
 OPT| Step number                                                              5
 OPT| Optimization method                                                   BFGS
 OPT| Total energy [hartree]                                      -31.9560292656
 OPT| Internal pressure [bar]                                   -1441.4021187274
 OPT| Effective energy change [hartree]                            -0.0000066527
 OPT| Predicted energy change [hartree]                            -0.0000040649
 OPT| Scaling factor                                                0.0000000000
 OPT| Step size                                                     0.0026391522
 OPT| Trust radius                                                  0.4724315332
 OPT| Decrease in energy                                                     YES
 OPT| Used time [s]                                                        0.139
 OPT|
 OPT| Maximum step size                                             0.0026391522
 OPT| Convergence limit for maximum step size                       0.0030000000
 OPT| Maximum step size is converged                                         YES
 OPT|
 OPT| RMS step size                                                 0.0007060475
 OPT| Convergence limit for RMS step size                           0.0015000000
 OPT| RMS step size is converged                                             YES
 OPT|
 OPT| Maximum gradient                                              0.0008055716
 OPT| Convergence limit for maximum gradient                        0.0004500000
 OPT| Maximum gradient is converged                                           NO
 OPT|
 OPT| RMS gradient                                                  0.0002862295
 OPT| Convergence limit for RMS gradient                            0.0003000000
 OPT| RMS gradient is converged                                              YES
 OPT|
 OPT| Pressure deviation [bar]                                  -1441.4021187274
 OPT| Pressure tolerance [bar]                                    100.0000000000
 OPT| Pressure is converged                                                   NO
 OPT| **************************************************************************
 OPT| Estimated peak process memory after this step [MiB]                    168

 --------------------------
 OPTIMIZATION STEP:      6
 --------------------------

 CELL| Volume [angstrom^3]:                                           163.757171
 CELL| Vector a [angstrom]:       5.972    -0.000    -0.000   |a| =     5.971508
 CELL| Vector b [angstrom]:      -1.993     5.629    -0.000   |b| =     5.971260
 CELL| Vector c [angstrom]:      -1.993    -2.819     4.872   |c| =     5.971262
 CELL| Angle (b,c), alpha [degree]:                                   109.491638
 CELL| Angle (a,c), beta  [degree]:                                   109.497726
 CELL| Angle (a,b), gamma [degree]:                                   109.497677
 CELL| Numerically orthorhombic:                                              NO
 CELL| Periodicity                                                           XYZ

 Extrapolation method: ASPC

 Number of electrons:                                                         56
 Number of occupied orbitals:                                                 28
 Number of molecular orbitals:                                                64

 Number of orbital functions:                                                 64
 Number of independent orbital functions:                                     64


 SCF WAVEFUNCTION OPTIMIZATION

  Step     Update method      Time    Convergence         Total energy    Change
  ------------------------------------------------------------------------------
     1 TBLite/Diag 0.40E+00    0.0     0.00127918       -31.9560431880 -3.20E+01
     2 TBLite/Diag 0.40E+00    0.0     0.00015795       -31.9560432536 -6.56E-08
     3 TBLite/Diag 0.40E+00    0.0     0.00000868       -31.9560432539 -2.40E-10
     4 TBLite/Diag 0.40E+00    0.0     0.00000253       -31.9560432539 -4.79E-12
     5 TBLite/Diag 0.40E+00    0.0     0.00000039       -31.9560432539 -9.95E-13
     6 TBLite/Diag 0.40E+00    0.0     0.00000029       -31.9560432539 -1.71E-13
     7 TBLite/Diag 0.40E+00    0.0     0.00000002       -31.9560432539 -1.78E-14
     8 TBLite/Diag 0.40E+00    0.0     4.3414E-09       -31.9560432539  1.07E-14
     9 TBLite/Diag 0.40E+00    0.0     4.9868E-10       -31.9560432539 -1.42E-14

  *** SCF run converged in     9 steps ***


  Core Hamiltonian energy:                                    -32.28289313950785
  Repulsive potential energy:                                   0.30300781209234
  Electrostatic energy:                                         0.06187911515994
  Self-consistent dispersion energy:                            0.00000000000000
  Non-self consistent dispersion energy:                       -0.03803704162087
  Correction for halogen bonding:                               0.00000000000000
  Electronic entropic energy:                                  -0.00000000000000
  Fermi energy:                                                -0.18740069432490

  Total energy:                                               -31.95604325387643
  Total energy (extrapolated to T->0):                        -31.95604325387643

 ENERGY| Total FORCE_EVAL ( QS ) energy [hartree]            -31.956043253876434

 OPT| **************************************************************************
 OPT| Step number                                                              6
 OPT| Optimization method                                                   BFGS
 OPT| Total energy [hartree]                                      -31.9560432539
 OPT| Internal pressure [bar]                                    -503.7852084758
 OPT| Effective energy change [hartree]                            -0.0000139882
 OPT| Predicted energy change [hartree]                            -0.0000097751
 OPT| Scaling factor                                                0.0000000000
 OPT| Step size                                                     0.0068412898
 OPT| Trust radius                                                  0.4724315332
 OPT| Decrease in energy                                                     YES
 OPT| Used time [s]                                                        0.139
 OPT|
 OPT| Maximum step size                                             0.0068412898
 OPT| Convergence limit for maximum step size                       0.0030000000
 OPT| Maximum step size is converged                                          NO
 OPT|
 OPT| RMS step size                                                 0.0018359039
 OPT| Convergence limit for RMS step size                           0.0015000000
 OPT| RMS step size is converged                                              NO
 OPT|
 OPT| Maximum gradient                                              0.0009551790
 OPT| Convergence limit for maximum gradient                        0.0004500000
 OPT| Maximum gradient is converged                                           NO
 OPT|
 OPT| RMS gradient                                                  0.0003480336
 OPT| Convergence limit for RMS gradient                            0.0003000000
 OPT| RMS gradient is converged                                               NO
 OPT|
 OPT| Pressure deviation [bar]                                   -503.7852084758
 OPT| Pressure tolerance [bar]                                    100.0000000000
 OPT| Pressure is converged                                                   NO
 OPT| **************************************************************************
 OPT| Estimated peak process memory after this step [MiB]                    168

 --------------------------
 OPTIMIZATION STEP:      7
 --------------------------

 CELL| Volume [angstrom^3]:                                           163.461440
 CELL| Vector a [angstrom]:       5.968    -0.000    -0.000   |a| =     5.967958
 CELL| Vector b [angstrom]:      -1.992     5.625    -0.000   |b| =     5.967646
 CELL| Vector c [angstrom]:      -1.992    -2.818     4.869   |c| =     5.967647
 CELL| Angle (b,c), alpha [degree]:                                   109.493946
 CELL| Angle (a,c), beta  [degree]:                                   109.496650
 CELL| Angle (a,b), gamma [degree]:                                   109.496600
 CELL| Numerically orthorhombic:                                              NO
 CELL| Periodicity                                                           XYZ

 Extrapolation method: ASPC

 Number of electrons:                                                         56
 Number of occupied orbitals:                                                 28
 Number of molecular orbitals:                                                64

 Number of orbital functions:                                                 64
 Number of independent orbital functions:                                     64


 SCF WAVEFUNCTION OPTIMIZATION

  Step     Update method      Time    Convergence         Total energy    Change
  ------------------------------------------------------------------------------
     1 TBLite/Diag 0.40E+00    0.0     0.00090520       -31.9560553368 -3.20E+01
     2 TBLite/Diag 0.40E+00    0.0     0.00011796       -31.9560554358 -9.91E-08
     3 TBLite/Diag 0.40E+00    0.0     0.00001261       -31.9560554366 -8.11E-10
     4 TBLite/Diag 0.40E+00    0.0     0.00000226       -31.9560554366  2.87E-12
     5 TBLite/Diag 0.40E+00    0.0     0.00000115       -31.9560554366 -8.57E-12
     6 TBLite/Diag 0.40E+00    0.0     0.00000007       -31.9560554366 -2.13E-14
     7 TBLite/Diag 0.40E+00    0.0     0.00000003       -31.9560554366  0.00E+00
     8 TBLite/Diag 0.40E+00    0.0     1.0607E-09       -31.9560554366 -7.11E-15
     9 TBLite/Diag 0.40E+00    0.0     5.5744E-10       -31.9560554366  0.00E+00

  *** SCF run converged in     9 steps ***


  Core Hamiltonian energy:                                    -32.28319722438996
  Repulsive potential energy:                                   0.30339449577243
  Electrostatic energy:                                         0.06185834533040
  Self-consistent dispersion energy:                            0.00000000000000
  Non-self consistent dispersion energy:                       -0.03811105333565
  Correction for halogen bonding:                               0.00000000000000
  Electronic entropic energy:                                  -0.00000000000000
  Fermi energy:                                                -0.18708410598052

  Total energy:                                               -31.95605543662279
  Total energy (extrapolated to T->0):                        -31.95605543662279

 ENERGY| Total FORCE_EVAL ( QS ) energy [hartree]            -31.956055436622787

 OPT| **************************************************************************
 OPT| Step number                                                              7
 OPT| Optimization method                                                   BFGS
 OPT| Total energy [hartree]                                      -31.9560554366
 OPT| Internal pressure [bar]                                      60.2160830411
 OPT| Effective energy change [hartree]                            -0.0000121827
 OPT| Predicted energy change [hartree]                            -0.0000080620
 OPT| Scaling factor                                                0.0000000000
 OPT| Step size                                                     0.0067079839
 OPT| Trust radius                                                  0.4724315332
 OPT| Decrease in energy                                                     YES
 OPT| Used time [s]                                                        0.139
 OPT|
 OPT| Maximum step size                                             0.0067079839
 OPT| Convergence limit for maximum step size                       0.0030000000
 OPT| Maximum step size is converged                                          NO
 OPT|
 OPT| RMS step size                                                 0.0018537623
 OPT| Convergence limit for RMS step size                           0.0015000000
 OPT| RMS step size is converged                                              NO
 OPT|
 OPT| Maximum gradient                                              0.0008025846
 OPT| Convergence limit for maximum gradient                        0.0004500000
 OPT| Maximum gradient is converged                                           NO
 OPT|
 OPT| RMS gradient                                                  0.0003323581
 OPT| Convergence limit for RMS gradient                            0.0003000000
 OPT| RMS gradient is converged                                               NO
 OPT|
 OPT| Pressure deviation [bar]                                     60.2160830411
 OPT| Pressure tolerance [bar]                                    100.0000000000
 OPT| Pressure is converged                                                  YES
 OPT| **************************************************************************
 OPT| Estimated peak process memory after this step [MiB]                    168

 --------------------------
 OPTIMIZATION STEP:      8
 --------------------------

 CELL| Volume [angstrom^3]:                                           163.125177
 CELL| Vector a [angstrom]:       5.964    -0.000    -0.000   |a| =     5.964027
 CELL| Vector b [angstrom]:      -1.991     5.622    -0.000   |b| =     5.963689
 CELL| Vector c [angstrom]:      -1.991    -2.816     4.865   |c| =     5.963690
 CELL| Angle (b,c), alpha [degree]:                                   109.497088
 CELL| Angle (a,c), beta  [degree]:                                   109.498059
 CELL| Angle (a,b), gamma [degree]:                                   109.498008
 CELL| Numerically orthorhombic:                                              NO
 CELL| Periodicity                                                           XYZ

 Extrapolation method: ASPC

 Number of electrons:                                                         56
 Number of occupied orbitals:                                                 28
 Number of molecular orbitals:                                                64

 Number of orbital functions:                                                 64
 Number of independent orbital functions:                                     64


 SCF WAVEFUNCTION OPTIMIZATION

  Step     Update method      Time    Convergence         Total energy    Change
  ------------------------------------------------------------------------------
     1 TBLite/Diag 0.40E+00    0.0     0.00076627       -31.9560687196 -3.20E+01
     2 TBLite/Diag 0.40E+00    0.0     0.00012617       -31.9560688790 -1.59E-07
     3 TBLite/Diag 0.40E+00    0.0     0.00001701       -31.9560688807 -1.74E-09
     4 TBLite/Diag 0.40E+00    0.0     0.00000358       -31.9560688807  9.52E-13
     5 TBLite/Diag 0.40E+00    0.0     0.00000144       -31.9560688807 -1.68E-11
     6 TBLite/Diag 0.40E+00    0.0     0.00000011       -31.9560688807 -2.49E-14
     7 TBLite/Diag 0.40E+00    0.0     8.9664E-09       -31.9560688807  2.13E-14
     8 TBLite/Diag 0.40E+00    0.0     1.0966E-09       -31.9560688807 -1.07E-14
     9 TBLite/Diag 0.40E+00    0.0     1.8164E-10       -31.9560688807  1.42E-14

  *** SCF run converged in     9 steps ***


  Core Hamiltonian energy:                                    -32.28341949232930
  Repulsive potential energy:                                   0.30368806277176
  Electrostatic energy:                                         0.06185908103813
  Self-consistent dispersion energy:                            0.00000000000000
  Non-self consistent dispersion energy:                       -0.03819653219780
  Correction for halogen bonding:                               0.00000000000000
  Electronic entropic energy:                                  -0.00000000000000
  Fermi energy:                                                -0.18673675993453

  Total energy:                                               -31.95606888071721
  Total energy (extrapolated to T->0):                        -31.95606888071721

 ENERGY| Total FORCE_EVAL ( QS ) energy [hartree]            -31.956068880717208

 OPT| **************************************************************************
 OPT| Step number                                                              8
 OPT| Optimization method                                                   BFGS
 OPT| Total energy [hartree]                                      -31.9560688807
 OPT| Internal pressure [bar]                                     250.0950488235
 OPT| Effective energy change [hartree]                            -0.0000134441
 OPT| Predicted energy change [hartree]                            -0.0000089345
 OPT| Scaling factor                                                0.0000000000
 OPT| Step size                                                     0.0074290815
 OPT| Trust radius                                                  0.4724315332
 OPT| Decrease in energy                                                     YES
 OPT| Used time [s]                                                        0.139
 OPT|
 OPT| Maximum step size                                             0.0074290815
 OPT| Convergence limit for maximum step size                       0.0030000000
 OPT| Maximum step size is converged                                          NO
 OPT|
 OPT| RMS step size                                                 0.0021550256
 OPT| Convergence limit for RMS step size                           0.0015000000
 OPT| RMS step size is converged                                              NO
 OPT|
 OPT| Maximum gradient                                              0.0007394138
 OPT| Convergence limit for maximum gradient                        0.0004500000
 OPT| Maximum gradient is converged                                           NO
 OPT|
 OPT| RMS gradient                                                  0.0003216533
 OPT| Convergence limit for RMS gradient                            0.0003000000
 OPT| RMS gradient is converged                                               NO
 OPT|
 OPT| Pressure deviation [bar]                                    250.0950488235
 OPT| Pressure tolerance [bar]                                    100.0000000000
 OPT| Pressure is converged                                                   NO
 OPT| **************************************************************************
 OPT| Estimated peak process memory after this step [MiB]                    168

 --------------------------
 OPTIMIZATION STEP:      9
 --------------------------

 CELL| Volume [angstrom^3]:                                           162.745643
 CELL| Vector a [angstrom]:       5.960    -0.000    -0.000   |a| =     5.959740
 CELL| Vector b [angstrom]:      -1.990     5.617    -0.000   |b| =     5.959423
 CELL| Vector c [angstrom]:      -1.990    -2.815     4.861   |c| =     5.959425
 CELL| Angle (b,c), alpha [degree]:                                   109.501358
 CELL| Angle (a,c), beta  [degree]:                                   109.503157
 CELL| Angle (a,b), gamma [degree]:                                   109.503106
 CELL| Numerically orthorhombic:                                              NO
 CELL| Periodicity                                                           XYZ

 Extrapolation method: ASPC

 Number of electrons:                                                         56
 Number of occupied orbitals:                                                 28
 Number of molecular orbitals:                                                64

 Number of orbital functions:                                                 64
 Number of independent orbital functions:                                     64


 SCF WAVEFUNCTION OPTIMIZATION

  Step     Update method      Time    Convergence         Total energy    Change
  ------------------------------------------------------------------------------
     1 TBLite/Diag 0.40E+00    0.0     0.00076476       -31.9560839217 -3.20E+01
     2 TBLite/Diag 0.40E+00    0.0     0.00013691       -31.9560841037 -1.82E-07
     3 TBLite/Diag 0.40E+00    0.0     0.00001630       -31.9560841055 -1.81E-09
     4 TBLite/Diag 0.40E+00    0.0     0.00000400       -31.9560841055 -5.92E-12
     5 TBLite/Diag 0.40E+00    0.0     0.00000152       -31.9560841055 -1.73E-11
     6 TBLite/Diag 0.40E+00    0.0     0.00000008       -31.9560841055 -2.49E-14
     7 TBLite/Diag 0.40E+00    0.0     0.00000004       -31.9560841055  0.00E+00
     8 TBLite/Diag 0.40E+00    0.0     3.4368E-09       -31.9560841055  0.00E+00
     9 TBLite/Diag 0.40E+00    0.0     2.9397E-10       -31.9560841055 -1.42E-14

  *** SCF run converged in     9 steps ***


  Core Hamiltonian energy:                                    -32.28337642456780
  Repulsive potential energy:                                   0.30371790120416
  Electrostatic energy:                                         0.06186809893520
  Self-consistent dispersion energy:                            0.00000000000000
  Non-self consistent dispersion energy:                       -0.03829368112102
  Correction for halogen bonding:                               0.00000000000000
  Electronic entropic energy:                                  -0.00000000000000
  Fermi energy:                                                -0.18641135685680

  Total energy:                                               -31.95608410554946
  Total energy (extrapolated to T->0):                        -31.95608410554946

 ENERGY| Total FORCE_EVAL ( QS ) energy [hartree]            -31.956084105549458

 OPT| **************************************************************************
 OPT| Step number                                                              9
 OPT| Optimization method                                                   BFGS
 OPT| Total energy [hartree]                                      -31.9560841055
 OPT| Internal pressure [bar]                                      56.0511883077
 OPT| Effective energy change [hartree]                            -0.0000152248
 OPT| Predicted energy change [hartree]                            -0.0000099277
 OPT| Scaling factor                                                0.0000000000
 OPT| Step size                                                     0.0081016417
 OPT| Trust radius                                                  0.4724315332
 OPT| Decrease in energy                                                     YES
 OPT| Used time [s]                                                        0.139
 OPT|
 OPT| Maximum step size                                             0.0081016417
 OPT| Convergence limit for maximum step size                       0.0030000000
 OPT| Maximum step size is converged                                          NO
 OPT|
 OPT| RMS step size                                                 0.0024876867
 OPT| Convergence limit for RMS step size                           0.0015000000
 OPT| RMS step size is converged                                              NO
 OPT|
 OPT| Maximum gradient                                              0.0008790663
 OPT| Convergence limit for maximum gradient                        0.0004500000
 OPT| Maximum gradient is converged                                           NO
 OPT|
 OPT| RMS gradient                                                  0.0003792459
 OPT| Convergence limit for RMS gradient                            0.0003000000
 OPT| RMS gradient is converged                                               NO
 OPT|
 OPT| Pressure deviation [bar]                                     56.0511883077
 OPT| Pressure tolerance [bar]                                    100.0000000000
 OPT| Pressure is converged                                                  YES
 OPT| **************************************************************************
 OPT| Estimated peak process memory after this step [MiB]                    168

 --------------------------
 OPTIMIZATION STEP:     10
 --------------------------

 CELL| Volume [angstrom^3]:                                           162.203970
 CELL| Vector a [angstrom]:       5.954    -0.000    -0.000   |a| =     5.953794
 CELL| Vector b [angstrom]:      -1.989     5.612    -0.000   |b| =     5.953543
 CELL| Vector c [angstrom]:      -1.989    -2.814     4.855   |c| =     5.953546
 CELL| Angle (b,c), alpha [degree]:                                   109.508289
 CELL| Angle (a,c), beta  [degree]:                                   109.514266
 CELL| Angle (a,b), gamma [degree]:                                   109.514219
 CELL| Numerically orthorhombic:                                              NO
 CELL| Periodicity                                                           XYZ

 Extrapolation method: ASPC

 Number of electrons:                                                         56
 Number of occupied orbitals:                                                 28
 Number of molecular orbitals:                                                64

 Number of orbital functions:                                                 64
 Number of independent orbital functions:                                     64


 SCF WAVEFUNCTION OPTIMIZATION

  Step     Update method      Time    Convergence         Total energy    Change
  ------------------------------------------------------------------------------
     1 TBLite/Diag 0.40E+00    0.0     0.00104211       -31.9561048741 -3.20E+01
     2 TBLite/Diag 0.40E+00    0.0     0.00016279       -31.9561051477 -2.74E-07
     3 TBLite/Diag 0.40E+00    0.0     0.00001542       -31.9561051494 -1.75E-09
     4 TBLite/Diag 0.40E+00    0.0     0.00000450       -31.9561051494 -3.95E-12
     5 TBLite/Diag 0.40E+00    0.0     0.00000169       -31.9561051495 -1.71E-11
     6 TBLite/Diag 0.40E+00    0.0     0.00000010       -31.9561051495 -3.55E-15
     7 TBLite/Diag 0.40E+00    0.0     0.00000005       -31.9561051495  1.42E-14
     8 TBLite/Diag 0.40E+00    0.0     2.9119E-09       -31.9561051495 -7.11E-15
     9 TBLite/Diag 0.40E+00    0.0     7.0073E-10       -31.9561051495 -1.78E-14

  *** SCF run converged in     9 steps ***


  Core Hamiltonian energy:                                    -32.28293205695642
  Repulsive potential energy:                                   0.30339370880656
  Electrostatic energy:                                         0.06186624578427
  Self-consistent dispersion energy:                            0.00000000000000
  Non-self consistent dispersion energy:                       -0.03843304709825
  Correction for halogen bonding:                               0.00000000000000
  Electronic entropic energy:                                  -0.00000000000000
  Fermi energy:                                                -0.18605149534993

  Total energy:                                               -31.95610514946384
  Total energy (extrapolated to T->0):                        -31.95610514946384

 ENERGY| Total FORCE_EVAL ( QS ) energy [hartree]            -31.956105149463838

 OPT| **************************************************************************
 OPT| Step number                                                             10
 OPT| Optimization method                                                   BFGS
 OPT| Total energy [hartree]                                      -31.9561051495
 OPT| Internal pressure [bar]                                    -439.3534779074
 OPT| Effective energy change [hartree]                            -0.0000210439
 OPT| Predicted energy change [hartree]                            -0.0000140716
 OPT| Scaling factor                                                0.0000000000
 OPT| Step size                                                     0.0117488972
 OPT| Trust radius                                                  0.4724315332
 OPT| Decrease in energy                                                     YES
 OPT| Used time [s]                                                        0.139
 OPT|
 OPT| Maximum step size                                             0.0117488972
 OPT| Convergence limit for maximum step size                       0.0030000000
 OPT| Maximum step size is converged                                          NO
 OPT|
 OPT| RMS step size                                                 0.0035890958
 OPT| Convergence limit for RMS step size                           0.0015000000
 OPT| RMS step size is converged                                              NO
 OPT|
 OPT| Maximum gradient                                              0.0010532104
 OPT| Convergence limit for maximum gradient                        0.0004500000
 OPT| Maximum gradient is converged                                           NO
 OPT|
 OPT| RMS gradient                                                  0.0004581402
 OPT| Convergence limit for RMS gradient                            0.0003000000
 OPT| RMS gradient is converged                                               NO
 OPT|
 OPT| Pressure deviation [bar]                                   -439.3534779074
 OPT| Pressure tolerance [bar]                                    100.0000000000
 OPT| Pressure is converged                                                   NO
 OPT| **************************************************************************
 OPT| Estimated peak process memory after this step [MiB]                    168

 --------------------------
 OPTIMIZATION STEP:     11
 --------------------------

 CELL| Volume [angstrom^3]:                                           161.572540
 CELL| Vector a [angstrom]:       5.947    -0.000    -0.000   |a| =     5.947007
 CELL| Vector b [angstrom]:      -1.988     5.605    -0.000   |b| =     5.946833
 CELL| Vector c [angstrom]:      -1.988    -2.813     4.848   |c| =     5.946838
 CELL| Angle (b,c), alpha [degree]:                                   109.517065
 CELL| Angle (a,c), beta  [degree]:                                   109.530200
 CELL| Angle (a,b), gamma [degree]:                                   109.530162
 CELL| Numerically orthorhombic:                                              NO
 CELL| Periodicity                                                           XYZ

 Extrapolation method: ASPC

 Number of electrons:                                                         56
 Number of occupied orbitals:                                                 28
 Number of molecular orbitals:                                                64

 Number of orbital functions:                                                 64
 Number of independent orbital functions:                                     64


 SCF WAVEFUNCTION OPTIMIZATION

  Step     Update method      Time    Convergence         Total energy    Change
  ------------------------------------------------------------------------------
     1 TBLite/Diag 0.40E+00    0.0     0.00123258       -31.9561276592 -3.20E+01
     2 TBLite/Diag 0.40E+00    0.0     0.00019138       -31.9561279284 -2.69E-07
     3 TBLite/Diag 0.40E+00    0.0     0.00001022       -31.9561279293 -8.96E-10
     4 TBLite/Diag 0.40E+00    0.0     0.00000160       -31.9561279293 -2.77E-12
     5 TBLite/Diag 0.40E+00    0.0     0.00000050       -31.9561279293 -1.17E-12
     6 TBLite/Diag 0.40E+00    0.0     0.00000010       -31.9561279293 -4.62E-14
     7 TBLite/Diag 0.40E+00    0.0     0.00000005       -31.9561279293  2.13E-14
     8 TBLite/Diag 0.40E+00    0.0     2.5761E-09       -31.9561279293 -2.13E-14
     9 TBLite/Diag 0.40E+00    0.0     8.0725E-10       -31.9561279293 -1.78E-14

  *** SCF run converged in     9 steps ***


  Core Hamiltonian energy:                                    -32.28212928227039
  Repulsive potential energy:                                   0.30276755174511
  Electrostatic energy:                                         0.06182989957579
  Self-consistent dispersion energy:                            0.00000000000000
  Non-self consistent dispersion energy:                       -0.03859609836353
  Correction for halogen bonding:                               0.00000000000000
  Electronic entropic energy:                                  -0.00000000000000
  Fermi energy:                                                -0.18572895749240

  Total energy:                                               -31.95612792931302
  Total energy (extrapolated to T->0):                        -31.95612792931302

 ENERGY| Total FORCE_EVAL ( QS ) energy [hartree]            -31.956127929313016

 OPT| **************************************************************************
 OPT| Step number                                                             11
 OPT| Optimization method                                                   BFGS
 OPT| Total energy [hartree]                                      -31.9561279293
 OPT| Internal pressure [bar]                                    -927.7431041925
 OPT| Effective energy change [hartree]                            -0.0000227798
 OPT| Predicted energy change [hartree]                            -0.0000156868
 OPT| Scaling factor                                                0.0000000000
 OPT| Step size                                                     0.0140580511
 OPT| Trust radius                                                  0.4724315332
 OPT| Decrease in energy                                                     YES
 OPT| Used time [s]                                                        0.139
 OPT|
 OPT| Maximum step size                                             0.0140580511
 OPT| Convergence limit for maximum step size                       0.0030000000
 OPT| Maximum step size is converged                                          NO
 OPT|
 OPT| RMS step size                                                 0.0041801438
 OPT| Convergence limit for RMS step size                           0.0015000000
 OPT| RMS step size is converged                                              NO
 OPT|
 OPT| Maximum gradient                                              0.0010225863
 OPT| Convergence limit for maximum gradient                        0.0004500000
 OPT| Maximum gradient is converged                                           NO
 OPT|
 OPT| RMS gradient                                                  0.0004469779
 OPT| Convergence limit for RMS gradient                            0.0003000000
 OPT| RMS gradient is converged                                               NO
 OPT|
 OPT| Pressure deviation [bar]                                   -927.7431041925
 OPT| Pressure tolerance [bar]                                    100.0000000000
 OPT| Pressure is converged                                                   NO
 OPT| **************************************************************************
 OPT| Estimated peak process memory after this step [MiB]                    168

 --------------------------
 OPTIMIZATION STEP:     12
 --------------------------

 CELL| Volume [angstrom^3]:                                           161.030965
 CELL| Vector a [angstrom]:       5.941    -0.000    -0.000   |a| =     5.941274
 CELL| Vector b [angstrom]:      -1.988     5.599    -0.000   |b| =     5.941127
 CELL| Vector c [angstrom]:      -1.988    -2.813     4.841   |c| =     5.941136
 CELL| Angle (b,c), alpha [degree]:                                   109.524959
 CELL| Angle (a,c), beta  [degree]:                                   109.545291
 CELL| Angle (a,b), gamma [degree]:                                   109.545264
 CELL| Numerically orthorhombic:                                              NO
 CELL| Periodicity                                                           XYZ

 Extrapolation method: ASPC

 Number of electrons:                                                         56
 Number of occupied orbitals:                                                 28
 Number of molecular orbitals:                                                64

 Number of orbital functions:                                                 64
 Number of independent orbital functions:                                     64


 SCF WAVEFUNCTION OPTIMIZATION

  Step     Update method      Time    Convergence         Total energy    Change
  ------------------------------------------------------------------------------
     1 TBLite/Diag 0.40E+00    0.0     0.00145992       -31.9561463697 -3.20E+01
     2 TBLite/Diag 0.40E+00    0.0     0.00016591       -31.9561465310 -1.61E-07
     3 TBLite/Diag 0.40E+00    0.0     0.00001241       -31.9561465320 -9.55E-10
     4 TBLite/Diag 0.40E+00    0.0     0.00000466       -31.9561465320 -1.17E-11
     5 TBLite/Diag 0.40E+00    0.0     0.00000133       -31.9561465320 -9.53E-12
     6 TBLite/Diag 0.40E+00    0.0     0.00000018       -31.9561465320 -1.14E-13
     7 TBLite/Diag 0.40E+00    0.0     0.00000001       -31.9561465320 -1.07E-14
     8 TBLite/Diag 0.40E+00    0.0     2.7461E-09       -31.9561465320  2.49E-14
     9 TBLite/Diag 0.40E+00    0.0     2.0938E-10       -31.9561465320 -1.42E-14

  *** SCF run converged in     9 steps ***


  Core Hamiltonian energy:                                    -32.28137783251631
  Repulsive potential energy:                                   0.30220869026762
  Electrostatic energy:                                         0.06175885535984
  Self-consistent dispersion energy:                            0.00000000000000
  Non-self consistent dispersion energy:                       -0.03873624509171
  Correction for halogen bonding:                               0.00000000000000
  Electronic entropic energy:                                  -0.00000000000000
  Fermi energy:                                                -0.18550951797647

  Total energy:                                               -31.95614653198055
  Total energy (extrapolated to T->0):                        -31.95614653198055

 ENERGY| Total FORCE_EVAL ( QS ) energy [hartree]            -31.956146531980554

 OPT| **************************************************************************
 OPT| Step number                                                             12
 OPT| Optimization method                                                   BFGS
 OPT| Total energy [hartree]                                      -31.9561465320
 OPT| Internal pressure [bar]                                   -1004.1755704760
 OPT| Effective energy change [hartree]                            -0.0000186027
 OPT| Predicted energy change [hartree]                            -0.0000131685
 OPT| Scaling factor                                                0.0000000000
 OPT| Step size                                                     0.0122634326
 OPT| Trust radius                                                  0.4724315332
 OPT| Decrease in energy                                                     YES
 OPT| Used time [s]                                                        0.139
 OPT|
 OPT| Maximum step size                                             0.0122634326
 OPT| Convergence limit for maximum step size                       0.0030000000
 OPT| Maximum step size is converged                                          NO
 OPT|
 OPT| RMS step size                                                 0.0035593407
 OPT| Convergence limit for RMS step size                           0.0015000000
 OPT| RMS step size is converged                                              NO
 OPT|
 OPT| Maximum gradient                                              0.0006768068
 OPT| Convergence limit for maximum gradient                        0.0004500000
 OPT| Maximum gradient is converged                                           NO
 OPT|
 OPT| RMS gradient                                                  0.0003489006
 OPT| Convergence limit for RMS gradient                            0.0003000000
[...]
 OPT|
 OPT| Pressure deviation [bar]                                    140.5155402387
 OPT| Pressure tolerance [bar]                                    100.0000000000
 OPT| Pressure is converged                                                   NO
 OPT| **************************************************************************
 OPT| Estimated peak process memory after this step [MiB]                    168

 --------------------------
 OPTIMIZATION STEP:     19
 --------------------------

 CELL| Volume [angstrom^3]:                                           159.925863
 CELL| Vector a [angstrom]:       5.929    -0.000    -0.000   |a| =     5.928785
 CELL| Vector b [angstrom]:      -1.985     5.586    -0.000   |b| =     5.928293
 CELL| Vector c [angstrom]:      -1.985    -2.809     4.829   |c| =     5.928302
 CELL| Angle (b,c), alpha [degree]:                                   109.536200
 CELL| Angle (a,c), beta  [degree]:                                   109.558001
 CELL| Angle (a,b), gamma [degree]:                                   109.557991
 CELL| Numerically orthorhombic:                                              NO
 CELL| Periodicity                                                           XYZ

 Extrapolation method: ASPC

 Number of electrons:                                                         56
 Number of occupied orbitals:                                                 28
 Number of molecular orbitals:                                                64

 Number of orbital functions:                                                 64
 Number of independent orbital functions:                                     64


 SCF WAVEFUNCTION OPTIMIZATION

  Step     Update method      Time    Convergence         Total energy    Change
  ------------------------------------------------------------------------------
     1 TBLite/Diag 0.40E+00    0.0     0.00019656       -31.9561897486 -3.20E+01
     2 TBLite/Diag 0.40E+00    0.0     0.00001360       -31.9561897500 -1.44E-09
     3 TBLite/Diag 0.40E+00    0.0     0.00000164       -31.9561897501 -8.76E-12
     4 TBLite/Diag 0.40E+00    0.0     0.00000032       -31.9561897501 -4.58E-13
     5 TBLite/Diag 0.40E+00    0.0     0.00000015       -31.9561897501 -1.10E-13
     6 TBLite/Diag 0.40E+00    0.0     0.00000002       -31.9561897501  7.11E-15
     7 TBLite/Diag 0.40E+00    0.0     7.2721E-09       -31.9561897501 -7.11E-15
     8 TBLite/Diag 0.40E+00    0.0     7.2264E-10       -31.9561897501 -1.42E-14

  *** SCF run converged in     8 steps ***


  Core Hamiltonian energy:                                    -32.28146584183215
  Repulsive potential energy:                                   0.30271838595419
  Electrostatic energy:                                         0.06158546350142
  Self-consistent dispersion energy:                            0.00000000000000
  Non-self consistent dispersion energy:                       -0.03902775767868
  Correction for halogen bonding:                               0.00000000000000
  Electronic entropic energy:                                  -0.00000000000000
  Fermi energy:                                                -0.18488963780736

  Total energy:                                               -31.95618975005522
  Total energy (extrapolated to T->0):                        -31.95618975005522

 ENERGY| Total FORCE_EVAL ( QS ) energy [hartree]            -31.956189750055223

 OPT| **************************************************************************
 OPT| Step number                                                             19
 OPT| Optimization method                                                   BFGS
 OPT| Total energy [hartree]                                      -31.9561897501
 OPT| Internal pressure [bar]                                     -58.1493358352
 OPT| Effective energy change [hartree]                            -0.0000002444
 OPT| Predicted energy change [hartree]                            -0.0000001901
 OPT| Scaling factor                                                0.0000000000
 OPT| Step size                                                     0.0004918922
 OPT| Trust radius                                                  0.4724315332
 OPT| Decrease in energy                                                     YES
 OPT| Used time [s]                                                        0.138
 OPT|
 OPT| Maximum step size                                             0.0004918922
 OPT| Convergence limit for maximum step size                       0.0030000000
 OPT| Maximum step size is converged                                         YES
 OPT|
 OPT| RMS step size                                                 0.0001192751
 OPT| Convergence limit for RMS step size                           0.0015000000
 OPT| RMS step size is converged                                             YES
 OPT|
 OPT| Maximum gradient                                              0.0000863592
 OPT| Convergence limit for maximum gradient                        0.0004500000
 OPT| Maximum gradient is converged                                          YES
 OPT|
 OPT| RMS gradient                                                  0.0000341822
 OPT| Convergence limit for RMS gradient                            0.0003000000
 OPT| RMS gradient is converged                                              YES
 OPT|
 OPT| Pressure deviation [bar]                                    -58.1493358352
 OPT| Pressure tolerance [bar]                                    100.0000000000
 OPT| Pressure is converged                                                  YES
 OPT| **************************************************************************
 OPT| Estimated peak process memory after this step [MiB]                    168

 *******************************************************************************
 ***                    GEOMETRY OPTIMIZATION COMPLETED                      ***
 *******************************************************************************

 write_final_structure: Optimization converged, writing XYZ file gladly:
  hexamine_GFN1_gamma_cell_opt-FINAL-1_19.xyz

 write_final_structure: Optimization converged, writing CIF file gladly:
  hexamine_GFN1_gamma_cell_opt-FINAL-1_19.cif

 write_final_structure: Done!

                    Reevaluating energy at the minimum

 CELL| Volume [angstrom^3]:                                           159.925863
 CELL| Vector a [angstrom]:       5.929    -0.000    -0.000   |a| =     5.928785
 CELL| Vector b [angstrom]:      -1.985     5.586    -0.000   |b| =     5.928293
 CELL| Vector c [angstrom]:      -1.985    -2.809     4.829   |c| =     5.928302
 CELL| Angle (b,c), alpha [degree]:                                   109.536200
 CELL| Angle (a,c), beta  [degree]:                                   109.558001
 CELL| Angle (a,b), gamma [degree]:                                   109.557991
 CELL| Numerically orthorhombic:                                              NO
 CELL| Periodicity                                                           XYZ

 Extrapolation method: ASPC

 Number of electrons:                                                         56
 Number of occupied orbitals:                                                 28
 Number of molecular orbitals:                                                64

 Number of orbital functions:                                                 64
 Number of independent orbital functions:                                     64


 SCF WAVEFUNCTION OPTIMIZATION

  Step     Update method      Time    Convergence         Total energy    Change
  ------------------------------------------------------------------------------
     1 TBLite/Diag 0.40E+00    0.0     3.2097E-11       -31.9561897501 -3.20E+01

  *** SCF run converged in     1 steps ***


  Core Hamiltonian energy:                                    -32.28146584183196
  Repulsive potential energy:                                   0.30271838595419
  Electrostatic energy:                                         0.06158546350125
  Self-consistent dispersion energy:                            0.00000000000000
  Non-self consistent dispersion energy:                       -0.03902775767868
  Correction for halogen bonding:                               0.00000000000000
  Electronic entropic energy:                                  -0.00000000000000
  Fermi energy:                                                -0.18488963780782

  Total energy:                                               -31.95618975005520
  Total energy (extrapolated to T->0):                        -31.95618975005520

 ENERGY| Total FORCE_EVAL ( QS ) energy [hartree]            -31.956189750055202

 -------------------------------------------------------------------------------
 -                                                                             -
 -                                DBCSR STATISTICS                             -
 -                                                                             -
 -------------------------------------------------------------------------------
 COUNTER                                    TOTAL       BLAS       SMM       ACC
 flops     2 x    32 x     2              6635520       0.0%    100.0%      0.0%     
 flops     2 x     2 x    64              8825856       0.0%    100.0%      0.0%     
 flops     4 x    32 x     2             11059200       0.0%    100.0%      0.0%     
 flops     2 x    32 x     4             11059200       0.0%    100.0%      0.0%     
 flops     4 x     2 x    64             13578240       0.0%    100.0%      0.0%     
 flops     2 x     4 x    64             13578240       0.0%    100.0%      0.0%     
 flops     4 x    32 x     4             18432000       0.0%    100.0%      0.0%     
 flops     4 x     4 x    64             24893440       0.0%    100.0%      0.0%     
 flops inhomo. stacks                           0       0.0%      0.0%      0.0%
 flops total                       108.061696E+06       0.0%    100.0%      0.0%
 flops max/rank                    108.061696E+06       0.0%    100.0%      0.0%
 matmuls inhomo. stacks                         0       0.0%      0.0%      0.0%
 matmuls total                             143033       0.0%    100.0%      0.0%
 number of processed stacks                  1244       0.0%    100.0%      0.0%
 average stack size                                     0.0     115.0       0.0
 marketing flops                    97.878016E+06
 -------------------------------------------------------------------------------
 # multiplications                            311
 max memory usage/rank              13.672264E+09
 # max total images/rank                        1
 # max 3D layers                                1
 # MPI messages exchanged                       0
 -------------------------------------------------------------------------------
 -                                                                             -
 -                      DBCSR MESSAGE PASSING PERFORMANCE                      -
 -                                                                             -
 -------------------------------------------------------------------------------
 ROUTINE             CALLS      AVE VOLUME [Bytes]
 MP_Bcast                9                     12.
 MP_Allreduce         1410                      8.
 MP_Alltoall          9770                  22031.
 MP_ISend             1244                   2153.
 MP_IRecv             1244                   2153.
 -------------------------------------------------------------------------------

 -------------------------------------------------------------------------------
 -                                                                             -
 -                          OFFLOAD MEMPOOL STATISTICS                         -
 -                                                                             -
 -------------------------------------------------------------------------------
 Memory consumption                Number of allocations  Used [MiB]  Size [MiB]
 Device                                                1           0           0
 Host                                                  1           0           0
 -------------------------------------------------------------------------------

 MEMORY| Estimated peak process memory [MiB]                                 168

 -------------------------------------------------------------------------------
 -                                                                             -
 -                         MESSAGE PASSING PERFORMANCE                         -
 -                                                                             -
 -------------------------------------------------------------------------------

 ROUTINE             CALLS      AVE VOLUME [Bytes]
 MP_Group               20
 MP_Bcast              440                    261.
 MP_Allreduce         3780                    154.
 MP_Sync               240
 MP_comm_split         220
 -------------------------------------------------------------------------------


 -------------------------------------------------------------------------------
 -                                                                             -
 -                           R E F E R E N C E S                               -
 -                                                                             -
 -------------------------------------------------------------------------------
 
 CP2K version 2026.1 (Development Version), the CP2K developers group (2026).
 CP2K is freely available from https://www.cp2k.org/ .
 
 M. Iannuzzi, J. Wilhelm, F. Stein, A. Bussy, H. Elgabarty, D. Golze, A. Hehn, 
 M. Graml, S. Marek, B. Sertcan Gökmen, C. Schran, H. Forbert, R. Z. 
 Khaliullin, A. Kozhevnikov, M. Taillefumier, R. Meli, V. V. Rybkin, M. Brehm, 
 R. Schade, O. Schütt, J. V. Pototschnig, H. Mirhosseini, A. Knüpfer, D. Marx, 
 M. Krack, J. Hutter, T. D. Kühne.
 J. Phys. Chem. B 130, 1237-1310 (2026).
 The CP2K Program Package Made Simple.
 https://doi.org/10.1021/acs.jpcb.5c05851

 A. Katbashev, M. Stahn, T. Rose, V. Alizadeh, M. Friede, C. Plett, P. 
 Steinbach, S. Ehlert.
 J. Phys. Chem. A 129, 2667-2682 (2025).
 Overview on Building Blocks and Applications of Efficient and Robust Extended 
 Tight Binding.
 https://doi.org/10.1021/acs.jpca.4c08263

 T. D. Kühne, M. Iannuzzi, M. Del Ben, V. V. Rybkin, P. Seewald, F. Stein, T. 
 Laino, R. Z. Khaliullin, O. Schütt, F. Schiffmann, D. Golze, J. Wilhelm, S. 
 Chulkov, M. H. Bani-Hashemian, V. Weber, U. Borstnik, M. Taillefumier, A. S. 
 Jakobovits, A. Lazzaro, H. Pabst, T. Müller, R. Schade, M. Guidon, S. 
 Andermatt, N. Holmberg, G. K. Schenter, A. Hehn, A. Bussy, F. Belleflamme, G. 
 Tabacchi, A. Glöß, M. Lass, I. Bethune, C. J. Mundy, C. Plessl, M. Watkins, 
 J. VandeVondele, M. Krack, J. Hutter.
 J. Chem. Phys. 152, 194103 (2020).
 CP2K: An electronic structure and molecular dynamics software package - 
 Quickstep: Efficient and accurate electronic structure calculations.
 https://doi.org/10.1063/5.0007045

 P. Pracht, E. Caldeweyher, S. Ehlert, S. Grimme.
 ChemRxiv, (2019).
 A Robust Non-Self-Consistent Tight-Binding Quantum Chemistry Method for large 
 Molecules.
 https://doi.org/10.26434/chemrxiv.8326202.v1

 S. Grimme, C. Bannwarth, P. Shushkov.
 J. Chem. Theory Comput. 13, 1989 (2017).
 A Robust and Accurate Tight-Binding Quantum Chemical Method for Structures, 
 Vibrational Frequencies, and Noncovalent Interactions of Large Molecular 
 Systems Parametrized for All spd-Block Elements (Z = 1-86).
 https://doi.org/10.1021/acs.jctc.7b00118

 O. Schuett, P. Messmer, J. Hutter, J. VandeVondele.
 Electronic Structure Calculations on Graphics Processing Units, 173-190 (2016).
 GPU-Accelerated Sparse Matrix-Matrix Multiplication for Linear Scaling Density 
 Functional Theory.
 https://doi.org/10.1002/9781118670712.ch8

 A. Heinecke, G. Henry, M. Hutchinson, H. Pabst.
 Proceedings of Intl. Supercomputing Conference, 981-991 (2016).
 LIBXSMM: Accelerating Small Matrix Multiplications by Runtime Code Generation.
 https://doi.org/10.1109/SC.2016.83

 U. Borstnik, J. VandeVondele, V. Weber, J. Hutter.
 Parallel Comput. 40, 47-58 (2014).
 Sparse matrix multiplication: The distributed block-compressed sparse row 
 library.
 https://doi.org/10.1016/j.parco.2014.03.012

 T. D. Kühne, M. Krack, F. R. Mohamed, M. Parrinello.
 Phys. Rev. Lett. 98, 066401 (2007).
 Efficient and accurate Car-Parrinello-like approach to Born-Oppenheimer 
 molecular dynamics.
 https://doi.org/10.1103/PhysRevLett.98.066401

 M. Frigo, S. G. Johnson.
 Proc. IEEE 93, 216-231 (2005).
 The design and implementation of FFTW3.
 https://doi.org/10.1109/JPROC.2004.840301

 J. Kolafa.
 J. Comput. Chem. 25, 335-342 (2004).
 Time-reversible always stable predictor-corrector method for molecular dynamics 
 of polarizable molecules.
 https://doi.org/10.1002/jcc.10385

 N. D. Mermin.
 Phys. Rev. 137, A1441-A1443 (1965).
 Thermal Properties of the Inhomogeneous Electron Gas.
 https://doi.org/10.1103/PhysRev.137.A1441


 -------------------------------------------------------------------------------
 -                                                                             -
 -                                T I M I N G                                  -
 -                                                                             -
 -------------------------------------------------------------------------------
 SUBROUTINE                       CALLS  ASD         SELF TIME        TOTAL TIME
                                MAXIMUM       AVERAGE  MAXIMUM  AVERAGE  MAXIMUM
 CP2K                                 1  1.0    0.002    0.002    2.819    2.819
 cp_cell_opt                          1  2.0    0.000    0.000    2.814    2.814
 geoopt_bfgs                          1  3.0    0.001    0.001    2.814    2.814
 cp_eval_at                          21  4.0    0.001    0.001    2.796    2.796
 qs_forces                           20  5.0    0.001    0.001    2.764    2.764
 build_tblite_matrices               41  7.0    1.282    1.282    1.301    1.301
 rebuild_ks_matrix                  201  9.7    0.000    0.000    1.191    1.191
 build_tblite_ks_matrix             201 10.7    1.190    1.190    1.190    1.190
 qs_ks_update_qs_env_forces          20  6.0    0.000    0.000    1.177    1.177
 qs_energies                         21  6.0    0.000    0.000    0.838    0.838
 qs_energies_init_hamiltonians       21  7.0    0.000    0.000    0.555    0.555
 scf_env_do_scf                      21  7.0    0.000    0.000    0.216    0.216
 scf_env_do_scf_inner_loop          181  8.0    0.006    0.006    0.215    0.215
 qs_scf_new_mos                     181  9.0    0.000    0.000    0.181    0.181
 cp_dbcsr_plus_fm_fm_t              221 10.8    0.001    0.001    0.080    0.080
 dbcsr_multiply_generic             311 12.0    0.004    0.004    0.074    0.074
 calculate_dm_sparse                201 10.0    0.000    0.000    0.073    0.073
 -------------------------------------------------------------------------------

 The number of warnings for this run is : 1
 
 -------------------------------------------------------------------------------
  **** **** ******  **  PROGRAM ENDED AT                 2026-05-23 23:10:52.428
 ***** ** ***  *** **   PROGRAM RAN ON                                spark-c86c
 **    ****   ******    PROGRAM RAN BY                                  kuehne88
 ***** **    ** ** **   PROGRAM PROCESS ID                               2279104
  **** **  *******  **  PROGRAM STOPPED IN /home/kuehne88/periodic-gfn2-benchmar
                                           ks/X23b/runs/cellopt_gamma/GFN1/hexam
                                           ine_GFN1_gamma_cellopt
