 DBCSR| CPU Multiplication driver                                           XSMM (U)
 DBCSR| Multrec recursion limit                                              512 (U)
 DBCSR| Multiplication stack size                                           1000 (D)
 DBCSR| Maximum elements for images                                    UNLIMITED (U)
 DBCSR| Multiplicative factor virtual images                                   1 (U)
 DBCSR| Use multiplication densification                                       T (D)
 DBCSR| Multiplication size stacks                                             3 (U)
 DBCSR| Use memory pool for CPU allocation                                     F (U)
 DBCSR| Number of 3D layers                                               SINGLE (U)
 DBCSR| Use MPI memory allocation                                              F (U)
 DBCSR| Use RMA algorithm                                                      F (U)
 DBCSR| Use Communication thread                                               T (U)
 DBCSR| Communication thread load                                             87 (D)
 DBCSR| MPI: My process id                                                     0
 DBCSR| MPI: Number of processes                                               1
 DBCSR| OMP: Current number of threads                                         1
 DBCSR| OMP: Max number of threads                                             1
 DBCSR| Split modifier for TAS multiplication algorithm                  1.0E+00 (U)


  **** **** ******  **  PROGRAM STARTED AT               2026-05-23 22:46:19.868
 ***** ** ***  *** **   PROGRAM STARTED ON                            spark-c86c
 **    ****   ******    PROGRAM STARTED BY                              kuehne88
 ***** **    ** ** **   PROGRAM PROCESS ID                               2226333
  **** **  *******  **  PROGRAM STARTED IN /home/kuehne88/periodic-gfn2-benchmar
                                           ks/X23b/runs/molecule_geoopt/GFN2/amm
                                           onia_GFN2_mol_geoopt

 CP2K| version string:                 CP2K version 2026.1 (Development Version)
 CP2K| source code revision number:                                   0622d442e4
 CP2K| cp2kflags: omp fftw3 libxc parallel scalapack mpi_f08 xsmm spglib libdftd
 CP2K|            4 dftd4_v3 mctc-lib tblite
 CP2K| is freely available from                            https://www.cp2k.org/
 CP2K| Program compiled at                                   2026-05-23 22:05:08
 CP2K| Program compiled on                                            spark-c86c
 CP2K| Program compiled for                                              aarch64
 CP2K| Data directory path    /home/kuehne88/cp2k-master-tblite-20260523/install
 CP2K| Input file name                               ammonia_GFN2_mol_geoopt.inp

 GLOBAL| Force Environment number                                              1
 GLOBAL| Basis set file name                                           BASIS_SET
 GLOBAL| Potential file name                                           POTENTIAL
 GLOBAL| MM Potential file name                                     MM_POTENTIAL
 GLOBAL| Coordinate file name                                      __STD_INPUT__
 GLOBAL| Method name                                                        CP2K
 GLOBAL| Project name                                    ammonia_GFN2_mol_geoopt
 GLOBAL| Run type                                                        GEO_OPT
 GLOBAL| FFT library                                                       FFTW3
 GLOBAL| Diagonalization library                                       ScaLAPACK
 GLOBAL| Cholesky decomposition library                                ScaLAPACK
 GLOBAL| DGEMM library                                                      BLAS
 GLOBAL| Direct generalized diagonalization requested                          F
 GLOBAL| Orthonormality check for eigenvectors                          DISABLED
 GLOBAL| Matrix multiplication library                                 ScaLAPACK
 GLOBAL| All-to-all communication in single precision                          F
 GLOBAL| FFTs using library dependent lengths                                  F
 GLOBAL| Grid backend                                                       AUTO
 GLOBAL| Global print level                                                  LOW
 GLOBAL| MPI I/O enabled                                                       T
 GLOBAL| Total number of message passing processes                             1
 GLOBAL| Number of distributed systems (nodes)                                 1
 GLOBAL| Number of threads for this process                                    1
 GLOBAL| This output is from process                                           0
 GLOBAL| OpenMP stack size per thread (OMP_STACKSIZE)                    default
 GLOBAL| CPU model name                                                  UNKNOWN
 GLOBAL| CPUID                                                              2200
 GLOBAL| Compiled for CPUID                                                 2000

 *** HINT in environment.F:970 :: The compiler target flags (arm_arch64)   ***
 *** used to build this binary cannot exploit all extensions of this CPU   ***
 *** model (arm_sve256). Consider compiler target flags as part of FCFLAGS ***
 *** and CFLAGS (ARCH file).                                               ***


 MEMORY| system memory details [Kb]
 MEMORY|                        rank 0           min           max       average
 MEMORY| MemTotal            125508532     125508532     125508532     125508532
 MEMORY| MemFree             106152304     106152304     106152304     106152304
 MEMORY| Buffers                866068        866068        866068        866068
 MEMORY| Cached               13217128      13217128      13217128      13217128
 MEMORY| Slab                  1564676       1564676       1564676       1564676
 MEMORY| SReclaimable           888664        888664        888664        888664
 MEMORY| MemLikelyFree       121124164     121124164     121124164     121124164


 GENERATE|  Preliminary Number of Bonds generated:                             0
 GENERATE|  Achieved consistency in connectivity generation.


                  #####   #####        #     #   #     #       #          
                 #     # #     #      #    ##### #     #   # #####  ####  
                 #     # #           #       #   ###   #       #   #    # 
                 #     #  #####     #        #   #  #  #   #   #   ###### 
                 #   # #       #   #         #   #   # #   #   #   #      
                 #    #  #     #  #          #   #  #  # # #   #    #   # 
                  #### #  #####  #           #   ###   ##  #   #     ###  

                                   GFN2-xTB  
                                 Version 0.0                       
                            Johann V. Pototschnig                  



 TOTAL NUMBERS AND MAXIMUM NUMBERS

  Total number of            - Atomic kinds:                                   2
                             - Atoms:                                          4
                             - Shell sets:                                     5
                             - Shells:                                         5
                             - Primitive Cartesian functions:                 17
                             - Cartesian basis functions:                      7
                             - Spherical basis functions:                      7

  Maximum angular momentum of the orbital basis functions:                     1


 SCF PARAMETERS         Density guess:                                     MOPAC
                        --------------------------------------------------------
                        max_scf:                                             300
                        max_scf_history:                                       0
                        max_diis:                                              4
                        --------------------------------------------------------
                        eps_scf:                                        1.00E-09
                        eps_scf_history:                                0.00E+00
                        eps_diis:                                       1.00E-01
                        eps_eigval:                                     1.00E-05
                        --------------------------------------------------------
                        level_shift [a.u.]:                             0.000000
                        added MOs                                         3    0
                        --------------------------------------------------------
                        Mixing method:                           DIRECT_P_MIXING
                        --------------------------------------------------------
                        Smear method:                                FERMI_DIRAC
                        Electronic temperature [K]:                        300.0
                        Electronic temperature [a.u.]:                  9.50E-04
                        Accuracy threshold:                             1.00E-06
                        --------------------------------------------------------
                        No outer SCF

 BFGS| Use rational function optimization for step estimation:                NO
 BFGS| Use model Hessian for initial guess:                                  YES
 BFGS| Restart Hessian:                                                       NO
 BFGS| Trust radius:                                                       0.472

 *******************************************************************************
 ***                     STARTING GEOMETRY OPTIMIZATION                      ***
 ***                                   BFGS                                  ***
 *******************************************************************************

 Extrapolation method: initial_guess

 Number of electrons:                                                          8
 Number of occupied orbitals:                                                  4
 Number of molecular orbitals:                                                 7

 Number of orbital functions:                                                  7
 Number of independent orbital functions:                                      7


 SCF WAVEFUNCTION OPTIMIZATION

  Step     Update method      Time    Convergence         Total energy    Change
  ------------------------------------------------------------------------------
     1 TBLite/Diag 0.40E+00    0.0     0.86706414        -4.3974204509 -4.40E+00
     2 TBLite/Diag 0.40E+00    0.0     0.09777400        -4.4213799308 -2.40E-02
     3 TBLite/Diag 0.40E+00    0.0     0.09369253        -4.4253407173 -3.96E-03
     4 TBLite/Diag 0.40E+00    0.0     0.06578513        -4.4242751322  1.07E-03
     5 TBLite/Diag 0.40E+00    0.0     0.04844589        -4.4261200318 -1.84E-03
     6 TBLite/Diag 0.40E+00    0.0     0.00960892        -4.4261990731 -7.90E-05
     7 TBLite/Diag 0.40E+00    0.0     0.00144035        -4.4262013913 -2.32E-06
     8 TBLite/Diag 0.40E+00    0.0     0.00006435        -4.4262013972 -5.96E-09
     9 TBLite/Diag 0.40E+00    0.0     0.00000477        -4.4262013973 -4.09E-11
    10 TBLite/Diag 0.40E+00    0.0     0.00000177        -4.4262013973  2.36E-13
    11 TBLite/Diag 0.40E+00    0.0     0.00000094        -4.4262013973 -1.08E-12
    12 TBLite/Diag 0.40E+00    0.0     0.00000001        -4.4262013973  8.88E-16
    13 TBLite/Diag 0.40E+00    0.0     1.2817E-10        -4.4262013973  1.78E-15

  *** SCF run converged in    13 steps ***


  Core Hamiltonian energy:                                     -4.50129006226297
  Repulsive potential energy:                                   0.05461356705495
  Electrostatic energy:                                         0.02084235010953
  Self-consistent dispersion energy:                           -0.00036725312311
  Non-self consistent dispersion energy:                        0.00000000093447
  Correction for halogen bonding:                               0.00000000000000
  Electronic entropic energy:                                  -0.00000000000000
  Fermi energy:                                                 0.02383187814013

  Total energy:                                                -4.42620139728713
  Total energy (extrapolated to T->0):                         -4.42620139728713

 ENERGY| Total FORCE_EVAL ( QS ) energy [hartree]             -4.426201397287134

 OPT| **************************************************************************
 OPT| Step number                                                              0
 OPT| Optimization method                                                   BFGS
 OPT| Total energy [hartree]                                       -4.4262013973
 OPT| Used time [s]                                                        0.009
 OPT| **************************************************************************
 OPT| Estimated peak process memory [MiB]                                    162

 --------------------------
 OPTIMIZATION STEP:      1
 --------------------------

 Extrapolation method: ASPC

 Number of electrons:                                                          8
 Number of occupied orbitals:                                                  4
 Number of molecular orbitals:                                                 7

 Number of orbital functions:                                                  7
 Number of independent orbital functions:                                      7


 SCF WAVEFUNCTION OPTIMIZATION

  Step     Update method      Time    Convergence         Total energy    Change
  ------------------------------------------------------------------------------
     1 TBLite/Diag 0.40E+00    0.0     0.01632844        -4.4262382092 -4.43E+00
     2 TBLite/Diag 0.40E+00    0.0     0.00073375        -4.4262390097 -8.01E-07
     3 TBLite/Diag 0.40E+00    0.0     0.00031707        -4.4262390446 -3.49E-08
     4 TBLite/Diag 0.40E+00    0.0     0.00009267        -4.4262390540 -9.33E-09
     5 TBLite/Diag 0.40E+00    0.0     0.00000590        -4.4262390540 -1.65E-11
     6 TBLite/Diag 0.40E+00    0.0     0.00000017        -4.4262390540 -3.91E-14
     7 TBLite/Diag 0.40E+00    0.0     3.9465E-09        -4.4262390540  7.99E-15
     8 TBLite/Diag 0.40E+00    0.0     9.9681E-11        -4.4262390540 -5.33E-15

  *** SCF run converged in     8 steps ***


  Core Hamiltonian energy:                                     -4.50244261318698
  Repulsive potential energy:                                   0.05580901461616
  Electrostatic energy:                                         0.02076155706079
  Self-consistent dispersion energy:                           -0.00036701337905
  Non-self consistent dispersion energy:                        0.00000000090239
  Correction for halogen bonding:                               0.00000000000000
  Electronic entropic energy:                                  -0.00000000000000
  Fermi energy:                                                 0.03003458663254

  Total energy:                                                -4.42623905398669
  Total energy (extrapolated to T->0):                         -4.42623905398669

 ENERGY| Total FORCE_EVAL ( QS ) energy [hartree]             -4.426239053986689

 OPT| **************************************************************************
 OPT| Step number                                                              1
 OPT| Optimization method                                                   BFGS
 OPT| Total energy [hartree]                                       -4.4262390540
 OPT| Effective energy change [hartree]                            -0.0000376567
 OPT| Predicted energy change [hartree]                            -0.0000465179
 OPT| Scaling factor                                                0.0000000000
 OPT| Step size                                                     0.0134058043
 OPT| Trust radius                                                  0.4724315332
 OPT| Decrease in energy                                                     YES
 OPT| Used time [s]                                                        0.006
 OPT|
 OPT| Maximum step size                                             0.0134058043
 OPT| Convergence limit for maximum step size                       0.0030000000
 OPT| Maximum step size is converged                                          NO
 OPT|
 OPT| RMS step size                                                 0.0074346529
 OPT| Convergence limit for RMS step size                           0.0015000000
 OPT| RMS step size is converged                                              NO
 OPT|
 OPT| Maximum gradient                                              0.0012894001
 OPT| Convergence limit for maximum gradient                        0.0004500000
 OPT| Maximum gradient is converged                                           NO
 OPT|
 OPT| RMS gradient                                                  0.0004362583
 OPT| Convergence limit for RMS gradient                            0.0003000000
 OPT| RMS gradient is converged                                               NO
 OPT| **************************************************************************
 OPT| Estimated peak process memory after this step [MiB]                    162

 --------------------------
 OPTIMIZATION STEP:      2
 --------------------------

 Extrapolation method: ASPC

 Number of electrons:                                                          8
 Number of occupied orbitals:                                                  4
 Number of molecular orbitals:                                                 7

 Number of orbital functions:                                                  7
 Number of independent orbital functions:                                      7


 SCF WAVEFUNCTION OPTIMIZATION

  Step     Update method      Time    Convergence         Total energy    Change
  ------------------------------------------------------------------------------
     1 TBLite/Diag 0.40E+00    0.0     0.00691484        -4.4262436405 -4.43E+00
     2 TBLite/Diag 0.40E+00    0.0     0.00037241        -4.4262438691 -2.29E-07
     3 TBLite/Diag 0.40E+00    0.0     0.00012771        -4.4262438770 -7.92E-09
     4 TBLite/Diag 0.40E+00    0.0     0.00003840        -4.4262438784 -1.32E-09
     5 TBLite/Diag 0.40E+00    0.0     0.00000213        -4.4262438784 -1.88E-12
     6 TBLite/Diag 0.40E+00    0.0     0.00000005        -4.4262438784 -2.66E-15
     7 TBLite/Diag 0.40E+00    0.0     0.00000001        -4.4262438784  0.00E+00
     8 TBLite/Diag 0.40E+00    0.0     4.0605E-11        -4.4262438784 -8.88E-16

  *** SCF run converged in     8 steps ***


  Core Hamiltonian energy:                                     -4.50269026012635
  Repulsive potential energy:                                   0.05603539421829
  Electrostatic energy:                                         0.02077794424770
  Self-consistent dispersion energy:                           -0.00036695760299
  Non-self consistent dispersion energy:                        0.00000000090500
  Correction for halogen bonding:                               0.00000000000000
  Electronic entropic energy:                                  -0.00000000000000
  Fermi energy:                                                 0.02979236666055

  Total energy:                                                -4.42624387835836
  Total energy (extrapolated to T->0):                         -4.42624387835836

 ENERGY| Total FORCE_EVAL ( QS ) energy [hartree]             -4.426243878358361

 OPT| **************************************************************************
 OPT| Step number                                                              2
 OPT| Optimization method                                                   BFGS
 OPT| Total energy [hartree]                                       -4.4262438784
 OPT| Effective energy change [hartree]                            -0.0000048244
 OPT| Predicted energy change [hartree]                            -0.0000042340
 OPT| Scaling factor                                                0.0000000000
 OPT| Step size                                                     0.0053924650
 OPT| Trust radius                                                  0.4724315332
 OPT| Decrease in energy                                                     YES
 OPT| Used time [s]                                                        0.006
 OPT|
 OPT| Maximum step size                                             0.0053924650
 OPT| Convergence limit for maximum step size                       0.0030000000
 OPT| Maximum step size is converged                                          NO
 OPT|
 OPT| RMS step size                                                 0.0020077640
 OPT| Convergence limit for RMS step size                           0.0015000000
 OPT| RMS step size is converged                                              NO
 OPT|
 OPT| Maximum gradient                                              0.0002658230
 OPT| Convergence limit for maximum gradient                        0.0004500000
 OPT| Maximum gradient is converged                                          YES
 OPT|
 OPT| RMS gradient                                                  0.0001101928
 OPT| Convergence limit for RMS gradient                            0.0003000000
 OPT| RMS gradient is converged                                              YES
 OPT| **************************************************************************
 OPT| Estimated peak process memory after this step [MiB]                    163

 --------------------------
 OPTIMIZATION STEP:      3
 --------------------------

 Extrapolation method: ASPC

 Number of electrons:                                                          8
 Number of occupied orbitals:                                                  4
 Number of molecular orbitals:                                                 7

 Number of orbital functions:                                                  7
 Number of independent orbital functions:                                      7


 SCF WAVEFUNCTION OPTIMIZATION

  Step     Update method      Time    Convergence         Total energy    Change
  ------------------------------------------------------------------------------
     1 TBLite/Diag 0.40E+00    0.0     0.00120422        -4.4262440316 -4.43E+00
     2 TBLite/Diag 0.40E+00    0.0     0.00006839        -4.4262440397 -8.12E-09
     3 TBLite/Diag 0.40E+00    0.0     0.00002231        -4.4262440400 -2.64E-10
     4 TBLite/Diag 0.40E+00    0.0     0.00000622        -4.4262440401 -4.75E-11
     5 TBLite/Diag 0.40E+00    0.0     0.00000025        -4.4262440401 -1.51E-14
     6 TBLite/Diag 0.40E+00    0.0     7.0950E-09        -4.4262440401 -1.78E-15
     7 TBLite/Diag 0.40E+00    0.0     3.0538E-09        -4.4262440401 -1.78E-15
     8 TBLite/Diag 0.40E+00    0.0     4.8109E-12        -4.4262440401  2.66E-15

  *** SCF run converged in     8 steps ***


  Core Hamiltonian energy:                                     -4.50279676554330
  Repulsive potential energy:                                   0.05614024644426
  Electrostatic energy:                                         0.02077941204305
  Self-consistent dispersion energy:                           -0.00036693390017
  Non-self consistent dispersion energy:                        0.00000000090446
  Correction for halogen bonding:                               0.00000000000000
  Electronic entropic energy:                                  -0.00000000000000
  Fermi energy:                                                 0.02996718862027

  Total energy:                                                -4.42624404005170
  Total energy (extrapolated to T->0):                         -4.42624404005170

 ENERGY| Total FORCE_EVAL ( QS ) energy [hartree]             -4.426244040051703

 OPT| **************************************************************************
 OPT| Step number                                                              3
 OPT| Optimization method                                                   BFGS
 OPT| Total energy [hartree]                                       -4.4262440401
 OPT| Effective energy change [hartree]                            -0.0000001617
 OPT| Predicted energy change [hartree]                            -0.0000001558
 OPT| Scaling factor                                                0.0000000000
 OPT| Step size                                                     0.0008854367
 OPT| Trust radius                                                  0.4724315332
 OPT| Decrease in energy                                                     YES
 OPT| Used time [s]                                                        0.006
 OPT|
 OPT| Maximum step size                                             0.0008854367
 OPT| Convergence limit for maximum step size                       0.0030000000
 OPT| Maximum step size is converged                                         YES
 OPT|
 OPT| RMS step size                                                 0.0002951598
 OPT| Convergence limit for RMS step size                           0.0015000000
 OPT| RMS step size is converged                                             YES
 OPT|
 OPT| Maximum gradient                                              0.0000103211
 OPT| Convergence limit for maximum gradient                        0.0004500000
 OPT| Maximum gradient is converged                                          YES
 OPT|
 OPT| RMS gradient                                                  0.0000061949
 OPT| Convergence limit for RMS gradient                            0.0003000000
 OPT| RMS gradient is converged                                              YES
 OPT| **************************************************************************
 OPT| Estimated peak process memory after this step [MiB]                    163

 *******************************************************************************
 ***                    GEOMETRY OPTIMIZATION COMPLETED                      ***
 *******************************************************************************

 write_final_structure: Optimization converged, writing XYZ file gladly:
  ammonia_GFN2_mol_geoopt-FINAL-1_3.xyz

 write_final_structure: Optimization converged, writing CIF file gladly:
  ammonia_GFN2_mol_geoopt-FINAL-1_3.cif

 write_final_structure: Done!

                    Reevaluating energy at the minimum

 Extrapolation method: ASPC

 Number of electrons:                                                          8
 Number of occupied orbitals:                                                  4
 Number of molecular orbitals:                                                 7

 Number of orbital functions:                                                  7
 Number of independent orbital functions:                                      7


 SCF WAVEFUNCTION OPTIMIZATION

  Step     Update method      Time    Convergence         Total energy    Change
  ------------------------------------------------------------------------------
     1 TBLite/Diag 0.40E+00    0.0     5.4290E-13        -4.4262440401 -4.43E+00

  *** SCF run converged in     1 steps ***


  Core Hamiltonian energy:                                     -4.50279676554319
  Repulsive potential energy:                                   0.05614024644426
  Electrostatic energy:                                         0.02077941204294
  Self-consistent dispersion energy:                           -0.00036693390017
  Non-self consistent dispersion energy:                        0.00000000090446
  Correction for halogen bonding:                               0.00000000000000
  Electronic entropic energy:                                  -0.00000000000000
  Fermi energy:                                                 0.02996718862038

  Total energy:                                                -4.42624404005170
  Total energy (extrapolated to T->0):                         -4.42624404005170

 ENERGY| Total FORCE_EVAL ( QS ) energy [hartree]             -4.426244040051700

 -------------------------------------------------------------------------------
 -                                                                             -
 -                                DBCSR STATISTICS                             -
 -                                                                             -
 -------------------------------------------------------------------------------
 COUNTER                                    TOTAL       BLAS       SMM       ACC
 flops     1 x     7 x     1                 1260       0.0%    100.0%      0.0%     
 flops     4 x     7 x     1                 1680       0.0%    100.0%      0.0%     
 flops     1 x     7 x     4                 1680       0.0%    100.0%      0.0%     
 flops     4 x     7 x     4                 2240       0.0%    100.0%      0.0%     
 flops     4 x     1 x     7                 2576       0.0%    100.0%      0.0%     
 flops     1 x     1 x     7                 3864       0.0%    100.0%      0.0%     
 flops     1 x     4 x     7                 5152       0.0%    100.0%      0.0%     
 flops     4 x     4 x     7                10304       0.0%    100.0%      0.0%     
 flops inhomo. stacks                           0       0.0%      0.0%      0.0%
 flops total                        28.756000E+03       0.0%    100.0%      0.0%
 flops max/rank                     28.756000E+03       0.0%    100.0%      0.0%
 matmuls inhomo. stacks                         0       0.0%      0.0%      0.0%
 matmuls total                                620       0.0%    100.0%      0.0%
 number of processed stacks                   224       0.0%    100.0%      0.0%
 average stack size                                     0.0       2.8       0.0
 marketing flops                    24.892000E+03
 -------------------------------------------------------------------------------
 # multiplications                             56
 max memory usage/rank              13.669081E+09
 # max total images/rank                        1
 # max 3D layers                                1
 # MPI messages exchanged                       0
 -------------------------------------------------------------------------------
 -                                                                             -
 -                      DBCSR MESSAGE PASSING PERFORMANCE                      -
 -                                                                             -
 -------------------------------------------------------------------------------
 ROUTINE             CALLS      AVE VOLUME [Bytes]
 MP_Bcast                9                     12.
 MP_Allreduce          295                     10.
 MP_Alltoall          1858                    378.
 MP_ISend              224                    101.
 MP_IRecv              224                    101.
 -------------------------------------------------------------------------------

 -------------------------------------------------------------------------------
 -                                                                             -
 -                          OFFLOAD MEMPOOL STATISTICS                         -
 -                                                                             -
 -------------------------------------------------------------------------------
 Memory consumption                Number of allocations  Used [MiB]  Size [MiB]
 Device                                                1           0           0
 Host                                                  1           0           0
 -------------------------------------------------------------------------------

 MEMORY| Estimated peak process memory [MiB]                                 163

 -------------------------------------------------------------------------------
 -                                                                             -
 -                         MESSAGE PASSING PERFORMANCE                         -
 -                                                                             -
 -------------------------------------------------------------------------------

 ROUTINE             CALLS      AVE VOLUME [Bytes]
 MP_Group                1
 MP_Bcast               87                     33.
 MP_Allreduce         1369                     34.
 MP_Sync                47
 MP_comm_split          46
 -------------------------------------------------------------------------------


 -------------------------------------------------------------------------------
 -                                                                             -
 -                           R E F E R E N C E S                               -
 -                                                                             -
 -------------------------------------------------------------------------------
 
 CP2K version 2026.1 (Development Version), the CP2K developers group (2026).
 CP2K is freely available from https://www.cp2k.org/ .
 
 M. Iannuzzi, J. Wilhelm, F. Stein, A. Bussy, H. Elgabarty, D. Golze, A. Hehn, 
 M. Graml, S. Marek, B. Sertcan Gökmen, C. Schran, H. Forbert, R. Z. 
 Khaliullin, A. Kozhevnikov, M. Taillefumier, R. Meli, V. V. Rybkin, M. Brehm, 
 R. Schade, O. Schütt, J. V. Pototschnig, H. Mirhosseini, A. Knüpfer, D. Marx, 
 M. Krack, J. Hutter, T. D. Kühne.
 J. Phys. Chem. B 130, 1237-1310 (2026).
 The CP2K Program Package Made Simple.
 https://doi.org/10.1021/acs.jpcb.5c05851

 A. Katbashev, M. Stahn, T. Rose, V. Alizadeh, M. Friede, C. Plett, P. 
 Steinbach, S. Ehlert.
 J. Phys. Chem. A 129, 2667-2682 (2025).
 Overview on Building Blocks and Applications of Efficient and Robust Extended 
 Tight Binding.
 https://doi.org/10.1021/acs.jpca.4c08263

 T. D. Kühne, M. Iannuzzi, M. Del Ben, V. V. Rybkin, P. Seewald, F. Stein, T. 
 Laino, R. Z. Khaliullin, O. Schütt, F. Schiffmann, D. Golze, J. Wilhelm, S. 
 Chulkov, M. H. Bani-Hashemian, V. Weber, U. Borstnik, M. Taillefumier, A. S. 
 Jakobovits, A. Lazzaro, H. Pabst, T. Müller, R. Schade, M. Guidon, S. 
 Andermatt, N. Holmberg, G. K. Schenter, A. Hehn, A. Bussy, F. Belleflamme, G. 
 Tabacchi, A. Glöß, M. Lass, I. Bethune, C. J. Mundy, C. Plessl, M. Watkins, 
 J. VandeVondele, M. Krack, J. Hutter.
 J. Chem. Phys. 152, 194103 (2020).
 CP2K: An electronic structure and molecular dynamics software package - 
 Quickstep: Efficient and accurate electronic structure calculations.
 https://doi.org/10.1063/5.0007045

 P. Pracht, E. Caldeweyher, S. Ehlert, S. Grimme.
 ChemRxiv, (2019).
 A Robust Non-Self-Consistent Tight-Binding Quantum Chemistry Method for large 
 Molecules.
 https://doi.org/10.26434/chemrxiv.8326202.v1

 S. Grimme, C. Bannwarth, P. Shushkov.
 J. Chem. Theory Comput. 13, 1989 (2017).
 A Robust and Accurate Tight-Binding Quantum Chemical Method for Structures, 
 Vibrational Frequencies, and Noncovalent Interactions of Large Molecular 
 Systems Parametrized for All spd-Block Elements (Z = 1-86).
 https://doi.org/10.1021/acs.jctc.7b00118

 O. Schuett, P. Messmer, J. Hutter, J. VandeVondele.
 Electronic Structure Calculations on Graphics Processing Units, 173-190 (2016).
 GPU-Accelerated Sparse Matrix-Matrix Multiplication for Linear Scaling Density 
 Functional Theory.
 https://doi.org/10.1002/9781118670712.ch8

 A. Heinecke, G. Henry, M. Hutchinson, H. Pabst.
 Proceedings of Intl. Supercomputing Conference, 981-991 (2016).
 LIBXSMM: Accelerating Small Matrix Multiplications by Runtime Code Generation.
 https://doi.org/10.1109/SC.2016.83

 U. Borstnik, J. VandeVondele, V. Weber, J. Hutter.
 Parallel Comput. 40, 47-58 (2014).
 Sparse matrix multiplication: The distributed block-compressed sparse row 
 library.
 https://doi.org/10.1016/j.parco.2014.03.012

 T. D. Kühne, M. Krack, F. R. Mohamed, M. Parrinello.
 Phys. Rev. Lett. 98, 066401 (2007).
 Efficient and accurate Car-Parrinello-like approach to Born-Oppenheimer 
 molecular dynamics.
 https://doi.org/10.1103/PhysRevLett.98.066401

 M. Frigo, S. G. Johnson.
 Proc. IEEE 93, 216-231 (2005).
 The design and implementation of FFTW3.
 https://doi.org/10.1109/JPROC.2004.840301

 J. Kolafa.
 J. Comput. Chem. 25, 335-342 (2004).
 Time-reversible always stable predictor-corrector method for molecular dynamics 
 of polarizable molecules.
 https://doi.org/10.1002/jcc.10385

 N. D. Mermin.
 Phys. Rev. 137, A1441-A1443 (1965).
 Thermal Properties of the Inhomogeneous Electron Gas.
 https://doi.org/10.1103/PhysRev.137.A1441


 -------------------------------------------------------------------------------
 -                                                                             -
 -                                T I M I N G                                  -
 -                                                                             -
 -------------------------------------------------------------------------------
 SUBROUTINE                       CALLS  ASD         SELF TIME        TOTAL TIME
                                MAXIMUM       AVERAGE  MAXIMUM  AVERAGE  MAXIMUM
 CP2K                                 1  1.0    0.002    0.002    0.035    0.035
 cp_geo_opt                           1  2.0    0.000    0.000    0.030    0.030
 geoopt_bfgs                          1  3.0    0.000    0.000    0.030    0.030
 cp_eval_at                           5  4.0    0.000    0.000    0.028    0.028
 qs_energies                          5  5.8    0.000    0.000    0.026    0.026
 qs_forces                            4  5.0    0.000    0.000    0.026    0.026
 scf_env_do_scf                       5  6.8    0.000    0.000    0.020    0.020
 scf_env_do_scf_inner_loop           38  8.0    0.001    0.001    0.020    0.020
 qs_scf_new_mos                      38  9.0    0.000    0.000    0.016    0.016
 cp_dbcsr_plus_fm_fm_t               46 10.8    0.000    0.000    0.010    0.010
 calculate_dm_sparse                 42 10.0    0.000    0.000    0.009    0.009
 dbcsr_multiply_generic              56 11.9    0.001    0.001    0.009    0.009
 make_m2s                           112 12.9    0.000    0.000    0.005    0.005
 copy_dbcsr_to_fm                    86 10.4    0.000    0.000    0.005    0.005
 dbcsr_complete_redistribute        188 12.1    0.002    0.002    0.004    0.004
 init_scf_run                         5  6.8    0.000    0.000    0.004    0.004
 scf_env_initial_rho_setup            5  7.8    0.000    0.000    0.003    0.003
 wfi_extrapolate                      5  8.8    0.000    0.000    0.003    0.003
 qs_init_subsys                       1  2.0    0.000    0.000    0.003    0.003
 qs_diis_b_step                      33 10.0    0.000    0.000    0.002    0.002
 copy_fm_to_dbcsr                   102 11.7    0.000    0.000    0.002    0.002
 cp_fm_syevd                         46 10.5    0.000    0.000    0.002    0.002
 eigensolver                         38 10.0    0.000    0.000    0.002    0.002
 make_images                        112 13.9    0.001    0.001    0.002    0.002
 rebuild_ks_matrix                   42  9.7    0.000    0.000    0.002    0.002
 cp_dbcsr_sm_fm_multiply             10 10.4    0.000    0.000    0.002    0.002
 build_tblite_ks_matrix              42 10.7    0.001    0.001    0.002    0.002
 multiply_cannon                     56 12.9    0.001    0.001    0.002    0.002
 dbcsr_finalize                    1212 11.8    0.001    0.001    0.002    0.002
 qs_ks_update_qs_env                 38  9.0    0.000    0.000    0.002    0.002
 dbcsr_create_new                  1519 12.8    0.001    0.001    0.002    0.002
 build_tblite_matrices                9  7.0    0.001    0.001    0.002    0.002
 dbcsr_crop_matrix                   92 13.8    0.000    0.000    0.001    0.001
 qs_env_setup                         1  3.0    0.000    0.000    0.001    0.001
 qs_env_rebuild_pw_env               10  6.2    0.000    0.000    0.001    0.001
 qs_energies_init_hamiltonians        5  6.8    0.000    0.000    0.001    0.001
 pw_env_rebuild                       1  5.0    0.000    0.000    0.001    0.001
 reorthogonalize_vectors              4  9.8    0.000    0.000    0.001    0.001
 make_basis_lowdin                    4 10.8    0.000    0.000    0.001    0.001
 dbcsr_desymmetrize_deep             86 11.4    0.000    0.000    0.001    0.001
 pw_grid_setup                        1  6.0    0.000    0.000    0.001    0.001
 pw_grid_setup_internal               1  7.0    0.000    0.000    0.001    0.001
 cp_dbcsr_sm_fm_multiply_core        10 11.4    0.000    0.000    0.001    0.001
 dbcsr_copy_submatrix                92 14.8    0.000    0.000    0.001    0.001
 dbcsr_iterator_start              2435 12.6    0.001    0.001    0.001    0.001
 cp_fm_syevd_base                    46 11.5    0.001    0.001    0.001    0.001
 cp_fm_redistribute_start            46 11.5    0.001    0.001    0.001    0.001
 compute_matrix_w                     5  6.8    0.000    0.000    0.001    0.001
 calculate_w_matrix_1                 4  8.0    0.000    0.000    0.001    0.001
 tb_get_multipole                     9  8.0    0.000    0.000    0.001    0.001
 dbcsr_merge_all                    326 14.8    0.001    0.001    0.001    0.001
 make_images_data                   112 14.9    0.000    0.000    0.001    0.001
 write_restart                        4  4.0    0.001    0.001    0.001    0.001
 parallel_gemm_fm_gemm               90 10.6    0.000    0.000    0.001    0.001
 dbcsr_destroy                     1439 12.2    0.001    0.001    0.001    0.001
 dbcsr_iterator_stop               2435 12.6    0.001    0.001    0.001    0.001
 pw_grid_sort                         1  8.0    0.001    0.001    0.001    0.001
 cp_fm_gemm                          90 11.6    0.001    0.001    0.001    0.001
 dbcsr_make_images_dense             92 13.8    0.000    0.000    0.001    0.001
 scf_c_write_parameters               1  3.0    0.001    0.001    0.001    0.001
 -------------------------------------------------------------------------------

 The number of warnings for this run is : 0
 
 -------------------------------------------------------------------------------
  **** **** ******  **  PROGRAM ENDED AT                 2026-05-23 22:46:20.630
 ***** ** ***  *** **   PROGRAM RAN ON                                spark-c86c
 **    ****   ******    PROGRAM RAN BY                                  kuehne88
 ***** **    ** ** **   PROGRAM PROCESS ID                               2226333
  **** **  *******  **  PROGRAM STOPPED IN /home/kuehne88/periodic-gfn2-benchmar
                                           ks/X23b/runs/molecule_geoopt/GFN2/amm
                                           onia_GFN2_mol_geoopt
