 DBCSR| CPU Multiplication driver                                           XSMM (U)
 DBCSR| Multrec recursion limit                                              512 (U)
 DBCSR| Multiplication stack size                                           1000 (D)
 DBCSR| Maximum elements for images                                    UNLIMITED (U)
 DBCSR| Multiplicative factor virtual images                                   1 (U)
 DBCSR| Use multiplication densification                                       T (D)
 DBCSR| Multiplication size stacks                                             3 (U)
 DBCSR| Use memory pool for CPU allocation                                     F (U)
 DBCSR| Number of 3D layers                                               SINGLE (U)
 DBCSR| Use MPI memory allocation                                              F (U)
 DBCSR| Use RMA algorithm                                                      F (U)
 DBCSR| Use Communication thread                                               T (U)
 DBCSR| Communication thread load                                             87 (D)
 DBCSR| MPI: My process id                                                     0
 DBCSR| MPI: Number of processes                                               1
 DBCSR| OMP: Current number of threads                                         1
 DBCSR| OMP: Max number of threads                                             1
 DBCSR| Split modifier for TAS multiplication algorithm                  1.0E+00 (U)


  **** **** ******  **  PROGRAM STARTED AT               2026-05-23 22:46:18.311
 ***** ** ***  *** **   PROGRAM STARTED ON                            spark-c86c
 **    ****   ******    PROGRAM STARTED BY                              kuehne88
 ***** **    ** ** **   PROGRAM PROCESS ID                               2222435
  **** **  *******  **  PROGRAM STARTED IN /home/kuehne88/periodic-gfn2-benchmar
                                           ks/X23b/runs/molecule_geoopt/GFN1/eth
                                           ylcarbamate_GFN1_mol_geoopt

 CP2K| version string:                 CP2K version 2026.1 (Development Version)
 CP2K| source code revision number:                                   0622d442e4
 CP2K| cp2kflags: omp fftw3 libxc parallel scalapack mpi_f08 xsmm spglib libdftd
 CP2K|            4 dftd4_v3 mctc-lib tblite
 CP2K| is freely available from                            https://www.cp2k.org/
 CP2K| Program compiled at                                   2026-05-23 22:05:08
 CP2K| Program compiled on                                            spark-c86c
 CP2K| Program compiled for                                              aarch64
 CP2K| Data directory path    /home/kuehne88/cp2k-master-tblite-20260523/install
 CP2K| Input file name                        ethylcarbamate_GFN1_mol_geoopt.inp

 GLOBAL| Force Environment number                                              1
 GLOBAL| Basis set file name                                           BASIS_SET
 GLOBAL| Potential file name                                           POTENTIAL
 GLOBAL| MM Potential file name                                     MM_POTENTIAL
 GLOBAL| Coordinate file name                                      __STD_INPUT__
 GLOBAL| Method name                                                        CP2K
 GLOBAL| Project name                             ethylcarbamate_GFN1_mol_geoopt
 GLOBAL| Run type                                                        GEO_OPT
 GLOBAL| FFT library                                                       FFTW3
 GLOBAL| Diagonalization library                                       ScaLAPACK
 GLOBAL| Cholesky decomposition library                                ScaLAPACK
 GLOBAL| DGEMM library                                                      BLAS
 GLOBAL| Direct generalized diagonalization requested                          F
 GLOBAL| Orthonormality check for eigenvectors                          DISABLED
 GLOBAL| Matrix multiplication library                                 ScaLAPACK
 GLOBAL| All-to-all communication in single precision                          F
 GLOBAL| FFTs using library dependent lengths                                  F
 GLOBAL| Grid backend                                                       AUTO
 GLOBAL| Global print level                                                  LOW
 GLOBAL| MPI I/O enabled                                                       T
 GLOBAL| Total number of message passing processes                             1
 GLOBAL| Number of distributed systems (nodes)                                 1
 GLOBAL| Number of threads for this process                                    1
 GLOBAL| This output is from process                                           0
 GLOBAL| OpenMP stack size per thread (OMP_STACKSIZE)                    default
 GLOBAL| CPU model name                                                  UNKNOWN
 GLOBAL| CPUID                                                              2200
 GLOBAL| Compiled for CPUID                                                 2000

 *** HINT in environment.F:970 :: The compiler target flags (arm_arch64)   ***
 *** used to build this binary cannot exploit all extensions of this CPU   ***
 *** model (arm_sve256). Consider compiler target flags as part of FCFLAGS ***
 *** and CFLAGS (ARCH file).                                               ***


 MEMORY| system memory details [Kb]
 MEMORY|                        rank 0           min           max       average
 MEMORY| MemTotal            125508532     125508532     125508532     125508532
 MEMORY| MemFree             106044740     106044740     106044740     106044740
 MEMORY| Buffers                865972        865972        865972        865972
 MEMORY| Cached               13214800      13214800      13214800      13214800
 MEMORY| Slab                  1565140       1565140       1565140       1565140
 MEMORY| SReclaimable           888284        888284        888284        888284
 MEMORY| MemLikelyFree       121013796     121013796     121013796     121013796


 GENERATE|  Preliminary Number of Bonds generated:                             0
 GENERATE|  Achieved consistency in connectivity generation.


                  #####   #####        #     #   #     #       #          
                 #     # #     #      #    ##### #     #   # #####  ####  
                 #     # #           #       #   ###   #       #   #    # 
                 #     #  #####     #        #   #  #  #   #   #   ###### 
                 #   # #       #   #         #   #   # #   #   #   #      
                 #    #  #     #  #          #   #  #  # # #   #    #   # 
                  #### #  #####  #           #   ###   ##  #   #     ###  

                                   GFN1-xTB  
                                 Version 0.0                       
                            Johann V. Pototschnig                  



 TOTAL NUMBERS AND MAXIMUM NUMBERS

  Total number of            - Atomic kinds:                                   4
                             - Atoms:                                         13
                             - Shell sets:                                    26
                             - Shells:                                        26
                             - Primitive Cartesian functions:                149
                             - Cartesian basis functions:                     38
                             - Spherical basis functions:                     38

  Maximum angular momentum of the orbital basis functions:                     1


 SCF PARAMETERS         Density guess:                                     MOPAC
                        --------------------------------------------------------
                        max_scf:                                             300
                        max_scf_history:                                       0
                        max_diis:                                              4
                        --------------------------------------------------------
                        eps_scf:                                        1.00E-09
                        eps_scf_history:                                0.00E+00
                        eps_diis:                                       1.00E-01
                        eps_eigval:                                     1.00E-05
                        --------------------------------------------------------
                        level_shift [a.u.]:                             0.000000
                        added MOs                                        20    0
                        --------------------------------------------------------
                        Mixing method:                           DIRECT_P_MIXING
                        --------------------------------------------------------
                        Smear method:                                FERMI_DIRAC
                        Electronic temperature [K]:                        300.0
                        Electronic temperature [a.u.]:                  9.50E-04
                        Accuracy threshold:                             1.00E-06
                        --------------------------------------------------------
                        No outer SCF

 BFGS| Use rational function optimization for step estimation:                NO
 BFGS| Use model Hessian for initial guess:                                  YES
 BFGS| Restart Hessian:                                                       NO
 BFGS| Trust radius:                                                       0.472

 *******************************************************************************
 ***                     STARTING GEOMETRY OPTIMIZATION                      ***
 ***                                   BFGS                                  ***
 *******************************************************************************

 Extrapolation method: initial_guess

 Number of electrons:                                                         36
 Number of occupied orbitals:                                                 18
 Number of molecular orbitals:                                                38

 Number of orbital functions:                                                 38
 Number of independent orbital functions:                                     38


 SCF WAVEFUNCTION OPTIMIZATION

  Step     Update method      Time    Convergence         Total energy    Change
  ------------------------------------------------------------------------------
     1 TBLite/Diag 0.40E+00    0.0     1.67981782       -22.3548471958 -2.24E+01
     2 TBLite/Diag 0.40E+00    0.0     0.36070756       -22.7529579347 -3.98E-01
     3 TBLite/Diag 0.40E+00    0.0     0.07191039       -22.7599298283 -6.97E-03
     4 TBLite/Diag 0.40E+00    0.0     0.03618294       -22.7603618179 -4.32E-04
     5 TBLite/Diag 0.40E+00    0.0     0.02200273       -22.7609251204 -5.63E-04
     6 TBLite/Diag 0.40E+00    0.0     0.01134550       -22.7609167797  8.34E-06
     7 TBLite/Diag 0.40E+00    0.0     0.00616252       -22.7609859867 -6.92E-05
     8 TBLite/Diag 0.40E+00    0.0     0.00118776       -22.7609872093 -1.22E-06
     9 TBLite/Diag 0.40E+00    0.0     0.00029253       -22.7609873354 -1.26E-07
    10 TBLite/Diag 0.40E+00    0.0     0.00002709       -22.7609873350  4.38E-10
    11 TBLite/Diag 0.40E+00    0.0     0.00002142       -22.7609873356 -5.82E-10
    12 TBLite/Diag 0.40E+00    0.0     0.00000199       -22.7609873356 -7.63E-12
    13 TBLite/Diag 0.40E+00    0.0     0.00000044       -22.7609873356 -7.11E-15
    14 TBLite/Diag 0.40E+00    0.0     0.00000020       -22.7609873356 -4.97E-14
    15 TBLite/Diag 0.40E+00    0.0     8.2727E-10       -22.7609873356 -1.07E-14

  *** SCF run converged in    15 steps ***


  Core Hamiltonian energy:                                    -23.07302129374774
  Repulsive potential energy:                                   0.20622292629175
  Electrostatic energy:                                         0.10954839342809
  Self-consistent dispersion energy:                            0.00000000000000
  Non-self consistent dispersion energy:                       -0.00373736156570
  Correction for halogen bonding:                               0.00000000000000
  Electronic entropic energy:                                  -0.00000000000000
  Fermi energy:                                                -0.25575262602697

  Total energy:                                               -22.76098733559359
  Total energy (extrapolated to T->0):                        -22.76098733559359

 ENERGY| Total FORCE_EVAL ( QS ) energy [hartree]            -22.760987335593587

 OPT| **************************************************************************
 OPT| Step number                                                              0
 OPT| Optimization method                                                   BFGS
 OPT| Total energy [hartree]                                      -22.7609873356
 OPT| Used time [s]                                                        0.017
 OPT| **************************************************************************
 OPT| Estimated peak process memory [MiB]                                    166

 --------------------------
 OPTIMIZATION STEP:      1
 --------------------------

 Extrapolation method: ASPC

 Number of electrons:                                                         36
 Number of occupied orbitals:                                                 18
 Number of molecular orbitals:                                                38

 Number of orbital functions:                                                 38
 Number of independent orbital functions:                                     38


 SCF WAVEFUNCTION OPTIMIZATION

  Step     Update method      Time    Convergence         Total energy    Change
  ------------------------------------------------------------------------------
     1 TBLite/Diag 0.40E+00    0.0     0.01866701       -22.7617353481 -2.28E+01
     2 TBLite/Diag 0.40E+00    0.0     0.00406199       -22.7617539884 -1.86E-05
     3 TBLite/Diag 0.40E+00    0.0     0.00123020       -22.7617556445 -1.66E-06
     4 TBLite/Diag 0.40E+00    0.0     0.00029686       -22.7617557576 -1.13E-07
     5 TBLite/Diag 0.40E+00    0.0     0.00007261       -22.7617557675 -9.94E-09
     6 TBLite/Diag 0.40E+00    0.0     0.00002091       -22.7617557685 -9.43E-10
     7 TBLite/Diag 0.40E+00    0.0     0.00000409       -22.7617557685 -4.31E-11
     8 TBLite/Diag 0.40E+00    0.0     0.00000076       -22.7617557685 -1.17E-12
     9 TBLite/Diag 0.40E+00    0.0     0.00000011       -22.7617557685 -3.55E-14
    10 TBLite/Diag 0.40E+00    0.0     0.00000001       -22.7617557685  1.07E-14
    11 TBLite/Diag 0.40E+00    0.0     5.0725E-09       -22.7617557685  0.00E+00
    12 TBLite/Diag 0.40E+00    0.0     1.2980E-10       -22.7617557685 -7.11E-15

  *** SCF run converged in    12 steps ***


  Core Hamiltonian energy:                                    -23.08013585439640
  Repulsive potential energy:                                   0.21317815948141
  Electrostatic energy:                                         0.10894511523624
  Self-consistent dispersion energy:                            0.00000000000000
  Non-self consistent dispersion energy:                       -0.00374318884443
  Correction for halogen bonding:                               0.00000000000000
  Electronic entropic energy:                                  -0.00000000000000
  Fermi energy:                                                -0.25016867713831

  Total energy:                                               -22.76175576852318
  Total energy (extrapolated to T->0):                        -22.76175576852318

 ENERGY| Total FORCE_EVAL ( QS ) energy [hartree]            -22.761755768523180

 OPT| **************************************************************************
 OPT| Step number                                                              1
 OPT| Optimization method                                                   BFGS
 OPT| Total energy [hartree]                                      -22.7617557685
 OPT| Effective energy change [hartree]                            -0.0007684329
 OPT| Predicted energy change [hartree]                            -0.0006713824
 OPT| Scaling factor                                                0.0000000000
 OPT| Step size                                                     0.0342678907
 OPT| Trust radius                                                  0.4724315332
 OPT| Decrease in energy                                                     YES
 OPT| Used time [s]                                                        0.014
 OPT|
 OPT| Maximum step size                                             0.0342678907
 OPT| Convergence limit for maximum step size                       0.0030000000
 OPT| Maximum step size is converged                                          NO
 OPT|
 OPT| RMS step size                                                 0.0112903219
 OPT| Convergence limit for RMS step size                           0.0015000000
 OPT| RMS step size is converged                                              NO
 OPT|
 OPT| Maximum gradient                                              0.0034863509
 OPT| Convergence limit for maximum gradient                        0.0004500000
 OPT| Maximum gradient is converged                                           NO
 OPT|
 OPT| RMS gradient                                                  0.0012482610
 OPT| Convergence limit for RMS gradient                            0.0003000000
 OPT| RMS gradient is converged                                               NO
 OPT| **************************************************************************
 OPT| Estimated peak process memory after this step [MiB]                    166

 --------------------------
 OPTIMIZATION STEP:      2
 --------------------------

 Extrapolation method: ASPC

 Number of electrons:                                                         36
 Number of occupied orbitals:                                                 18
 Number of molecular orbitals:                                                38

 Number of orbital functions:                                                 38
 Number of independent orbital functions:                                     38


 SCF WAVEFUNCTION OPTIMIZATION

  Step     Update method      Time    Convergence         Total energy    Change
  ------------------------------------------------------------------------------
     1 TBLite/Diag 0.40E+00    0.0     0.01077591       -22.7618737698 -2.28E+01
     2 TBLite/Diag 0.40E+00    0.0     0.00140934       -22.7618771450 -3.38E-06
     3 TBLite/Diag 0.40E+00    0.0     0.00038999       -22.7618773577 -2.13E-07
     4 TBLite/Diag 0.40E+00    0.0     0.00008504       -22.7618773685 -1.07E-08
     5 TBLite/Diag 0.40E+00    0.0     0.00003896       -22.7618773702 -1.66E-09
     6 TBLite/Diag 0.40E+00    0.0     0.00001268       -22.7618773704 -2.75E-10
     7 TBLite/Diag 0.40E+00    0.0     0.00000249       -22.7618773704 -1.04E-11
     8 TBLite/Diag 0.40E+00    0.0     0.00000032       -22.7618773704 -2.31E-13
     9 TBLite/Diag 0.40E+00    0.0     0.00000006       -22.7618773704 -7.11E-15
    10 TBLite/Diag 0.40E+00    0.0     6.2468E-09       -22.7618773704  3.55E-15
    11 TBLite/Diag 0.40E+00    0.0     2.3357E-09       -22.7618773704  7.11E-15
    12 TBLite/Diag 0.40E+00    0.0     6.0169E-11       -22.7618773704  3.55E-15

  *** SCF run converged in    12 steps ***


  Core Hamiltonian energy:                                    -23.08266066547358
  Repulsive potential energy:                                   0.21597143572196
  Electrostatic energy:                                         0.10856060768385
  Self-consistent dispersion energy:                            0.00000000000000
  Non-self consistent dispersion energy:                       -0.00374874837527
  Correction for halogen bonding:                               0.00000000000000
  Electronic entropic energy:                                  -0.00000000000000
  Fermi energy:                                                -0.24854616845635

  Total energy:                                               -22.76187737044304
  Total energy (extrapolated to T->0):                        -22.76187737044304

 ENERGY| Total FORCE_EVAL ( QS ) energy [hartree]            -22.761877370443038

 OPT| **************************************************************************
 OPT| Step number                                                              2
 OPT| Optimization method                                                   BFGS
 OPT| Total energy [hartree]                                      -22.7618773704
 OPT| Effective energy change [hartree]                            -0.0001216019
 OPT| Predicted energy change [hartree]                            -0.0001093537
 OPT| Scaling factor                                                0.0000000000
 OPT| Step size                                                     0.0186762169
 OPT| Trust radius                                                  0.4724315332
 OPT| Decrease in energy                                                     YES
 OPT| Used time [s]                                                        0.014
 OPT|
 OPT| Maximum step size                                             0.0186762169
 OPT| Convergence limit for maximum step size                       0.0030000000
 OPT| Maximum step size is converged                                          NO
 OPT|
 OPT| RMS step size                                                 0.0068757949
 OPT| Convergence limit for RMS step size                           0.0015000000
 OPT| RMS step size is converged                                              NO
 OPT|
 OPT| Maximum gradient                                              0.0020268626
 OPT| Convergence limit for maximum gradient                        0.0004500000
 OPT| Maximum gradient is converged                                           NO
 OPT|
 OPT| RMS gradient                                                  0.0007105439
 OPT| Convergence limit for RMS gradient                            0.0003000000
 OPT| RMS gradient is converged                                               NO
 OPT| **************************************************************************
 OPT| Estimated peak process memory after this step [MiB]                    167

 --------------------------
 OPTIMIZATION STEP:      3
 --------------------------

 Extrapolation method: ASPC

 Number of electrons:                                                         36
 Number of occupied orbitals:                                                 18
 Number of molecular orbitals:                                                38

 Number of orbital functions:                                                 38
 Number of independent orbital functions:                                     38


 SCF WAVEFUNCTION OPTIMIZATION

  Step     Update method      Time    Convergence         Total energy    Change
  ------------------------------------------------------------------------------
     1 TBLite/Diag 0.40E+00    0.0     0.02646408       -22.7619215053 -2.28E+01
     2 TBLite/Diag 0.40E+00    0.0     0.00032845       -22.7619218752 -3.70E-07
     3 TBLite/Diag 0.40E+00    0.0     0.00006581       -22.7619218843 -9.13E-09
     4 TBLite/Diag 0.40E+00    0.0     0.00002999       -22.7619218846 -2.17E-10
     5 TBLite/Diag 0.40E+00    0.0     0.00001459       -22.7619218850 -3.98E-10
     6 TBLite/Diag 0.40E+00    0.0     0.00000412       -22.7619218850 -3.38E-11
     7 TBLite/Diag 0.40E+00    0.0     0.00000122       -22.7619218850 -1.79E-12
     8 TBLite/Diag 0.40E+00    0.0     0.00000010       -22.7619218850 -3.55E-14
     9 TBLite/Diag 0.40E+00    0.0     0.00000002       -22.7619218850 -2.49E-14
    10 TBLite/Diag 0.40E+00    0.0     4.3821E-09       -22.7619218850  2.13E-14
    11 TBLite/Diag 0.40E+00    0.0     6.9581E-10       -22.7619218850 -2.13E-14

  *** SCF run converged in    11 steps ***


  Core Hamiltonian energy:                                    -23.08305762347328
  Repulsive potential energy:                                   0.21652320161876
  Electrostatic energy:                                         0.10836571086157
  Self-consistent dispersion energy:                            0.00000000000000
  Non-self consistent dispersion energy:                       -0.00375317399941
  Correction for halogen bonding:                               0.00000000000000
  Electronic entropic energy:                                  -0.00000000000000
  Fermi energy:                                                -0.24882581219073

  Total energy:                                               -22.76192188499236
  Total energy (extrapolated to T->0):                        -22.76192188499236

 ENERGY| Total FORCE_EVAL ( QS ) energy [hartree]            -22.761921884992361

 OPT| **************************************************************************
 OPT| Step number                                                              3
 OPT| Optimization method                                                   BFGS
 OPT| Total energy [hartree]                                      -22.7619218850
 OPT| Effective energy change [hartree]                            -0.0000445145
 OPT| Predicted energy change [hartree]                            -0.0000424010
 OPT| Scaling factor                                                0.0000000000
 OPT| Step size                                                     0.0167136478
 OPT| Trust radius                                                  0.4724315332
 OPT| Decrease in energy                                                     YES
 OPT| Used time [s]                                                        0.013
 OPT|
 OPT| Maximum step size                                             0.0167136478
 OPT| Convergence limit for maximum step size                       0.0030000000
 OPT| Maximum step size is converged                                          NO
 OPT|
 OPT| RMS step size                                                 0.0059164761
 OPT| Convergence limit for RMS step size                           0.0015000000
 OPT| RMS step size is converged                                              NO
 OPT|
 OPT| Maximum gradient                                              0.0023497208
 OPT| Convergence limit for maximum gradient                        0.0004500000
 OPT| Maximum gradient is converged                                           NO
 OPT|
 OPT| RMS gradient                                                  0.0007655851
 OPT| Convergence limit for RMS gradient                            0.0003000000
 OPT| RMS gradient is converged                                               NO
 OPT| **************************************************************************
 OPT| Estimated peak process memory after this step [MiB]                    167

 --------------------------
 OPTIMIZATION STEP:      4
 --------------------------

 Extrapolation method: ASPC

 Number of electrons:                                                         36
 Number of occupied orbitals:                                                 18
 Number of molecular orbitals:                                                38

 Number of orbital functions:                                                 38
 Number of independent orbital functions:                                     38


 SCF WAVEFUNCTION OPTIMIZATION

  Step     Update method      Time    Convergence         Total energy    Change
  ------------------------------------------------------------------------------
     1 TBLite/Diag 0.40E+00    0.0     0.02427531       -22.7619672616 -2.28E+01
     2 TBLite/Diag 0.40E+00    0.0     0.00054697       -22.7619680406 -7.79E-07
     3 TBLite/Diag 0.40E+00    0.0     0.00016718       -22.7619680603 -1.98E-08
     4 TBLite/Diag 0.40E+00    0.0     0.00008590       -22.7619680644 -4.11E-09
     5 TBLite/Diag 0.40E+00    0.0     0.00003562       -22.7619680661 -1.71E-09
     6 TBLite/Diag 0.40E+00    0.0     0.00000329       -22.7619680662 -2.39E-11
     7 TBLite/Diag 0.40E+00    0.0     0.00000195       -22.7619680662 -3.52E-12
     8 TBLite/Diag 0.40E+00    0.0     0.00000008       -22.7619680662 -1.78E-14
     9 TBLite/Diag 0.40E+00    0.0     0.00000003       -22.7619680662 -2.13E-14
    10 TBLite/Diag 0.40E+00    0.0     3.2265E-09       -22.7619680662  3.20E-14
    11 TBLite/Diag 0.40E+00    0.0     2.3625E-10       -22.7619680662 -1.42E-14

  *** SCF run converged in    11 steps ***


  Core Hamiltonian energy:                                    -23.08251121943172
  Repulsive potential energy:                                   0.21608482129763
  Electrostatic energy:                                         0.10821601448123
  Self-consistent dispersion energy:                            0.00000000000000
  Non-self consistent dispersion energy:                       -0.00375768251559
  Correction for halogen bonding:                               0.00000000000000
  Electronic entropic energy:                                  -0.00000000000000
  Fermi energy:                                                -0.24980516964115

  Total energy:                                               -22.76196806616845
  Total energy (extrapolated to T->0):                        -22.76196806616845

 ENERGY| Total FORCE_EVAL ( QS ) energy [hartree]            -22.761968066168450

 OPT| **************************************************************************
 OPT| Step number                                                              4
 OPT| Optimization method                                                   BFGS
 OPT| Total energy [hartree]                                      -22.7619680662
 OPT| Effective energy change [hartree]                            -0.0000461812
 OPT| Predicted energy change [hartree]                            -0.0000370980
 OPT| Scaling factor                                                0.0000000000
 OPT| Step size                                                     0.0195995631
 OPT| Trust radius                                                  0.4724315332
 OPT| Decrease in energy                                                     YES
 OPT| Used time [s]                                                        0.014
 OPT|
 OPT| Maximum step size                                             0.0195995631
 OPT| Convergence limit for maximum step size                       0.0030000000
 OPT| Maximum step size is converged                                          NO
 OPT|
 OPT| RMS step size                                                 0.0066870591
 OPT| Convergence limit for RMS step size                           0.0015000000
 OPT| RMS step size is converged                                              NO
 OPT|
 OPT| Maximum gradient                                              0.0012154262
 OPT| Convergence limit for maximum gradient                        0.0004500000
 OPT| Maximum gradient is converged                                           NO
 OPT|
 OPT| RMS gradient                                                  0.0004445877
 OPT| Convergence limit for RMS gradient                            0.0003000000
 OPT| RMS gradient is converged                                               NO
 OPT| **************************************************************************
 OPT| Estimated peak process memory after this step [MiB]                    167

 --------------------------
 OPTIMIZATION STEP:      5
 --------------------------

 Extrapolation method: ASPC

 Number of electrons:                                                         36
 Number of occupied orbitals:                                                 18
 Number of molecular orbitals:                                                38

 Number of orbital functions:                                                 38
 Number of independent orbital functions:                                     38


 SCF WAVEFUNCTION OPTIMIZATION

  Step     Update method      Time    Convergence         Total energy    Change
  ------------------------------------------------------------------------------
     1 TBLite/Diag 0.40E+00    0.0     0.02302021       -22.7619869766 -2.28E+01
     2 TBLite/Diag 0.40E+00    0.0     0.00049249       -22.7619872926 -3.16E-07
     3 TBLite/Diag 0.40E+00    0.0     0.00020650       -22.7619873097 -1.71E-08
     4 TBLite/Diag 0.40E+00    0.0     0.00009396       -22.7619873217 -1.20E-08
     5 TBLite/Diag 0.40E+00    0.0     0.00001271       -22.7619873222 -4.35E-10
     6 TBLite/Diag 0.40E+00    0.0     0.00000460       -22.7619873222 -2.77E-11
     7 TBLite/Diag 0.40E+00    0.0     0.00000022       -22.7619873222 -1.21E-13
     8 TBLite/Diag 0.40E+00    0.0     0.00000009       -22.7619873222 -2.49E-14
     9 TBLite/Diag 0.40E+00    0.0     7.5339E-09       -22.7619873222 -3.55E-15
    10 TBLite/Diag 0.40E+00    0.0     4.2862E-09       -22.7619873222  3.55E-15
    11 TBLite/Diag 0.40E+00    0.0     5.4789E-10       -22.7619873222 -3.55E-15

  *** SCF run converged in    11 steps ***


  Core Hamiltonian energy:                                    -23.08174217792949
  Repulsive potential energy:                                   0.21536927695610
  Electrostatic energy:                                         0.10814489570585
  Self-consistent dispersion energy:                            0.00000000000000
  Non-self consistent dispersion energy:                       -0.00375931691603
  Correction for halogen bonding:                               0.00000000000000
  Electronic entropic energy:                                  -0.00000000000000
  Fermi energy:                                                -0.25072542777891

  Total energy:                                               -22.76198732218357
  Total energy (extrapolated to T->0):                        -22.76198732218357

 ENERGY| Total FORCE_EVAL ( QS ) energy [hartree]            -22.761987322183568

 OPT| **************************************************************************
 OPT| Step number                                                              5
 OPT| Optimization method                                                   BFGS
 OPT| Total energy [hartree]                                      -22.7619873222
 OPT| Effective energy change [hartree]                            -0.0000192560
 OPT| Predicted energy change [hartree]                            -0.0000151138
 OPT| Scaling factor                                                0.0000000000
 OPT| Step size                                                     0.0172716088
 OPT| Trust radius                                                  0.4724315332
 OPT| Decrease in energy                                                     YES
 OPT| Used time [s]                                                        0.014
 OPT|
 OPT| Maximum step size                                             0.0172716088
 OPT| Convergence limit for maximum step size                       0.0030000000
 OPT| Maximum step size is converged                                          NO
 OPT|
 OPT| RMS step size                                                 0.0043985921
 OPT| Convergence limit for RMS step size                           0.0015000000
 OPT| RMS step size is converged                                              NO
 OPT|
 OPT| Maximum gradient                                              0.0012979930
 OPT| Convergence limit for maximum gradient                        0.0004500000
 OPT| Maximum gradient is converged                                           NO
 OPT|
 OPT| RMS gradient                                                  0.0004014081
 OPT| Convergence limit for RMS gradient                            0.0003000000
 OPT| RMS gradient is converged                                               NO
 OPT| **************************************************************************
 OPT| Estimated peak process memory after this step [MiB]                    167

 --------------------------
 OPTIMIZATION STEP:      6
 --------------------------

 Extrapolation method: ASPC

 Number of electrons:                                                         36
 Number of occupied orbitals:                                                 18
 Number of molecular orbitals:                                                38

 Number of orbital functions:                                                 38
 Number of independent orbital functions:                                     38


 SCF WAVEFUNCTION OPTIMIZATION

  Step     Update method      Time    Convergence         Total energy    Change
  ------------------------------------------------------------------------------
     1 TBLite/Diag 0.40E+00    0.0     0.02032430       -22.7619981396 -2.28E+01
     2 TBLite/Diag 0.40E+00    0.0     0.00075657       -22.7619985641 -4.25E-07
     3 TBLite/Diag 0.40E+00    0.0     0.00013369       -22.7619985810 -1.69E-08
     4 TBLite/Diag 0.40E+00    0.0     0.00006150       -22.7619985838 -2.77E-09
     5 TBLite/Diag 0.40E+00    0.0     0.00002660       -22.7619985850 -1.25E-09
     6 TBLite/Diag 0.40E+00    0.0     0.00000320       -22.7619985851 -4.45E-11
     7 TBLite/Diag 0.40E+00    0.0     0.00000137       -22.7619985851 -3.50E-12
     8 TBLite/Diag 0.40E+00    0.0     0.00000027       -22.7619985851 -9.95E-14
     9 TBLite/Diag 0.40E+00    0.0     0.00000003       -22.7619985851  3.55E-15
    10 TBLite/Diag 0.40E+00    0.0     7.4309E-09       -22.7619985851 -1.07E-14
    11 TBLite/Diag 0.40E+00    0.0     9.4134E-10       -22.7619985851  3.55E-15

  *** SCF run converged in    11 steps ***


  Core Hamiltonian energy:                                    -23.08126361624026
  Repulsive potential energy:                                   0.21492092691986
  Electrostatic energy:                                         0.10810375801239
  Self-consistent dispersion energy:                            0.00000000000000
  Non-self consistent dispersion energy:                       -0.00375965375538
  Correction for halogen bonding:                               0.00000000000000
  Electronic entropic energy:                                  -0.00000000000000
  Fermi energy:                                                -0.25124086693874

  Total energy:                                               -22.76199858506339
  Total energy (extrapolated to T->0):                        -22.76199858506339

 ENERGY| Total FORCE_EVAL ( QS ) energy [hartree]            -22.761998585063392

 OPT| **************************************************************************
 OPT| Step number                                                              6
 OPT| Optimization method                                                   BFGS
 OPT| Total energy [hartree]                                      -22.7619985851
 OPT| Effective energy change [hartree]                            -0.0000112629
 OPT| Predicted energy change [hartree]                            -0.0000092196
 OPT| Scaling factor                                                0.0000000000
 OPT| Step size                                                     0.0152094680
 OPT| Trust radius                                                  0.4724315332
 OPT| Decrease in energy                                                     YES
 OPT| Used time [s]                                                        0.014
 OPT|
 OPT| Maximum step size                                             0.0152094680
 OPT| Convergence limit for maximum step size                       0.0030000000
 OPT| Maximum step size is converged                                          NO
 OPT|
 OPT| RMS step size                                                 0.0036373205
 OPT| Convergence limit for RMS step size                           0.0015000000
 OPT| RMS step size is converged                                              NO
 OPT|
 OPT| Maximum gradient                                              0.0008959753
 OPT| Convergence limit for maximum gradient                        0.0004500000
 OPT| Maximum gradient is converged                                           NO
 OPT|
 OPT| RMS gradient                                                  0.0003713244
 OPT| Convergence limit for RMS gradient                            0.0003000000
 OPT| RMS gradient is converged                                               NO
 OPT| **************************************************************************
 OPT| Estimated peak process memory after this step [MiB]                    167

 --------------------------
 OPTIMIZATION STEP:      7
 --------------------------

 Extrapolation method: ASPC

 Number of electrons:                                                         36
 Number of occupied orbitals:                                                 18
 Number of molecular orbitals:                                                38

 Number of orbital functions:                                                 38
 Number of independent orbital functions:                                     38


 SCF WAVEFUNCTION OPTIMIZATION

  Step     Update method      Time    Convergence         Total energy    Change
  ------------------------------------------------------------------------------
     1 TBLite/Diag 0.40E+00    0.0     0.01217070       -22.7620047617 -2.28E+01
     2 TBLite/Diag 0.40E+00    0.0     0.00068251       -22.7620052291 -4.67E-07
     3 TBLite/Diag 0.40E+00    0.0     0.00004610       -22.7620052356 -6.46E-09
     4 TBLite/Diag 0.40E+00    0.0     0.00003415       -22.7620052363 -7.32E-10
     5 TBLite/Diag 0.40E+00    0.0     0.00001686       -22.7620052366 -2.86E-10
     6 TBLite/Diag 0.40E+00    0.0     0.00000352       -22.7620052366 -2.24E-11
     7 TBLite/Diag 0.40E+00    0.0     0.00000138       -22.7620052366 -3.03E-12
     8 TBLite/Diag 0.40E+00    0.0     0.00000016       -22.7620052366 -7.11E-14
     9 TBLite/Diag 0.40E+00    0.0     0.00000002       -22.7620052366  7.11E-15
    10 TBLite/Diag 0.40E+00    0.0     3.5833E-09       -22.7620052366 -7.11E-15
    11 TBLite/Diag 0.40E+00    0.0     5.3245E-10       -22.7620052366  7.11E-15

  *** SCF run converged in    11 steps ***


  Core Hamiltonian energy:                                    -23.08120124391186
  Repulsive potential energy:                                   0.21492844536066
  Electrostatic energy:                                         0.10802668363912
  Self-consistent dispersion energy:                            0.00000000000000
  Non-self consistent dispersion energy:                       -0.00375912171277
  Correction for halogen bonding:                               0.00000000000000
  Electronic entropic energy:                                  -0.00000000000000
  Fermi energy:                                                -0.25141337178726

  Total energy:                                               -22.76200523662486
  Total energy (extrapolated to T->0):                        -22.76200523662486

 ENERGY| Total FORCE_EVAL ( QS ) energy [hartree]            -22.762005236624855

 OPT| **************************************************************************
 OPT| Step number                                                              7
 OPT| Optimization method                                                   BFGS
 OPT| Total energy [hartree]                                      -22.7620052366
 OPT| Effective energy change [hartree]                            -0.0000066516
 OPT| Predicted energy change [hartree]                            -0.0000054583
 OPT| Scaling factor                                                0.0000000000
 OPT| Step size                                                     0.0084347247
 OPT| Trust radius                                                  0.4724315332
 OPT| Decrease in energy                                                     YES
 OPT| Used time [s]                                                        0.014
 OPT|
 OPT| Maximum step size                                             0.0084347247
 OPT| Convergence limit for maximum step size                       0.0030000000
 OPT| Maximum step size is converged                                          NO
 OPT|
 OPT| RMS step size                                                 0.0023849732
 OPT| Convergence limit for RMS step size                           0.0015000000
 OPT| RMS step size is converged                                              NO
 OPT|
 OPT| Maximum gradient                                              0.0006707427
 OPT| Convergence limit for maximum gradient                        0.0004500000
 OPT| Maximum gradient is converged                                           NO
 OPT|
 OPT| RMS gradient                                                  0.0002009189
 OPT| Convergence limit for RMS gradient                            0.0003000000
 OPT| RMS gradient is converged                                              YES
 OPT| **************************************************************************
 OPT| Estimated peak process memory after this step [MiB]                    167

 --------------------------
 OPTIMIZATION STEP:      8
 --------------------------

 Extrapolation method: ASPC

 Number of electrons:                                                         36
 Number of occupied orbitals:                                                 18
 Number of molecular orbitals:                                                38

 Number of orbital functions:                                                 38
 Number of independent orbital functions:                                     38


 SCF WAVEFUNCTION OPTIMIZATION

  Step     Update method      Time    Convergence         Total energy    Change
  ------------------------------------------------------------------------------
     1 TBLite/Diag 0.40E+00    0.0     0.00522376       -22.7620085533 -2.28E+01
     2 TBLite/Diag 0.40E+00    0.0     0.00035677       -22.7620087320 -1.79E-07
     3 TBLite/Diag 0.40E+00    0.0     0.00002621       -22.7620087341 -2.08E-09
     4 TBLite/Diag 0.40E+00    0.0     0.00001407       -22.7620087344 -3.19E-10
     5 TBLite/Diag 0.40E+00    0.0     0.00000394       -22.7620087345 -2.95E-11
     6 TBLite/Diag 0.40E+00    0.0     0.00000138       -22.7620087345 -3.79E-12
     7 TBLite/Diag 0.40E+00    0.0     0.00000059       -22.7620087345 -7.53E-13
     8 TBLite/Diag 0.40E+00    0.0     0.00000013       -22.7620087345 -3.55E-15
     9 TBLite/Diag 0.40E+00    0.0     0.00000001       -22.7620087345  3.55E-15
    10 TBLite/Diag 0.40E+00    0.0     2.7782E-09       -22.7620087345 -3.55E-15
    11 TBLite/Diag 0.40E+00    0.0     3.2119E-10       -22.7620087345 -1.78E-14

  *** SCF run converged in    11 steps ***


  Core Hamiltonian energy:                                    -23.08136218489158
  Repulsive potential energy:                                   0.21510434800557
  Electrostatic energy:                                         0.10800739653837
  Self-consistent dispersion energy:                            0.00000000000000
  Non-self consistent dispersion energy:                       -0.00375829413041
  Correction for halogen bonding:                               0.00000000000000
  Electronic entropic energy:                                  -0.00000000000000
  Fermi energy:                                                -0.25133295248950

  Total energy:                                               -22.76200873447806
  Total energy (extrapolated to T->0):                        -22.76200873447806

 ENERGY| Total FORCE_EVAL ( QS ) energy [hartree]            -22.762008734478059

 OPT| **************************************************************************
 OPT| Step number                                                              8
 OPT| Optimization method                                                   BFGS
 OPT| Total energy [hartree]                                      -22.7620087345
 OPT| Effective energy change [hartree]                            -0.0000034979
 OPT| Predicted energy change [hartree]                            -0.0000029113
 OPT| Scaling factor                                                0.0000000000
 OPT| Step size                                                     0.0042136041
 OPT| Trust radius                                                  0.4724315332
 OPT| Decrease in energy                                                     YES
 OPT| Used time [s]                                                        0.014
 OPT|
 OPT| Maximum step size                                             0.0042136041
 OPT| Convergence limit for maximum step size                       0.0030000000
 OPT| Maximum step size is converged                                          NO
 OPT|
 OPT| RMS step size                                                 0.0017058967
 OPT| Convergence limit for RMS step size                           0.0015000000
 OPT| RMS step size is converged                                              NO
 OPT|
 OPT| Maximum gradient                                              0.0004824721
 OPT| Convergence limit for maximum gradient                        0.0004500000
 OPT| Maximum gradient is converged                                           NO
 OPT|
 OPT| RMS gradient                                                  0.0001432109
 OPT| Convergence limit for RMS gradient                            0.0003000000
 OPT| RMS gradient is converged                                              YES
 OPT| **************************************************************************
 OPT| Estimated peak process memory after this step [MiB]                    167

 --------------------------
 OPTIMIZATION STEP:      9
 --------------------------

 Extrapolation method: ASPC

 Number of electrons:                                                         36
 Number of occupied orbitals:                                                 18
 Number of molecular orbitals:                                                38

 Number of orbital functions:                                                 38
 Number of independent orbital functions:                                     38


 SCF WAVEFUNCTION OPTIMIZATION

  Step     Update method      Time    Convergence         Total energy    Change
  ------------------------------------------------------------------------------
     1 TBLite/Diag 0.40E+00    0.0     0.00364007       -22.7620109166 -2.28E+01
     2 TBLite/Diag 0.40E+00    0.0     0.00020039       -22.7620109665 -5.00E-08
     3 TBLite/Diag 0.40E+00    0.0     0.00001213       -22.7620109672 -6.61E-10
     4 TBLite/Diag 0.40E+00    0.0     0.00001025       -22.7620109673 -8.14E-11
     5 TBLite/Diag 0.40E+00    0.0     0.00000405       -22.7620109673 -1.04E-11
     6 TBLite/Diag 0.40E+00    0.0     0.00000105       -22.7620109673 -1.77E-12
     7 TBLite/Diag 0.40E+00    0.0     0.00000036       -22.7620109673 -2.45E-13
     8 TBLite/Diag 0.40E+00    0.0     0.00000005       -22.7620109673 -1.42E-14
     9 TBLite/Diag 0.40E+00    0.0     6.4807E-09       -22.7620109673 -1.07E-14
    10 TBLite/Diag 0.40E+00    0.0     4.8472E-10       -22.7620109673  7.11E-15

  *** SCF run converged in    10 steps ***


  Core Hamiltonian energy:                                    -23.08138870769216
  Repulsive potential energy:                                   0.21516597311163
  Electrostatic energy:                                         0.10796971518293
  Self-consistent dispersion energy:                            0.00000000000000
  Non-self consistent dispersion energy:                       -0.00375794789919
  Correction for halogen bonding:                               0.00000000000000
  Electronic entropic energy:                                  -0.00000000000000
  Fermi energy:                                                -0.25140640133423

  Total energy:                                               -22.76201096729678
  Total energy (extrapolated to T->0):                        -22.76201096729678

 ENERGY| Total FORCE_EVAL ( QS ) energy [hartree]            -22.762010967296778

 OPT| **************************************************************************
 OPT| Step number                                                              9
 OPT| Optimization method                                                   BFGS
 OPT| Total energy [hartree]                                      -22.7620109673
 OPT| Effective energy change [hartree]                            -0.0000022328
 OPT| Predicted energy change [hartree]                            -0.0000016271
 OPT| Scaling factor                                                0.0000000000
 OPT| Step size                                                     0.0036365708
 OPT| Trust radius                                                  0.4724315332
 OPT| Decrease in energy                                                     YES
 OPT| Used time [s]                                                        0.013
 OPT|
 OPT| Maximum step size                                             0.0036365708
 OPT| Convergence limit for maximum step size                       0.0030000000
 OPT| Maximum step size is converged                                          NO
 OPT|
 OPT| RMS step size                                                 0.0014999947
 OPT| Convergence limit for RMS step size                           0.0015000000
 OPT| RMS step size is converged                                             YES
 OPT|
 OPT| Maximum gradient                                              0.0003990295
 OPT| Convergence limit for maximum gradient                        0.0004500000
 OPT| Maximum gradient is converged                                          YES
 OPT|
 OPT| RMS gradient                                                  0.0001508523
 OPT| Convergence limit for RMS gradient                            0.0003000000
 OPT| RMS gradient is converged                                              YES
 OPT| **************************************************************************
 OPT| Estimated peak process memory after this step [MiB]                    167

 --------------------------
 OPTIMIZATION STEP:     10
 --------------------------

 Extrapolation method: ASPC

 Number of electrons:                                                         36
 Number of occupied orbitals:                                                 18
 Number of molecular orbitals:                                                38

 Number of orbital functions:                                                 38
 Number of independent orbital functions:                                     38


 SCF WAVEFUNCTION OPTIMIZATION

  Step     Update method      Time    Convergence         Total energy    Change
  ------------------------------------------------------------------------------
     1 TBLite/Diag 0.40E+00    0.0     0.00355194       -22.7620129087 -2.28E+01
     2 TBLite/Diag 0.40E+00    0.0     0.00009517       -22.7620129389 -3.03E-08
     3 TBLite/Diag 0.40E+00    0.0     0.00001595       -22.7620129395 -5.06E-10
     4 TBLite/Diag 0.40E+00    0.0     0.00000822       -22.7620129395 -5.04E-12
     5 TBLite/Diag 0.40E+00    0.0     0.00000508       -22.7620129395 -4.51E-11
     6 TBLite/Diag 0.40E+00    0.0     0.00000100       -22.7620129395 -1.65E-12
     7 TBLite/Diag 0.40E+00    0.0     0.00000028       -22.7620129395 -8.88E-14
     8 TBLite/Diag 0.40E+00    0.0     0.00000003       -22.7620129395 -1.07E-14
     9 TBLite/Diag 0.40E+00    0.0     4.8723E-09       -22.7620129395  3.55E-15
    10 TBLite/Diag 0.40E+00    0.0     1.6244E-09       -22.7620129395  2.49E-14
    11 TBLite/Diag 0.40E+00    0.0     9.6181E-11       -22.7620129395 -1.78E-14

  *** SCF run converged in    11 steps ***


  Core Hamiltonian energy:                                    -23.08131044147726
  Repulsive potential energy:                                   0.21510847405956
  Electrostatic energy:                                         0.10794657936850
  Self-consistent dispersion energy:                            0.00000000000000
  Non-self consistent dispersion energy:                       -0.00375755145309
  Correction for halogen bonding:                               0.00000000000000
  Electronic entropic energy:                                  -0.00000000000000
  Fermi energy:                                                -0.25154022586054

  Total energy:                                               -22.76201293950228
  Total energy (extrapolated to T->0):                        -22.76201293950228

 ENERGY| Total FORCE_EVAL ( QS ) energy [hartree]            -22.762012939502284

 OPT| **************************************************************************
 OPT| Step number                                                             10
 OPT| Optimization method                                                   BFGS
 OPT| Total energy [hartree]                                      -22.7620129395
 OPT| Effective energy change [hartree]                            -0.0000019722
 OPT| Predicted energy change [hartree]                            -0.0000014660
 OPT| Scaling factor                                                0.0000000000
 OPT| Step size                                                     0.0054576438
 OPT| Trust radius                                                  0.4724315332
 OPT| Decrease in energy                                                     YES
 OPT| Used time [s]                                                        0.014
 OPT|
 OPT| Maximum step size                                             0.0054576438
 OPT| Convergence limit for maximum step size                       0.0030000000
 OPT| Maximum step size is converged                                          NO
 OPT|
 OPT| RMS step size                                                 0.0018439907
 OPT| Convergence limit for RMS step size                           0.0015000000
 OPT| RMS step size is converged                                              NO
 OPT|
 OPT| Maximum gradient                                              0.0003493246
 OPT| Convergence limit for maximum gradient                        0.0004500000
 OPT| Maximum gradient is converged                                          YES
 OPT|
 OPT| RMS gradient                                                  0.0001130939
 OPT| Convergence limit for RMS gradient                            0.0003000000
 OPT| RMS gradient is converged                                              YES
 OPT| **************************************************************************
 OPT| Estimated peak process memory after this step [MiB]                    167

 --------------------------
 OPTIMIZATION STEP:     11
 --------------------------

 Extrapolation method: ASPC

 Number of electrons:                                                         36
 Number of occupied orbitals:                                                 18
 Number of molecular orbitals:                                                38

 Number of orbital functions:                                                 38
 Number of independent orbital functions:                                     38


 SCF WAVEFUNCTION OPTIMIZATION

  Step     Update method      Time    Convergence         Total energy    Change
  ------------------------------------------------------------------------------
     1 TBLite/Diag 0.40E+00    0.0     0.00262961       -22.7620143094 -2.28E+01
     2 TBLite/Diag 0.40E+00    0.0     0.00008335       -22.7620143300 -2.05E-08
     3 TBLite/Diag 0.40E+00    0.0     0.00000766       -22.7620143302 -2.38E-10
     4 TBLite/Diag 0.40E+00    0.0     0.00000615       -22.7620143302 -4.96E-12
     5 TBLite/Diag 0.40E+00    0.0     0.00000348       -22.7620143302 -1.77E-11
     6 TBLite/Diag 0.40E+00    0.0     0.00000062       -22.7620143302 -9.52E-13
     7 TBLite/Diag 0.40E+00    0.0     0.00000029       -22.7620143302 -1.07E-13
     8 TBLite/Diag 0.40E+00    0.0     0.00000002       -22.7620143302 -7.11E-15
     9 TBLite/Diag 0.40E+00    0.0     4.1558E-09       -22.7620143302  1.78E-14
    10 TBLite/Diag 0.40E+00    0.0     5.3882E-10       -22.7620143302 -2.13E-14

  *** SCF run converged in    10 steps ***


  Core Hamiltonian energy:                                    -23.08120858607219
  Repulsive potential energy:                                   0.21500699483061
  Electrostatic energy:                                         0.10794462116707
  Self-consistent dispersion energy:                            0.00000000000000
  Non-self consistent dispersion energy:                       -0.00375736014743
  Correction for halogen bonding:                               0.00000000000000
  Electronic entropic energy:                                  -0.00000000000000
  Fermi energy:                                                -0.25163685084475

  Total energy:                                               -22.76201433022194
  Total energy (extrapolated to T->0):                        -22.76201433022194

 ENERGY| Total FORCE_EVAL ( QS ) energy [hartree]            -22.762014330221938

 OPT| **************************************************************************
 OPT| Step number                                                             11
 OPT| Optimization method                                                   BFGS
 OPT| Total energy [hartree]                                      -22.7620143302
 OPT| Effective energy change [hartree]                            -0.0000013907
 OPT| Predicted energy change [hartree]                            -0.0000009920
 OPT| Scaling factor                                                0.0000000000
 OPT| Step size                                                     0.0053635622
 OPT| Trust radius                                                  0.4724315332
 OPT| Decrease in energy                                                     YES
 OPT| Used time [s]                                                        0.013
 OPT|
 OPT| Maximum step size                                             0.0053635622
 OPT| Convergence limit for maximum step size                       0.0030000000
 OPT| Maximum step size is converged                                          NO
 OPT|
 OPT| RMS step size                                                 0.0016387306
 OPT| Convergence limit for RMS step size                           0.0015000000
 OPT| RMS step size is converged                                              NO
 OPT|
 OPT| Maximum gradient                                              0.0002120261
 OPT| Convergence limit for maximum gradient                        0.0004500000
 OPT| Maximum gradient is converged                                          YES
 OPT|
 OPT| RMS gradient                                                  0.0000810666
 OPT| Convergence limit for RMS gradient                            0.0003000000
 OPT| RMS gradient is converged                                              YES
 OPT| **************************************************************************
 OPT| Estimated peak process memory after this step [MiB]                    167

 --------------------------
 OPTIMIZATION STEP:     12
 --------------------------

 Extrapolation method: ASPC

 Number of electrons:                                                         36
 Number of occupied orbitals:                                                 18
 Number of molecular orbitals:                                                38

 Number of orbital functions:                                                 38
 Number of independent orbital functions:                                     38


 SCF WAVEFUNCTION OPTIMIZATION

  Step     Update method      Time    Convergence         Total energy    Change
  ------------------------------------------------------------------------------
     1 TBLite/Diag 0.40E+00    0.0     0.00298893       -22.7620156107 -2.28E+01
     2 TBLite/Diag 0.40E+00    0.0     0.00004401       -22.7620156160 -5.34E-09
     3 TBLite/Diag 0.40E+00    0.0     0.00000821       -22.7620156162 -1.47E-10
     4 TBLite/Diag 0.40E+00    0.0     0.00000485       -22.7620156162 -1.23E-11
     5 TBLite/Diag 0.40E+00    0.0     0.00000172       -22.7620156162 -3.71E-12
     6 TBLite/Diag 0.40E+00    0.0     0.00000055       -22.7620156162 -6.47E-13
     7 TBLite/Diag 0.40E+00    0.0     0.00000009       -22.7620156162 -3.91E-14
     8 TBLite/Diag 0.40E+00    0.0     0.00000002       -22.7620156162  2.49E-14
     9 TBLite/Diag 0.40E+00    0.0     2.3370E-09       -22.7620156162  7.11E-15
    10 TBLite/Diag 0.40E+00    0.0     3.1934E-10       -22.7620156162 -1.07E-14

  *** SCF run converged in    10 steps ***


  Core Hamiltonian energy:                                    -23.08111440970942
  Repulsive potential energy:                                   0.21491273542118
  Electrostatic energy:                                         0.10794345567890
  Self-consistent dispersion energy:                            0.00000000000000
  Non-self consistent dispersion energy:                       -0.00375739755968
  Correction for halogen bonding:                               0.00000000000000
  Electronic entropic energy:                                  -0.00000000000000
  Fermi energy:                                                -0.25168743268718

  Total energy:                                               -22.76201561616903
  Total energy (extrapolated to T->0):                        -22.76201561616903

 ENERGY| Total FORCE_EVAL ( QS ) energy [hartree]            -22.762015616169030

 OPT| **************************************************************************
 OPT| Step number                                                             12
 OPT| Optimization method                                                   BFGS
 OPT| Total energy [hartree]                                      -22.7620156162
 OPT| Effective energy change [hartree]                            -0.0000012859
 OPT| Predicted energy change [hartree]                            -0.0000009025
 OPT| Scaling factor                                                0.0000000000
 OPT| Step size                                                     0.0061048023
 OPT| Trust radius                                                  0.4724315332
 OPT| Decrease in energy                                                     YES
 OPT| Used time [s]                                                        0.013
 OPT|
 OPT| Maximum step size                                             0.0061048023
 OPT| Convergence limit for maximum step size                       0.0030000000
 OPT| Maximum step size is converged                                          NO
 OPT|
 OPT| RMS step size                                                 0.0018387832
 OPT| Convergence limit for RMS step size                           0.0015000000
 OPT| RMS step size is converged                                              NO
 OPT|
 OPT| Maximum gradient                                              0.0002719188
 OPT| Convergence limit for maximum gradient                        0.0004500000
 OPT| Maximum gradient is converged                                          YES
 OPT|
 OPT| RMS gradient                                                  0.0000914726
 OPT| Convergence limit for RMS gradient                            0.0003000000
 OPT| RMS gradient is converged                                              YES
 OPT| **************************************************************************
 OPT| Estimated peak process memory after this step [MiB]                    167

 --------------------------
 OPTIMIZATION STEP:     13
 --------------------------

 Extrapolation method: ASPC

 Number of electrons:                                                         36
 Number of occupied orbitals:                                                 18
 Number of molecular orbitals:                                                38

 Number of orbital functions:                                                 38
 Number of independent orbital functions:                                     38


 SCF WAVEFUNCTION OPTIMIZATION

  Step     Update method      Time    Convergence         Total energy    Change
  ------------------------------------------------------------------------------
     1 TBLite/Diag 0.40E+00    0.0     0.00341471       -22.7620166393 -2.28E+01
     2 TBLite/Diag 0.40E+00    0.0     0.00004266       -22.7620166429 -3.60E-09
     3 TBLite/Diag 0.40E+00    0.0     0.00000756       -22.7620166430 -1.05E-10
     4 TBLite/Diag 0.40E+00    0.0     0.00000434       -22.7620166430 -8.40E-12
     5 TBLite/Diag 0.40E+00    0.0     0.00000090       -22.7620166430 -8.60E-13
     6 TBLite/Diag 0.40E+00    0.0     0.00000034       -22.7620166430 -1.71E-13
     7 TBLite/Diag 0.40E+00    0.0     0.00000004       -22.7620166430 -7.11E-15
     8 TBLite/Diag 0.40E+00    0.0     2.7829E-09       -22.7620166430 -1.42E-14
     9 TBLite/Diag 0.40E+00    0.0     1.4497E-09       -22.7620166430  3.55E-15
    10 TBLite/Diag 0.40E+00    0.0     1.6024E-10       -22.7620166430  3.55E-15

  *** SCF run converged in    10 steps ***


  Core Hamiltonian energy:                                    -23.08110651079023
  Repulsive potential energy:                                   0.21489828902254
  Electrostatic energy:                                         0.10794923703225
  Self-consistent dispersion energy:                            0.00000000000000
  Non-self consistent dispersion energy:                       -0.00375765827946
  Correction for halogen bonding:                               0.00000000000000
  Electronic entropic energy:                                  -0.00000000000000
  Fermi energy:                                                -0.25165357304254

  Total energy:                                               -22.76201664301490
  Total energy (extrapolated to T->0):                        -22.76201664301490

 ENERGY| Total FORCE_EVAL ( QS ) energy [hartree]            -22.762016643014896

 OPT| **************************************************************************
 OPT| Step number                                                             13
 OPT| Optimization method                                                   BFGS
 OPT| Total energy [hartree]                                      -22.7620166430
 OPT| Effective energy change [hartree]                            -0.0000010268
 OPT| Predicted energy change [hartree]                            -0.0000007696
 OPT| Scaling factor                                                0.0000000000
 OPT| Step size                                                     0.0058886498
 OPT| Trust radius                                                  0.4724315332
 OPT| Decrease in energy                                                     YES
 OPT| Used time [s]                                                        0.013
 OPT|
 OPT| Maximum step size                                             0.0058886498
 OPT| Convergence limit for maximum step size                       0.0030000000
 OPT| Maximum step size is converged                                          NO
 OPT|
 OPT| RMS step size                                                 0.0018388940
 OPT| Convergence limit for RMS step size                           0.0015000000
 OPT| RMS step size is converged                                              NO
 OPT|
 OPT| Maximum gradient                                              0.0002473776
 OPT| Convergence limit for maximum gradient                        0.0004500000
 OPT| Maximum gradient is converged                                          YES
 OPT|
 OPT| RMS gradient                                                  0.0000830183
 OPT| Convergence limit for RMS gradient                            0.0003000000
 OPT| RMS gradient is converged                                              YES
 OPT| **************************************************************************
 OPT| Estimated peak process memory after this step [MiB]                    167

 --------------------------
 OPTIMIZATION STEP:     14
 --------------------------

 Extrapolation method: ASPC

 Number of electrons:                                                         36
 Number of occupied orbitals:                                                 18
 Number of molecular orbitals:                                                38

 Number of orbital functions:                                                 38
 Number of independent orbital functions:                                     38


 SCF WAVEFUNCTION OPTIMIZATION

  Step     Update method      Time    Convergence         Total energy    Change
  ------------------------------------------------------------------------------
     1 TBLite/Diag 0.40E+00    0.0     0.00171770       -22.7620170599 -2.28E+01
     2 TBLite/Diag 0.40E+00    0.0     0.00005536       -22.7620170675 -7.65E-09
     3 TBLite/Diag 0.40E+00    0.0     0.00000627       -22.7620170676 -7.42E-11
     4 TBLite/Diag 0.40E+00    0.0     0.00000279       -22.7620170676 -3.08E-12
     5 TBLite/Diag 0.40E+00    0.0     0.00000111       -22.7620170676 -2.57E-12
     6 TBLite/Diag 0.40E+00    0.0     0.00000033       -22.7620170676 -2.34E-13
     7 TBLite/Diag 0.40E+00    0.0     0.00000017       -22.7620170676 -3.55E-14
     8 TBLite/Diag 0.40E+00    0.0     7.7524E-09       -22.7620170676 -1.07E-14
     9 TBLite/Diag 0.40E+00    0.0     2.9098E-09       -22.7620170676  3.55E-15
    10 TBLite/Diag 0.40E+00    0.0     4.4036E-10       -22.7620170676  1.42E-14

  *** SCF run converged in    10 steps ***


  Core Hamiltonian energy:                                    -23.08116686090045
  Repulsive potential energy:                                   0.21495540129690
  Electrostatic energy:                                         0.10795232359480
  Self-consistent dispersion energy:                            0.00000000000000
  Non-self consistent dispersion energy:                       -0.00375793160967
  Correction for halogen bonding:                               0.00000000000000
  Electronic entropic energy:                                  -0.00000000000000
  Fermi energy:                                                -0.25159341078647

  Total energy:                                               -22.76201706761842
  Total energy (extrapolated to T->0):                        -22.76201706761842

 ENERGY| Total FORCE_EVAL ( QS ) energy [hartree]            -22.762017067618423

 OPT| **************************************************************************
 OPT| Step number                                                             14
 OPT| Optimization method                                                   BFGS
 OPT| Total energy [hartree]                                      -22.7620170676
 OPT| Effective energy change [hartree]                            -0.0000004246
 OPT| Predicted energy change [hartree]                            -0.0000003419
 OPT| Scaling factor                                                0.0000000000
 OPT| Step size                                                     0.0029452114
 OPT| Trust radius                                                  0.4724315332
 OPT| Decrease in energy                                                     YES
 OPT| Used time [s]                                                        0.013
 OPT|
 OPT| Maximum step size                                             0.0029452114
 OPT| Convergence limit for maximum step size                       0.0030000000
 OPT| Maximum step size is converged                                         YES
 OPT|
 OPT| RMS step size                                                 0.0009721699
 OPT| Convergence limit for RMS step size                           0.0015000000
 OPT| RMS step size is converged                                             YES
 OPT|
 OPT| Maximum gradient                                              0.0001211056
 OPT| Convergence limit for maximum gradient                        0.0004500000
 OPT| Maximum gradient is converged                                          YES
 OPT|
 OPT| RMS gradient                                                  0.0000422701
 OPT| Convergence limit for RMS gradient                            0.0003000000
 OPT| RMS gradient is converged                                              YES
 OPT| **************************************************************************
 OPT| Estimated peak process memory after this step [MiB]                    167

 *******************************************************************************
 ***                    GEOMETRY OPTIMIZATION COMPLETED                      ***
 *******************************************************************************

 write_final_structure: Optimization converged, writing XYZ file gladly:
  ethylcarbamate_GFN1_mol_geoopt-FINAL-1_14.xyz

 write_final_structure: Optimization converged, writing CIF file gladly:
  ethylcarbamate_GFN1_mol_geoopt-FINAL-1_14.cif

 write_final_structure: Done!

                    Reevaluating energy at the minimum

 Extrapolation method: ASPC

 Number of electrons:                                                         36
 Number of occupied orbitals:                                                 18
 Number of molecular orbitals:                                                38

 Number of orbital functions:                                                 38
 Number of independent orbital functions:                                     38


 SCF WAVEFUNCTION OPTIMIZATION

  Step     Update method      Time    Convergence         Total energy    Change
  ------------------------------------------------------------------------------
     1 TBLite/Diag 0.40E+00    0.0     1.3675E-10       -22.7620170676 -2.28E+01

  *** SCF run converged in     1 steps ***


  Core Hamiltonian energy:                                    -23.08116686091779
  Repulsive potential energy:                                   0.21495540129690
  Electrostatic energy:                                         0.10795232361214
  Self-consistent dispersion energy:                            0.00000000000000
  Non-self consistent dispersion energy:                       -0.00375793160967
  Correction for halogen bonding:                               0.00000000000000
  Electronic entropic energy:                                  -0.00000000000000
  Fermi energy:                                                -0.25159341080518

  Total energy:                                               -22.76201706761842
  Total energy (extrapolated to T->0):                        -22.76201706761842

 ENERGY| Total FORCE_EVAL ( QS ) energy [hartree]            -22.762017067618419

 -------------------------------------------------------------------------------
 -                                                                             -
 -                                DBCSR STATISTICS                             -
 -                                                                             -
 -------------------------------------------------------------------------------
 COUNTER                                    TOTAL       BLAS       SMM       ACC
 flops     2 x     6 x     2               152880       0.0%    100.0%      0.0%     
 flops     4 x     6 x     2               262080       0.0%    100.0%      0.0%     
 flops     2 x     6 x     4               262080       0.0%    100.0%      0.0%     
 flops     4 x     6 x     4               449280       0.0%    100.0%      0.0%     
 flops     2 x    32 x     2               815360       0.0%    100.0%      0.0%     
 flops     4 x    32 x     2              1397760       0.0%    100.0%      0.0%     
 flops     2 x    32 x     4              1397760       0.0%    100.0%      0.0%     
 flops     2 x     2 x    38              1676864       0.0%    100.0%      0.0%     
 flops     4 x    32 x     4              2396160       0.0%    100.0%      0.0%     
 flops     4 x     2 x    38              2515296       0.0%    100.0%      0.0%     
 flops     2 x     4 x    38              2515296       0.0%    100.0%      0.0%     
 flops     4 x     4 x    38              5030592       0.0%    100.0%      0.0%     
 flops inhomo. stacks                           0       0.0%      0.0%      0.0%
 flops total                        18.871408E+06       0.0%    100.0%      0.0%
 flops max/rank                     18.871408E+06       0.0%    100.0%      0.0%
 matmuls inhomo. stacks                         0       0.0%      0.0%      0.0%
 matmuls total                              39897       0.0%    100.0%      0.0%
 number of processed stacks                  1308       0.0%    100.0%      0.0%
 average stack size                                     0.0      30.5       0.0
 marketing flops                    17.374208E+06
 -------------------------------------------------------------------------------
 # multiplications                            262
 max memory usage/rank              13.671510E+09
 # max total images/rank                        1
 # max 3D layers                                1
 # MPI messages exchanged                       0
 -------------------------------------------------------------------------------
 -                                                                             -
 -                      DBCSR MESSAGE PASSING PERFORMANCE                      -
 -                                                                             -
 -------------------------------------------------------------------------------
 ROUTINE             CALLS      AVE VOLUME [Bytes]
 MP_Bcast               13                     12.
 MP_Allreduce         1223                      9.
 MP_Alltoall          8525                   7990.
 MP_ISend             1048                    875.
 MP_IRecv             1048                    875.
 -------------------------------------------------------------------------------

 -------------------------------------------------------------------------------
 -                                                                             -
 -                          OFFLOAD MEMPOOL STATISTICS                         -
 -                                                                             -
 -------------------------------------------------------------------------------
 Memory consumption                Number of allocations  Used [MiB]  Size [MiB]
 Device                                                1           0           0
 Host                                                  1           0           0
 -------------------------------------------------------------------------------

 MEMORY| Estimated peak process memory [MiB]                                 167

 -------------------------------------------------------------------------------
 -                                                                             -
 -                         MESSAGE PASSING PERFORMANCE                         -
 -                                                                             -
 -------------------------------------------------------------------------------

 ROUTINE             CALLS      AVE VOLUME [Bytes]
 MP_Group                1
 MP_Bcast              378                    161.
 MP_Allreduce         3177                     87.
 MP_Sync               198
 MP_comm_split         197
 -------------------------------------------------------------------------------


 -------------------------------------------------------------------------------
 -                                                                             -
 -                           R E F E R E N C E S                               -
 -                                                                             -
 -------------------------------------------------------------------------------
 
 CP2K version 2026.1 (Development Version), the CP2K developers group (2026).
 CP2K is freely available from https://www.cp2k.org/ .
 
 M. Iannuzzi, J. Wilhelm, F. Stein, A. Bussy, H. Elgabarty, D. Golze, A. Hehn, 
 M. Graml, S. Marek, B. Sertcan Gökmen, C. Schran, H. Forbert, R. Z. 
 Khaliullin, A. Kozhevnikov, M. Taillefumier, R. Meli, V. V. Rybkin, M. Brehm, 
 R. Schade, O. Schütt, J. V. Pototschnig, H. Mirhosseini, A. Knüpfer, D. Marx, 
 M. Krack, J. Hutter, T. D. Kühne.
 J. Phys. Chem. B 130, 1237-1310 (2026).
 The CP2K Program Package Made Simple.
 https://doi.org/10.1021/acs.jpcb.5c05851

 A. Katbashev, M. Stahn, T. Rose, V. Alizadeh, M. Friede, C. Plett, P. 
 Steinbach, S. Ehlert.
 J. Phys. Chem. A 129, 2667-2682 (2025).
 Overview on Building Blocks and Applications of Efficient and Robust Extended 
 Tight Binding.
 https://doi.org/10.1021/acs.jpca.4c08263

 T. D. Kühne, M. Iannuzzi, M. Del Ben, V. V. Rybkin, P. Seewald, F. Stein, T. 
 Laino, R. Z. Khaliullin, O. Schütt, F. Schiffmann, D. Golze, J. Wilhelm, S. 
 Chulkov, M. H. Bani-Hashemian, V. Weber, U. Borstnik, M. Taillefumier, A. S. 
 Jakobovits, A. Lazzaro, H. Pabst, T. Müller, R. Schade, M. Guidon, S. 
 Andermatt, N. Holmberg, G. K. Schenter, A. Hehn, A. Bussy, F. Belleflamme, G. 
 Tabacchi, A. Glöß, M. Lass, I. Bethune, C. J. Mundy, C. Plessl, M. Watkins, 
 J. VandeVondele, M. Krack, J. Hutter.
 J. Chem. Phys. 152, 194103 (2020).
 CP2K: An electronic structure and molecular dynamics software package - 
 Quickstep: Efficient and accurate electronic structure calculations.
 https://doi.org/10.1063/5.0007045

 P. Pracht, E. Caldeweyher, S. Ehlert, S. Grimme.
 ChemRxiv, (2019).
 A Robust Non-Self-Consistent Tight-Binding Quantum Chemistry Method for large 
 Molecules.
 https://doi.org/10.26434/chemrxiv.8326202.v1

 S. Grimme, C. Bannwarth, P. Shushkov.
 J. Chem. Theory Comput. 13, 1989 (2017).
 A Robust and Accurate Tight-Binding Quantum Chemical Method for Structures, 
 Vibrational Frequencies, and Noncovalent Interactions of Large Molecular 
 Systems Parametrized for All spd-Block Elements (Z = 1-86).
 https://doi.org/10.1021/acs.jctc.7b00118

 O. Schuett, P. Messmer, J. Hutter, J. VandeVondele.
 Electronic Structure Calculations on Graphics Processing Units, 173-190 (2016).
 GPU-Accelerated Sparse Matrix-Matrix Multiplication for Linear Scaling Density 
 Functional Theory.
 https://doi.org/10.1002/9781118670712.ch8

 A. Heinecke, G. Henry, M. Hutchinson, H. Pabst.
 Proceedings of Intl. Supercomputing Conference, 981-991 (2016).
 LIBXSMM: Accelerating Small Matrix Multiplications by Runtime Code Generation.
 https://doi.org/10.1109/SC.2016.83

 U. Borstnik, J. VandeVondele, V. Weber, J. Hutter.
 Parallel Comput. 40, 47-58 (2014).
 Sparse matrix multiplication: The distributed block-compressed sparse row 
 library.
 https://doi.org/10.1016/j.parco.2014.03.012

 T. D. Kühne, M. Krack, F. R. Mohamed, M. Parrinello.
 Phys. Rev. Lett. 98, 066401 (2007).
 Efficient and accurate Car-Parrinello-like approach to Born-Oppenheimer 
 molecular dynamics.
 https://doi.org/10.1103/PhysRevLett.98.066401

 M. Frigo, S. G. Johnson.
 Proc. IEEE 93, 216-231 (2005).
 The design and implementation of FFTW3.
 https://doi.org/10.1109/JPROC.2004.840301

 J. Kolafa.
 J. Comput. Chem. 25, 335-342 (2004).
 Time-reversible always stable predictor-corrector method for molecular dynamics 
 of polarizable molecules.
 https://doi.org/10.1002/jcc.10385

 N. D. Mermin.
 Phys. Rev. 137, A1441-A1443 (1965).
 Thermal Properties of the Inhomogeneous Electron Gas.
 https://doi.org/10.1103/PhysRev.137.A1441


 -------------------------------------------------------------------------------
 -                                                                             -
 -                                T I M I N G                                  -
 -                                                                             -
 -------------------------------------------------------------------------------
 SUBROUTINE                       CALLS  ASD         SELF TIME        TOTAL TIME
                                MAXIMUM       AVERAGE  MAXIMUM  AVERAGE  MAXIMUM
 CP2K                                 1  1.0    0.002    0.002    0.219    0.219
 cp_geo_opt                           1  2.0    0.000    0.000    0.212    0.212
 geoopt_bfgs                          1  3.0    0.001    0.001    0.212    0.212
 cp_eval_at                          16  4.0    0.001    0.001    0.202    0.202
 qs_forces                           15  5.0    0.001    0.001    0.198    0.198
 qs_energies                         16  5.9    0.000    0.000    0.169    0.169
 scf_env_do_scf                      16  6.9    0.000    0.000    0.125    0.125
 scf_env_do_scf_inner_loop          167  8.0    0.004    0.004    0.124    0.124
 qs_scf_new_mos                     167  9.0    0.000    0.000    0.106    0.106
 cp_dbcsr_plus_fm_fm_t              197 10.8    0.001    0.001    0.054    0.054
 calculate_dm_sparse                182 10.0    0.000    0.000    0.051    0.051
 dbcsr_multiply_generic             262 12.0    0.003    0.003    0.048    0.048
 copy_dbcsr_to_fm                   399 10.5    0.001    0.001    0.031    0.031
 dbcsr_complete_redistribute        858 12.2    0.017    0.017    0.030    0.030
 make_m2s                           524 13.0    0.001    0.001    0.027    0.027
 init_scf_run                        16  6.9    0.000    0.000    0.026    0.026
 eigensolver                        167 10.0    0.001    0.001    0.026    0.026
 cp_fm_syevd                        197 10.6    0.000    0.000    0.025    0.025
 rebuild_ks_matrix                  182  9.7    0.000    0.000    0.025    0.025
 build_tblite_ks_matrix             182 10.7    0.024    0.024    0.025    0.025
 scf_env_initial_rho_setup           16  7.9    0.000    0.000    0.024    0.024
 wfi_extrapolate                     16  8.9    0.000    0.000    0.024    0.024
 build_tblite_matrices               31  7.0    0.021    0.021    0.022    0.022
 qs_ks_update_qs_env_forces          15  6.0    0.000    0.000    0.019    0.019
 cp_fm_syevd_base                   197 11.6    0.019    0.019    0.019    0.019
 qs_diis_b_step                     151 10.0    0.000    0.000    0.017    0.017
 copy_fm_to_dbcsr                   459 11.8    0.000    0.000    0.016    0.016
 cp_dbcsr_sm_fm_multiply             65 10.4    0.000    0.000    0.015    0.015
 make_images                        524 14.0    0.003    0.003    0.012    0.012
 qs_energies_init_hamiltonians       16  6.9    0.000    0.000    0.012    0.012
 multiply_cannon                    262 13.0    0.004    0.004    0.010    0.010
 dbcsr_finalize                    3118 13.3    0.002    0.002    0.009    0.009
 cp_dbcsr_sm_fm_multiply_core        65 11.4    0.000    0.000    0.008    0.008
 dbcsr_desymmetrize_deep            399 11.5    0.004    0.004    0.008    0.008
 qs_ks_update_qs_env                167  9.0    0.000    0.000    0.007    0.007
 dbcsr_crop_matrix                  394 13.8    0.001    0.001    0.007    0.007
 dbcsr_create_new                  6061 13.4    0.005    0.005    0.007    0.007
 reorthogonalize_vectors             15  9.9    0.000    0.000    0.007    0.007
 make_basis_lowdin                   15 10.9    0.000    0.000    0.007    0.007
 dbcsr_copy_submatrix               394 14.8    0.002    0.002    0.005    0.005
 parallel_gemm_fm_gemm              447 10.6    0.000    0.000    0.005    0.005
 cp_fm_gemm                         447 11.6    0.005    0.005    0.005    0.005
 dbcsr_merge_all                   1449 14.9    0.003    0.003    0.005    0.005
 -------------------------------------------------------------------------------

 The number of warnings for this run is : 0
 
 -------------------------------------------------------------------------------
  **** **** ******  **  PROGRAM ENDED AT                 2026-05-23 22:46:19.751
 ***** ** ***  *** **   PROGRAM RAN ON                                spark-c86c
 **    ****   ******    PROGRAM RAN BY                                  kuehne88
 ***** **    ** ** **   PROGRAM PROCESS ID                               2222435
  **** **  *******  **  PROGRAM STOPPED IN /home/kuehne88/periodic-gfn2-benchmar
                                           ks/X23b/runs/molecule_geoopt/GFN1/eth
                                           ylcarbamate_GFN1_mol_geoopt
