 DBCSR| CPU Multiplication driver                                           BLAS (U)
 DBCSR| Multrec recursion limit                                              512 (U)
 DBCSR| Multiplication stack size                                           1000 (D)
 DBCSR| Maximum elements for images                                    UNLIMITED (U)
 DBCSR| Multiplicative factor virtual images                                   1 (U)
 DBCSR| Use multiplication densification                                       T (D)
 DBCSR| Multiplication size stacks                                             3 (U)
 DBCSR| Use memory pool for CPU allocation                                     F (U)
 DBCSR| Number of 3D layers                                               SINGLE (U)
 DBCSR| Use MPI memory allocation                                              F (U)
 DBCSR| Use RMA algorithm                                                      F (U)
 DBCSR| Use Communication thread                                               T (U)
 DBCSR| Communication thread load                                             87 (D)
 DBCSR| MPI: My process id                                                     0
 DBCSR| MPI: Number of processes                                               1
 DBCSR| OMP: Current number of threads                                         1
 DBCSR| OMP: Max number of threads                                             1
 DBCSR| Split modifier for TAS multiplication algorithm                  1.0E+00 (U)


  **** **** ******  **  PROGRAM STARTED AT               2026-07-21 17:56:52.363
 ***** ** ***  *** **   PROGRAM STARTED ON                                 terok
 **    ****   ******    PROGRAM STARTED BY                              kuehne88
 ***** **    ** ** **   PROGRAM PROCESS ID                               1490711
  **** **  *******  **  PROGRAM STARTED IN /home/kuehne88/work/h2o-molecular-lim
                                           it-fix-20260721/stress/raw/H2O_stress
                                           _L08

 CP2K| version string:                 CP2K version 2026.2 (Development Version)
 CP2K| source code revision number:                                    8520b2e59
 CP2K| cp2kflags: omp parallel scalapack spglib s_dftd3 mctc-lib tblite tblite_g
 CP2K|            xtb
 CP2K| is freely available from                            https://www.cp2k.org/
 CP2K| Program compiled at                                   2026-07-18 23:48:15
 CP2K| Program compiled on                                                 terok
 CP2K| Program compiled for                                               x86_64
 CP2K| Data directory path                            /usr/local/share/cp2k/data
 CP2K| Input file name        /home/kuehne88/work/h2o-molecular-limit-fix-202607

 GLOBAL| Force Environment number                                              1
 GLOBAL| Basis set file name                                           BASIS_SET
 GLOBAL| Potential file name                                           POTENTIAL
 GLOBAL| MM Potential file name                                     MM_POTENTIAL
 GLOBAL| Coordinate file name                                      __STD_INPUT__
 GLOBAL| Method name                                                        CP2K
 GLOBAL| Project name                                             H2O_stress_L08
 GLOBAL| Run type                                                          DEBUG
 GLOBAL| FFT library                                                       FFTW3
 GLOBAL| Diagonalization library                                       ScaLAPACK
 GLOBAL| Cholesky decomposition library                                ScaLAPACK
 GLOBAL| DGEMM library                                                      BLAS
 GLOBAL| Direct generalized diagonalization requested                          F
 GLOBAL| Orthonormality check for eigenvectors                          DISABLED
 GLOBAL| Matrix multiplication library                                 ScaLAPACK
 GLOBAL| All-to-all communication in single precision                          F
 GLOBAL| FFTs using library dependent lengths                                  F
 GLOBAL| Grid backend                                                       AUTO
 GLOBAL| Global print level                                               MEDIUM
 GLOBAL| MPI I/O enabled                                                       T
 GLOBAL| Total number of message passing processes                             1
 GLOBAL| Number of distributed systems (nodes)                                 1
 GLOBAL| Number of threads for this process                                    1
 GLOBAL| This output is from process                                           0
 GLOBAL| OpenMP stack size per thread (OMP_STACKSIZE)                    default
 GLOBAL| CPU model name                                       AMD EPYC Processor
 GLOBAL| CPUID                                                              1002

 MEMORY| system memory details [Kb]
 MEMORY|                        rank 0           min           max       average
 MEMORY| MemTotal            528104804     528104804     528104804     528104804
 MEMORY| MemFree             507381204     507381204     507381204     507381204
 MEMORY| Buffers                    20            20            20            20
 MEMORY| Cached               15187692      15187692      15187692      15187692
 MEMORY| Slab                  2496160       2496160       2496160       2496160
 MEMORY| SReclaimable          1120720       1120720       1120720       1120720
 MEMORY| MemLikelyFree       523689636     523689636     523689636     523689636


 *** WARNING in environment.F:1098 :: FFT library FFTW3 is not available. ***
 *** Trying FFT library FFTSG.                                            ***


 *** Fundamental physical constants (SI units) ***

 *** Literature: B. J. Mohr and B. N. Taylor,
 ***             CODATA recommended values of the fundamental physical
 ***             constants: 2006, Web Version 5.1
 ***             http://physics.nist.gov/constants

 Speed of light in vacuum [m/s]                             2.99792458000000E+08
 Magnetic constant or permeability of vacuum [N/A**2]       1.25663706143592E-06
 Electric constant or permittivity of vacuum [F/m]          8.85418781762039E-12
 Planck constant (h) [J*s]                                  6.62606896000000E-34
 Planck constant (h-bar) [J*s]                              1.05457162825177E-34
 Elementary charge [C]                                      1.60217648700000E-19
 Electron mass [kg]                                         9.10938215000000E-31
 Electron g factor [ ]                                     -2.00231930436220E+00
 Proton mass [kg]                                           1.67262163700000E-27
 Fine-structure constant                                    7.29735253760000E-03
 Rydberg constant [1/m]                                     1.09737315685270E+07
 Avogadro constant [1/mol]                                  6.02214179000000E+23
 Boltzmann constant [J/K]                                   1.38065040000000E-23
 Atomic mass unit [kg]                                      1.66053878200000E-27
 Bohr radius [m]                                            5.29177208590000E-11

 *** Conversion factors ***

 [u] -> [a.u.]                                              1.82288848426455E+03
 [Angstrom] -> [Bohr] = [a.u.]                              1.88972613288564E+00
 [a.u.] = [Bohr] -> [Angstrom]                              5.29177208590000E-01
 [a.u.] -> [s]                                              2.41888432650478E-17
 [a.u.] -> [fs]                                             2.41888432650478E-02
 [a.u.] -> [J]                                              4.35974393937059E-18
 [a.u.] -> [N]                                              8.23872205491840E-08
 [a.u.] -> [K]                                              3.15774647902944E+05
 [a.u.] -> [kJ/mol]                                         2.62549961709828E+03
 [a.u.] -> [kcal/mol]                                       6.27509468713739E+02
 [a.u.] -> [Pa]                                             2.94210107994716E+13
 [a.u.] -> [bar]                                            2.94210107994716E+08
 [a.u.] -> [atm]                                            2.90362800883016E+08
 [a.u.] -> [eV]                                             2.72113838565563E+01
 [a.u.] -> [Hz]                                             6.57968392072181E+15
 [a.u.] -> [1/cm] (wave numbers)                            2.19474631370540E+05
 [a.u./Bohr**2] -> [1/cm]                                   5.14048714338585E+03
 

 CELL| Volume [angstrom^3]:                                           512.000000
 CELL| Vector a [angstrom]:       8.000     0.000     0.000   |a| =     8.000000
 CELL| Vector b [angstrom]:       0.000     8.000     0.000   |b| =     8.000000
 CELL| Vector c [angstrom]:       0.000     0.000     8.000   |c| =     8.000000
 CELL| Angle (b,c), alpha [degree]:                                    90.000000
 CELL| Angle (a,c), beta  [degree]:                                    90.000000
 CELL| Angle (a,b), gamma [degree]:                                    90.000000
 CELL| Numerically orthorhombic:                                             YES
 CELL| Periodicity                                                           XYZ

 CELL_REF| Volume [angstrom^3]:                                       512.000000
 CELL_REF| Vector a [angstrom     8.000     0.000     0.000   |a| =     8.000000
 CELL_REF| Vector b [angstrom     0.000     8.000     0.000   |b| =     8.000000
 CELL_REF| Vector c [angstrom     0.000     0.000     8.000   |c| =     8.000000
 CELL_REF| Angle (b,c), alpha [degree]:                                90.000000
 CELL_REF| Angle (a,c), beta  [degree]:                                90.000000
 CELL_REF| Angle (a,b), gamma [degree]:                                90.000000
 CELL_REF| Numerically orthorhombic:                                         YES
 CELL_REF| Periodicity                                                       XYZ

 GENERATE|  Preliminary Number of Bonds generated:                             0
 GENERATE|  Achieved consistency in connectivity generation.


                  #####   #####        #     #   #     #       #          
                 #     # #     #      #    ##### #     #   # #####  ####  
                 #     # #           #       #   ###   #       #   #    # 
                 #     #  #####     #        #   #  #  #   #   #   ###### 
                 #   # #       #   #         #   #   # #   #   #   #      
                 #    #  #     #  #          #   #  #  # # #   #    #   # 
                  #### #  #####  #           #   ###   ##  #   #     ###  

                                     g-xTB   
                                 Version 0.0                       
                            Johann V. Pototschnig                  

                tblite provider: SAVE
                tblite source revision: 15915c9435644eb257178ca8f8bf7220c38b1a84
                g-xTB support: enabled

 xTB| Parameter file                                             xTB1_parameters
 xTB| Basis expansion STO-NG                                                   6
 xTB| Basis expansion STO-NG for Hydrogen                                      4
 xTB| Repulsive pair potential accuracy                               0.1000E-09
 xTB| Repulsive enhancement factor                                      0.000000
 xTB| Halogen interaction potential                                            T
 xTB| Halogen interaction potential cutoff radius                         20.000
 xTB| Nonbonded interactions                                                   F
 xTB| vdW potential type:                                              DFTD3(BJ)
 xTB| D3 Dispersion: Parameter                                         dftd3.dat
 xTB| Huckel constants ks kp kd                        1.850     2.250     2.000
 xTB| Huckel constants ksp k2sh                                  2.080     2.850
 xTB| Mataga-Nishimoto exponent                                            2.000
 xTB| Repulsion potential exponent                                         1.500
 xTB| Coordination number scaling kcn(s) kcn(p) kc     0.006    -0.003    -0.005
 xTB| Electronegativity scaling                                           -0.007
 xTB| Halogen potential scaling kxr kx2                          1.300     0.440
 xTB| SCC mixer:                                                       TBLITE
 xTB| tblite accuracy:                                                 1.000E-01
 xTB| tblite SCC mixer damping:                                            0.400
 xTB| tblite SCC mixer iterations:                                           300
 xTB| tblite SCC mixer memory:                                               300
 xTB| tblite SCC mixer solver:                                         GVD
 xTB| tblite SCC mixer omega0:                                         1.000E-02
 xTB| tblite SCC mixer min weight:                                     1.000E+00
 xTB| tblite SCC mixer max weight:                                     1.000E+05
 xTB| tblite SCC mixer weight factor:                                  1.000E-02




 ATOMIC KIND INFORMATION

  1. Atomic kind: H                                     Number of atoms:       2

     Orbital Basis Set                                                 H _STO-8G

       Number of orbital shell sets:                                           1
       Number of orbital shells:                                               1
       Number of primitive Cartesian functions:                                8
       Number of Cartesian basis functions:                                    1
       Number of spherical basis functions:                                    1
       Norm type:                                                              3

       Normalised Cartesian orbitals:

                        Set   Shell   Orbital            Exponent    Coefficient

                          1       1    1s              337.005012       0.037374
                                                        53.310531       0.063272
                                                        12.208253       0.115774
                                                         3.418827       0.175156
                                                         1.108790       0.218995
                                                         0.478718       0.126311
                                                         0.212137       0.088533
                                                         0.069058       0.001978

     AE Potential information for                                       Hydrogen

       Description:                                       Bare Coulomb Potential
                                                              Full atomic charge

       Gaussian exponent of the core charge distribution:              12.500000
       Electronic configuration (s p d ...):                       1   0   0   0

  2. Atomic kind: O                                     Number of atoms:       1

     Orbital Basis Set                                                 O _STO-6G

       Number of orbital shell sets:                                           2
       Number of orbital shells:                                               2
       Number of primitive Cartesian functions:                               12
       Number of Cartesian basis functions:                                    4
       Number of spherical basis functions:                                    4
       Norm type:                                                              3

       Normalised Cartesian orbitals:

                        Set   Shell   Orbital            Exponent    Coefficient

                          1       1    1s                3.483595      -1.312778
                                                         2.859866       1.114640
                                                         0.740681       0.294469
                                                         0.344927       0.081374
                                                         0.261979       0.039450
                                                         0.094616       0.012404

                          2       1    2px              37.641471       1.473846
                                                         9.713089       1.793230
                                                         3.137177       1.302657
                                                         1.121381       0.632971
                                                         0.398078       0.183037
                                                         0.123048       0.019201
                          2       1    2py              37.641471       1.473846
                                                         9.713089       1.793230
                                                         3.137177       1.302657
                                                         1.121381       0.632971
                                                         0.398078       0.183037
                                                         0.123048       0.019201
                          2       1    2pz              37.641471       1.473846
                                                         9.713089       1.793230
                                                         3.137177       1.302657
                                                         1.121381       0.632971
                                                         0.398078       0.183037
                                                         0.123048       0.019201

     AE Potential information for                                         Oxygen

       Description:                                       Bare Coulomb Potential
                                                             Valence charge only

       Gaussian exponent of the core charge distribution:               3.753049
       Electronic configuration (s p d ...):                       2   4   0   0


 MOLECULE KIND INFORMATION


 All atoms are their own molecule, skipping detailed information


 TOTAL NUMBERS AND MAXIMUM NUMBERS

  Total number of            - Atomic kinds:                                   2
                             - Atoms:                                          3
                             - Shell sets:                                     4
                             - Shells:                                         4
                             - Primitive Cartesian functions:                 28
                             - Cartesian basis functions:                      6
                             - Spherical basis functions:                      6

  Maximum angular momentum of the orbital basis functions:                     1


 MODULE QUICKSTEP: ATOMIC COORDINATES IN ANGSTROM

   Atom Kind Element         X             Y             Z       Z(eff)     Mass
      1    1 H     1     -0.012165      0.000000     -0.932352   1.0000   1.0079
      2    1 H     1      0.875098      0.000000      0.321998   1.0000   1.0079
      3    2 O     8     -0.054364      0.000000      0.038451   6.0000  15.9994



 SCF PARAMETERS         Density guess:                                     MOPAC
                        --------------------------------------------------------
                        max_scf:                                             300
                        max_scf_history:                                       0
                        max_diis:                                              4
                        --------------------------------------------------------
                        eps_scf:                                        1.00E-10
                        eps_scf_history:                                0.00E+00
                        eps_diis:                                       1.00E-01
                        eps_eigval:                                     1.00E-05
                        --------------------------------------------------------
                        level_shift [a.u.]:                             0.000000
                        added MOs                                         2    0
                        --------------------------------------------------------
                        Mixing method:                           DIRECT_P_MIXING
                        --------------------------------------------------------
                        No outer SCF

 PW_GRID| Information for grid number                                          1
 PW_GRID| Cutoff [a.u.]                                                      1.0
 PW_GRID| spherical cutoff:                                                   NO
 PW_GRID|   Bounds   1             -4       3                Points:           8
 PW_GRID|   Bounds   2             -4       3                Points:           8
 PW_GRID|   Bounds   3             -4       3                Points:           8
 PW_GRID| Volume element (a.u.^3)   6.748         Volume (a.u.^3)      3455.1473
 PW_GRID| Grid span                                                    FULLSPACE

 POISSON| Solver                                                        PERIODIC
 POISSON| Periodicity                                                        XYZ

 RS_GRID| Information for grid number                                          1
 RS_GRID|   Bounds   1             -4       3                Points:           8
 RS_GRID|   Bounds   2             -4       3                Points:           8
 RS_GRID|   Bounds   3             -4       3                Points:           8

 Extrapolation method: initial_guess

 Number of electrons:                                                          8
 Number of occupied orbitals:                                                  4
 Number of molecular orbitals:                                                 6

 Number of orbital functions:                                                  6
 Number of independent orbital functions:                                      6


 SCF WAVEFUNCTION OPTIMIZATION

  Step     Update method      Time    Convergence         Total energy    Change
  ------------------------------------------------------------------------------
     1 GXTB-Raw    0.10E+01    0.0     0.75954991       -76.5036894219 -7.65E+01
     2 GXTB-Simple 0.20E+00    0.0     0.05454275       -76.5176691159 -1.40E-02
     3 GXTB-Simple 0.20E+00    0.0     0.03828421       -76.5249297483 -7.26E-03
     4 GXTB-FDIIS  0.10E+01    0.0     0.08531194       -76.5327692774 -7.84E-03
     5 GXTB-FDIIS  0.10E+01    0.0     0.00720747       -76.5328183271 -4.90E-05
     6 GXTB-FDIIS  0.10E+01    0.0     0.00137480       -76.5328189407 -6.14E-07
     7 GXTB-FDIIS  0.10E+01    0.0     0.00005918       -76.5328189425 -1.81E-09
     8 GXTB-FDIIS  0.10E+01    0.0     0.00000814       -76.5328189425 -3.80E-11
     9 GXTB-FDIIS  0.10E+01    0.0     0.00000074       -76.5328189425 -4.26E-14
    10 GXTB-FDIIS  0.10E+01    0.0     0.00000024       -76.5328189425 -1.42E-14
    11 GXTB-FDIIS  0.10E+01    0.0     1.0907E-10       -76.5328189425 -1.42E-14
    12 GXTB-FDIIS  0.10E+01    0.0     1.3365E-11       -76.5328189425  0.00E+00

  *** SCF run converged in    12 steps ***


  Core Hamiltonian energy:                                     -6.24864806251959
  Repulsive potential energy:                                   0.31804647321811
  Electrostatic energy:                                         0.15847127830202
  Self-consistent dispersion energy:                           -0.00005659681852
  Non-self consistent dispersion energy:                        0.00000040322649
  Correction for halogen bonding:                               0.00000000000000

  Total energy:                                               -76.53281894254921


 MULLIKEN POPULATION ANALYSIS

  # Atom   Element   Kind        Atomic population                    Net charge
       1     H          1                 0.662434                      0.337566
       2     H          1                 0.662466                      0.337534
       3     O          2                 6.675100                     -0.675100
 # Total charge                           8.000000                     -0.000000


 tblite reference CLI check
 Executable: tblite
 Method:     gxtb
 Guess:      auto
 Solver:     gvd
 Spin-pol.:  F
 Grad file:  H2O_stress_L08_cli.grad
 JSON file:  H2O_stress_L08_cli.json
 Log file:   H2O_stress_L08_cli.log
 Energy CP2K/CLI/absdiff:   -7.653281894255E+01   -7.653281894352E+01    9.678586820883E-10
 Gradient diff sum/max:    5.706568833086E-08    1.558466923915E-08
 Virial diff sum/max:    5.252875430239E-08    2.470511954733E-08

 ENERGY| Total FORCE_EVAL ( QS ) energy [hartree]            -76.532818942549213

 -------------------------------------------------------------------------------
 ----                             MULTIGRID INFO                            ----
 -------------------------------------------------------------------------------
 total grid count     :           420              cutoff [a.u.]            1.00

 PW_GRID| Information for grid number                                          2
 PW_GRID| Cutoff [a.u.]                                                      1.0
 PW_GRID| spherical cutoff:                                                   NO
 PW_GRID|   Bounds   1             -4       3                Points:           8
 PW_GRID|   Bounds   2             -4       3                Points:           8
 PW_GRID|   Bounds   3             -4       3                Points:           8
 PW_GRID| Volume element (a.u.^3)   6.748         Volume (a.u.^3)      3455.1702
 PW_GRID| Grid span                                                    FULLSPACE

 POISSON| Solver                                                        PERIODIC
 POISSON| Periodicity                                                        XYZ

 RS_GRID| Information for grid number                                          2
 RS_GRID|   Bounds   1             -4       3                Points:           8
 RS_GRID|   Bounds   2             -4       3                Points:           8
 RS_GRID|   Bounds   3             -4       3                Points:           8

 Parameters for the always stable predictor-corrector (ASPC) method:

  ASPC order: 0

  B(1) =   1.000000

 Extrapolation method: ASPC

 Number of electrons:                                                          8
 Number of occupied orbitals:                                                  4
 Number of molecular orbitals:                                                 6

 Number of orbital functions:                                                  6
 Number of independent orbital functions:                                      6


 SCF WAVEFUNCTION OPTIMIZATION

  Step     Update method      Time    Convergence         Total energy    Change
  ------------------------------------------------------------------------------
     1 GXTB-Raw    0.10E+01    0.0     0.00000242       -76.5328183916 -7.65E+01
     2 GXTB-Simple 0.20E+00    0.0     0.00000049       -76.5328183916 -7.82E-13
     3 GXTB-Simple 0.20E+00    0.0     0.00000040       -76.5328183916 -5.26E-13
     4 GXTB-FDIIS  0.10E+01    0.0     0.00000190       -76.5328183916 -1.09E-12
     5 GXTB-FDIIS  0.10E+01    0.0     0.00000008       -76.5328183916 -1.42E-14
     6 GXTB-FDIIS  0.10E+01    0.0     0.00000005       -76.5328183916  0.00E+00
     7 GXTB-FDIIS  0.10E+01    0.0     1.6097E-09       -76.5328183916  0.00E+00
     8 GXTB-FDIIS  0.10E+01    0.0     1.8661E-10       -76.5328183916  0.00E+00
     9 GXTB-FDIIS  0.10E+01    0.0     1.9162E-12       -76.5328183916  0.00E+00

  *** SCF run converged in     9 steps ***


  Core Hamiltonian energy:                                     -6.24864390629126
  Repulsive potential energy:                                   0.31804249657150
  Electrostatic energy:                                         0.15847134646982
  Self-consistent dispersion energy:                           -0.00005659691923
  Non-self consistent dispersion energy:                        0.00000040323087
  Correction for halogen bonding:                               0.00000000000000

  Total energy:                                               -76.53281839155453


 MULLIKEN POPULATION ANALYSIS

  # Atom   Element   Kind        Atomic population                    Net charge
       1     H          1                 0.662434                      0.337566
       2     H          1                 0.662466                      0.337534
       3     O          2                 6.675099                     -0.675099
 # Total charge                           8.000000                     -0.000000


 tblite reference CLI check
 Executable: tblite
 Method:     gxtb
 Guess:      auto
 Solver:     gvd
 Spin-pol.:  F
 Grad file:  H2O_stress_L08_cli.grad
 JSON file:  H2O_stress_L08_cli.json
 Log file:   H2O_stress_L08_cli.log
 Energy CP2K/CLI/absdiff:   -7.653281839155E+01   -7.653281839252E+01    9.679155255071E-10
 Gradient diff sum/max:    1.232672666134E-05    4.709458015079E-06
 Virial diff sum/max:    2.323753286672E-01    8.330257381141E-02
 tblite reference CLI deviation exceeded ERROR_LIMIT =   1.0000E-05

 ENERGY| Total FORCE_EVAL ( QS ) energy [hartree]            -76.532818391554528

 -------------------------------------------------------------------------------
 ----                             MULTIGRID INFO                            ----
 -------------------------------------------------------------------------------
 total grid count     :           420              cutoff [a.u.]            1.00

 PW_GRID| Information for grid number                                          3
 PW_GRID| Cutoff [a.u.]                                                      1.0
 PW_GRID| spherical cutoff:                                                   NO
 PW_GRID|   Bounds   1             -4       3                Points:           8
 PW_GRID|   Bounds   2             -4       3                Points:           8
 PW_GRID|   Bounds   3             -4       3                Points:           8
 PW_GRID| Volume element (a.u.^3)   6.748         Volume (a.u.^3)      3455.1245
 PW_GRID| Grid span                                                    FULLSPACE

 POISSON| Solver                                                        PERIODIC
 POISSON| Periodicity                                                        XYZ

 RS_GRID| Information for grid number                                          3
 RS_GRID|   Bounds   1             -4       3                Points:           8
 RS_GRID|   Bounds   2             -4       3                Points:           8
 RS_GRID|   Bounds   3             -4       3                Points:           8

 Parameters for the always stable predictor-corrector (ASPC) method:

  ASPC order: 0

  B(1) =   2.000000
  B(2) =  -1.000000

 Extrapolation method: ASPC

 Number of electrons:                                                          8
 Number of occupied orbitals:                                                  4
 Number of molecular orbitals:                                                 6

 Number of orbital functions:                                                  6
 Number of independent orbital functions:                                      6


 SCF WAVEFUNCTION OPTIMIZATION

  Step     Update method      Time    Convergence         Total energy    Change
  ------------------------------------------------------------------------------
     1 GXTB-Raw    0.10E+01    0.0     0.00000484       -76.5328194935 -7.65E+01
     2 GXTB-Simple 0.20E+00    0.0     0.00000097       -76.5328194935 -3.13E-12
     3 GXTB-Simple 0.20E+00    0.0     0.00000081       -76.5328194935 -2.09E-12
     4 GXTB-FDIIS  0.10E+01    0.0     0.00000379       -76.5328194935 -4.46E-12
     5 GXTB-FDIIS  0.10E+01    0.0     0.00000016       -76.5328194935 -2.84E-14
     6 GXTB-FDIIS  0.10E+01    0.0     0.00000009       -76.5328194935  1.42E-14
     7 GXTB-FDIIS  0.10E+01    0.0     3.2193E-09       -76.5328194935  0.00E+00
     8 GXTB-FDIIS  0.10E+01    0.0     3.7323E-10       -76.5328194935 -1.42E-14
     9 GXTB-FDIIS  0.10E+01    0.0     3.8353E-12       -76.5328194935  1.42E-14

  *** SCF run converged in     9 steps ***


  Core Hamiltonian energy:                                     -6.24865221877704
  Repulsive potential energy:                                   0.31805044995337
  Electrostatic energy:                                         0.15847121013675
  Self-consistent dispersion energy:                           -0.00005659671782
  Non-self consistent dispersion energy:                        0.00000040322211
  Correction for halogen bonding:                               0.00000000000000

  Total energy:                                               -76.53281949349460


 MULLIKEN POPULATION ANALYSIS

  # Atom   Element   Kind        Atomic population                    Net charge
       1     H          1                 0.662434                      0.337566
       2     H          1                 0.662465                      0.337535
       3     O          2                 6.675100                     -0.675100
 # Total charge                           8.000000                      0.000000


 tblite reference CLI check
 Executable: tblite
 Method:     gxtb
 Guess:      auto
 Solver:     gvd
 Spin-pol.:  F
 Grad file:  H2O_stress_L08_cli.grad
 JSON file:  H2O_stress_L08_cli.json
 Log file:   H2O_stress_L08_cli.log
 Energy CP2K/CLI/absdiff:   -7.653281949349E+01   -7.653281949446E+01    9.678444712335E-10
 Gradient diff sum/max:    1.234547449124E-05    4.740785468544E-06
 Virial diff sum/max:    2.323678296850E-01    8.328657632262E-02
 tblite reference CLI deviation exceeded ERROR_LIMIT =   1.0000E-05

 ENERGY| Total FORCE_EVAL ( QS ) energy [hartree]            -76.532819493494600

 -------------------------------------------------------------------------------
 ----                             MULTIGRID INFO                            ----
 -------------------------------------------------------------------------------
 total grid count     :           420              cutoff [a.u.]            1.00

 PW_GRID| Information for grid number                                          4
 PW_GRID| Cutoff [a.u.]                                                      1.0
 PW_GRID| spherical cutoff:                                                   NO
 PW_GRID|   Bounds   1             -4       3                Points:           8
 PW_GRID|   Bounds   2             -4       3                Points:           8
 PW_GRID|   Bounds   3             -4       3                Points:           8
 PW_GRID| Volume element (a.u.^3)   6.748         Volume (a.u.^3)      3455.1473
 PW_GRID| Grid span                                                    FULLSPACE

 POISSON| Solver                                                        PERIODIC
 POISSON| Periodicity                                                        XYZ

 RS_GRID| Information for grid number                                          4
 RS_GRID|   Bounds   1             -4       3                Points:           8
 RS_GRID|   Bounds   2             -4       3                Points:           8
 RS_GRID|   Bounds   3             -4       3                Points:           8

 Parameters for the always stable predictor-corrector (ASPC) method:

  ASPC order: 1

  B(1) =   2.500000
  B(2) =  -2.000000
  B(3) =   0.500000

 Extrapolation method: ASPC

 Number of electrons:                                                          8
 Number of occupied orbitals:                                                  4
 Number of molecular orbitals:                                                 6

 Number of orbital functions:                                                  6
 Number of independent orbital functions:                                      6


 SCF WAVEFUNCTION OPTIMIZATION

  Step     Update method      Time    Convergence         Total energy    Change
  ------------------------------------------------------------------------------
     1 GXTB-Raw    0.10E+01    0.0     0.00000242       -76.5328189425 -7.65E+01
     2 GXTB-Simple 0.20E+00    0.0     0.00000049       -76.5328189425 -7.82E-13
     3 GXTB-Simple 0.20E+00    0.0     0.00000040       -76.5328189425 -5.26E-13
     4 GXTB-FDIIS  0.10E+01    0.0     0.00000190       -76.5328189425 -1.11E-12
     5 GXTB-FDIIS  0.10E+01    0.0     0.00000008       -76.5328189425  0.00E+00
     6 GXTB-FDIIS  0.10E+01    0.0     0.00000005       -76.5328189425 -1.42E-14
     7 GXTB-FDIIS  0.10E+01    0.0     1.6097E-09       -76.5328189425  0.00E+00
     8 GXTB-FDIIS  0.10E+01    0.0     1.8661E-10       -76.5328189425  0.00E+00
     9 GXTB-FDIIS  0.10E+01    0.0     1.9173E-12       -76.5328189425  1.42E-14

  *** SCF run converged in     9 steps ***


  Core Hamiltonian energy:                                     -6.24864806251944
  Repulsive potential energy:                                   0.31804647321811
  Electrostatic energy:                                         0.15847127830194
  Self-consistent dispersion energy:                           -0.00005659681852
  Non-self consistent dispersion energy:                        0.00000040322649
  Correction for halogen bonding:                               0.00000000000000

  Total energy:                                               -76.53281894254786


 MULLIKEN POPULATION ANALYSIS

  # Atom   Element   Kind        Atomic population                    Net charge
       1     H          1                 0.662434                      0.337566
       2     H          1                 0.662466                      0.337534
       3     O          2                 6.675100                     -0.675100
 # Total charge                           8.000000                     -0.000000


 tblite reference CLI check
 Executable: tblite
 Method:     gxtb
 Guess:      auto
 Solver:     gvd
 Spin-pol.:  F
 Grad file:  H2O_stress_L08_cli.grad
 JSON file:  H2O_stress_L08_cli.json
 Log file:   H2O_stress_L08_cli.log
 Energy CP2K/CLI/absdiff:   -7.653281894255E+01   -7.653281894352E+01    9.678728929430E-10
 Gradient diff sum/max:    6.095842421143E-08    1.558475472979E-08
 Virial diff sum/max:    2.323723880323E-01    8.329457516108E-02
 tblite reference CLI deviation exceeded ERROR_LIMIT =   1.0000E-05

 ENERGY| Total FORCE_EVAL ( QS ) energy [hartree]            -76.532818942547863

 -------------------------------------------------------------------------------
 ----                             MULTIGRID INFO                            ----
 -------------------------------------------------------------------------------
 total grid count     :           420              cutoff [a.u.]            1.00

 PW_GRID| Information for grid number                                          5
 PW_GRID| Cutoff [a.u.]                                                      1.0
 PW_GRID| spherical cutoff:                                                   NO
 PW_GRID|   Bounds   1             -4       3                Points:           8
 PW_GRID|   Bounds   2             -4       3                Points:           8
 PW_GRID|   Bounds   3             -4       3                Points:           8
 PW_GRID| Volume element (a.u.^3)   6.748         Volume (a.u.^3)      3455.1473
 PW_GRID| Grid span                                                    FULLSPACE

 POISSON| Solver                                                        PERIODIC
 POISSON| Periodicity                                                        XYZ

 RS_GRID| Information for grid number                                          5
 RS_GRID|   Bounds   1             -4       3                Points:           8
 RS_GRID|   Bounds   2             -4       3                Points:           8
 RS_GRID|   Bounds   3             -4       3                Points:           8

 Parameters for the always stable predictor-corrector (ASPC) method:

  ASPC order: 2

  B(1) =   2.800000
  B(2) =  -2.800000
  B(3) =   1.200000
  B(4) =  -0.200000

 Extrapolation method: ASPC

 Number of electrons:                                                          8
 Number of occupied orbitals:                                                  4
 Number of molecular orbitals:                                                 6

 Number of orbital functions:                                                  6
 Number of independent orbital functions:                                      6


 SCF WAVEFUNCTION OPTIMIZATION

  Step     Update method      Time    Convergence         Total energy    Change
  ------------------------------------------------------------------------------
     1 GXTB-Raw    0.10E+01    0.0     3.3750E-09       -76.5328189425 -7.65E+01
     2 GXTB-Simple 0.20E+00    0.0     1.5294E-10       -76.5328189425  0.00E+00
     3 GXTB-Simple 0.20E+00    0.0     1.2916E-10       -76.5328189425  0.00E+00
     4 GXTB-FDIIS  0.10E+01    0.0     7.0180E-10       -76.5328189425  1.42E-14
     5 GXTB-FDIIS  0.10E+01    0.0     1.5278E-12       -76.5328189425 -1.42E-14

  *** SCF run converged in     5 steps ***


  Core Hamiltonian energy:                                     -6.24864806251943
  Repulsive potential energy:                                   0.31804647321811
  Electrostatic energy:                                         0.15847127830194
  Self-consistent dispersion energy:                           -0.00005659681852
  Non-self consistent dispersion energy:                        0.00000040322649
  Correction for halogen bonding:                               0.00000000000000

  Total energy:                                               -76.53281894254788


 MULLIKEN POPULATION ANALYSIS

  # Atom   Element   Kind        Atomic population                    Net charge
       1     H          1                 0.662434                      0.337566
       2     H          1                 0.662466                      0.337534
       3     O          2                 6.675100                     -0.675100
 # Total charge                           8.000000                      0.000000


 tblite reference CLI check
 Executable: tblite
 Method:     gxtb
 Guess:      auto
 Solver:     gvd
 Spin-pol.:  F
 Grad file:  H2O_stress_L08_cli.grad
 JSON file:  H2O_stress_L08_cli.json
 Log file:   H2O_stress_L08_cli.log
 Energy CP2K/CLI/absdiff:   -7.653281894255E+01   -7.653281894352E+01    9.678586820883E-10
 Gradient diff sum/max:    6.095842512626E-08    1.558475472979E-08
 Virial diff sum/max:    2.323723880323E-01    8.329457516108E-02
 tblite reference CLI deviation exceeded ERROR_LIMIT =   1.0000E-05

 ENERGY| Total FORCE_EVAL ( QS ) energy [hartree]            -76.532818942547877

 -------------------------------------------------------------------------------
 ----                             MULTIGRID INFO                            ----
 -------------------------------------------------------------------------------
 total grid count     :           420              cutoff [a.u.]            1.00

 PW_GRID| Information for grid number                                          6
 PW_GRID| Cutoff [a.u.]                                                      1.0
 PW_GRID| spherical cutoff:                                                   NO
 PW_GRID|   Bounds   1             -4       3                Points:           8
 PW_GRID|   Bounds   2             -4       3                Points:           8
 PW_GRID|   Bounds   3             -4       3                Points:           8
 PW_GRID| Volume element (a.u.^3)   6.748         Volume (a.u.^3)      3455.1473
 PW_GRID| Grid span                                                    FULLSPACE

 POISSON| Solver                                                        PERIODIC
 POISSON| Periodicity                                                        XYZ

 RS_GRID| Information for grid number                                          6
 RS_GRID|   Bounds   1             -4       3                Points:           8
 RS_GRID|   Bounds   2             -4       3                Points:           8
 RS_GRID|   Bounds   3             -4       3                Points:           8

 Parameters for the always stable predictor-corrector (ASPC) method:

  ASPC order: 3

  B(1) =   3.000000
  B(2) =  -3.428571
  B(3) =   1.928571
  B(4) =  -0.571429
  B(5) =   0.071429

 Extrapolation method: ASPC

 Number of electrons:                                                          8
 Number of occupied orbitals:                                                  4
 Number of molecular orbitals:                                                 6

 Number of orbital functions:                                                  6
 Number of independent orbital functions:                                      6


 SCF WAVEFUNCTION OPTIMIZATION

  Step     Update method      Time    Convergence         Total energy    Change
  ------------------------------------------------------------------------------
     1 GXTB-Raw    0.10E+01    0.0     0.00000093       -76.5328189676 -7.65E+01
     2 GXTB-Simple 0.20E+00    0.0     0.00000039       -76.5328189676 -5.68E-13
     3 GXTB-Simple 0.20E+00    0.0     0.00000032       -76.5328189676 -4.12E-13
     4 GXTB-FDIIS  0.10E+01    0.0     0.00000160       -76.5328189676 -9.38E-13
     5 GXTB-FDIIS  0.10E+01    0.0     0.00000007       -76.5328189676 -1.42E-14
     6 GXTB-FDIIS  0.10E+01    0.0     9.7992E-09       -76.5328189676  0.00E+00
     7 GXTB-FDIIS  0.10E+01    0.0     1.0577E-09       -76.5328189676  0.00E+00
     8 GXTB-FDIIS  0.10E+01    0.0     1.3707E-10       -76.5328189676  1.42E-14
     9 GXTB-FDIIS  0.10E+01    0.0     1.7831E-12       -76.5328189676  0.00E+00

  *** SCF run converged in     9 steps ***


  Core Hamiltonian energy:                                     -6.24864739926378
  Repulsive potential energy:                                   0.31804540210047
  Electrostatic energy:                                         0.15847142807043
  Self-consistent dispersion energy:                           -0.00005659700699
  Non-self consistent dispersion energy:                        0.00000040322050
  Correction for halogen bonding:                               0.00000000000000

  Total energy:                                               -76.53281896760684


 MULLIKEN POPULATION ANALYSIS

  # Atom   Element   Kind        Atomic population                    Net charge
       1     H          1                 0.662434                      0.337566
       2     H          1                 0.662466                      0.337534
       3     O          2                 6.675100                     -0.675100
 # Total charge                           8.000000                     -0.000000


 tblite reference CLI check
 Executable: tblite
 Method:     gxtb
 Guess:      auto
 Solver:     gvd
 Spin-pol.:  F
 Grad file:  H2O_stress_L08_cli.grad
 JSON file:  H2O_stress_L08_cli.json
 Log file:   H2O_stress_L08_cli.log
 Energy CP2K/CLI/absdiff:   -7.653281896761E+01   -7.653281896857E+01    9.678871037977E-10
 Gradient diff sum/max:    4.858743829807E-06    1.418099580659E-06
 Virial diff sum/max:    2.323700401209E-01    8.329702319031E-02
 tblite reference CLI deviation exceeded ERROR_LIMIT =   1.0000E-05

 ENERGY| Total FORCE_EVAL ( QS ) energy [hartree]            -76.532818967606843

 -------------------------------------------------------------------------------
 ----                             MULTIGRID INFO                            ----
 -------------------------------------------------------------------------------
 total grid count     :           420              cutoff [a.u.]            1.00

 PW_GRID| Information for grid number                                          7
 PW_GRID| Cutoff [a.u.]                                                      1.0
 PW_GRID| spherical cutoff:                                                   NO
 PW_GRID|   Bounds   1             -4       3                Points:           8
 PW_GRID|   Bounds   2             -4       3                Points:           8
 PW_GRID|   Bounds   3             -4       3                Points:           8
 PW_GRID| Volume element (a.u.^3)   6.748         Volume (a.u.^3)      3455.1473
 PW_GRID| Grid span                                                    FULLSPACE

 POISSON| Solver                                                        PERIODIC
 POISSON| Periodicity                                                        XYZ

 RS_GRID| Information for grid number                                          7
 RS_GRID|   Bounds   1             -4       3                Points:           8
 RS_GRID|   Bounds   2             -4       3                Points:           8
 RS_GRID|   Bounds   3             -4       3                Points:           8

 Parameters for the always stable predictor-corrector (ASPC) method:

  ASPC order: 3

  B(1) =   3.000000
  B(2) =  -3.428571
  B(3) =   1.928571
  B(4) =  -0.571429
  B(5) =   0.071429

 Extrapolation method: ASPC

 Number of electrons:                                                          8
 Number of occupied orbitals:                                                  4
 Number of molecular orbitals:                                                 6

 Number of orbital functions:                                                  6
 Number of independent orbital functions:                                      6


 SCF WAVEFUNCTION OPTIMIZATION

  Step     Update method      Time    Convergence         Total energy    Change
  ------------------------------------------------------------------------------
     1 GXTB-Raw    0.10E+01    0.0     0.00000185       -76.5328189175 -7.65E+01
     2 GXTB-Simple 0.20E+00    0.0     0.00000077       -76.5328189175 -2.32E-12
     3 GXTB-Simple 0.20E+00    0.0     0.00000065       -76.5328189175 -1.61E-12
     4 GXTB-FDIIS  0.10E+01    0.0     0.00000320       -76.5328189175 -3.78E-12
     5 GXTB-FDIIS  0.10E+01    0.0     0.00000013       -76.5328189175  0.00E+00
     6 GXTB-FDIIS  0.10E+01    0.0     0.00000002       -76.5328189175  0.00E+00
     7 GXTB-FDIIS  0.10E+01    0.0     2.1155E-09       -76.5328189175  0.00E+00
     8 GXTB-FDIIS  0.10E+01    0.0     2.7414E-10       -76.5328189175  0.00E+00
     9 GXTB-FDIIS  0.10E+01    0.0     3.5658E-12       -76.5328189175 -1.42E-14

  *** SCF run converged in     9 steps ***


  Core Hamiltonian energy:                                     -6.24864872574878
  Repulsive potential energy:                                   0.31804754431692
  Electrostatic energy:                                         0.15847112853848
  Self-consistent dispersion energy:                           -0.00005659663005
  Non-self consistent dispersion energy:                        0.00000040323248
  Correction for halogen bonding:                               0.00000000000000

  Total energy:                                               -76.53281891747675


 MULLIKEN POPULATION ANALYSIS

  # Atom   Element   Kind        Atomic population                    Net charge
       1     H          1                 0.662434                      0.337566
       2     H          1                 0.662466                      0.337534
       3     O          2                 6.675100                     -0.675100
 # Total charge                           8.000000                     -0.000000


 tblite reference CLI check
 Executable: tblite
 Method:     gxtb
 Guess:      auto
 Solver:     gvd
 Spin-pol.:  F
 Grad file:  H2O_stress_L08_cli.grad
 JSON file:  H2O_stress_L08_cli.json
 Log file:   H2O_stress_L08_cli.log
 Energy CP2K/CLI/absdiff:   -7.653281891748E+01   -7.653281891844E+01    9.678586820883E-10
 Gradient diff sum/max:    4.866975817370E-06    1.444201280809E-06
 Virial diff sum/max:    2.323731183468E-01    8.329212713022E-02
 tblite reference CLI deviation exceeded ERROR_LIMIT =   1.0000E-05

 ENERGY| Total FORCE_EVAL ( QS ) energy [hartree]            -76.532818917476746

 -------------------------------------------------------------------------------
 ----                             MULTIGRID INFO                            ----
 -------------------------------------------------------------------------------
 total grid count     :           420              cutoff [a.u.]            1.00

 PW_GRID| Information for grid number                                          8
 PW_GRID| Cutoff [a.u.]                                                      1.0
 PW_GRID| spherical cutoff:                                                   NO
 PW_GRID|   Bounds   1             -4       3                Points:           8
 PW_GRID|   Bounds   2             -4       3                Points:           8
 PW_GRID|   Bounds   3             -4       3                Points:           8
 PW_GRID| Volume element (a.u.^3)   6.748         Volume (a.u.^3)      3455.1473
 PW_GRID| Grid span                                                    FULLSPACE

 POISSON| Solver                                                        PERIODIC
 POISSON| Periodicity                                                        XYZ

 RS_GRID| Information for grid number                                          8
 RS_GRID|   Bounds   1             -4       3                Points:           8
 RS_GRID|   Bounds   2             -4       3                Points:           8
 RS_GRID|   Bounds   3             -4       3                Points:           8

 Parameters for the always stable predictor-corrector (ASPC) method:

  ASPC order: 3

  B(1) =   3.000000
  B(2) =  -3.428571
  B(3) =   1.928571
  B(4) =  -0.571429
  B(5) =   0.071429

 Extrapolation method: ASPC

 Number of electrons:                                                          8
 Number of occupied orbitals:                                                  4
 Number of molecular orbitals:                                                 6

 Number of orbital functions:                                                  6
 Number of independent orbital functions:                                      6


 SCF WAVEFUNCTION OPTIMIZATION

  Step     Update method      Time    Convergence         Total energy    Change
  ------------------------------------------------------------------------------
     1 GXTB-Raw    0.10E+01    0.0     0.00000099       -76.5328189425 -7.65E+01
     2 GXTB-Simple 0.20E+00    0.0     0.00000061       -76.5328189425 -1.42E-12
     3 GXTB-Simple 0.20E+00    0.0     0.00000052       -76.5328189425 -9.81E-13
     4 GXTB-FDIIS  0.10E+01    0.0     0.00000270       -76.5328189425 -2.44E-12
     5 GXTB-FDIIS  0.10E+01    0.0     0.00000015       -76.5328189425  0.00E+00
     6 GXTB-FDIIS  0.10E+01    0.0     0.00000001       -76.5328189425  0.00E+00
     7 GXTB-FDIIS  0.10E+01    0.0     1.2452E-09       -76.5328189425  0.00E+00
     8 GXTB-FDIIS  0.10E+01    0.0     4.9224E-10       -76.5328189425 -1.42E-14
     9 GXTB-FDIIS  0.10E+01    0.0     4.1515E-11       -76.5328189425  0.00E+00

  *** SCF run converged in     9 steps ***


  Core Hamiltonian energy:                                     -6.24864806250585
  Repulsive potential energy:                                   0.31804647320496
  Electrostatic energy:                                         0.15847127830228
  Self-consistent dispersion energy:                           -0.00005659681852
  Non-self consistent dispersion energy:                        0.00000040322649
  Correction for halogen bonding:                               0.00000000000000

  Total energy:                                               -76.53281894254741


 MULLIKEN POPULATION ANALYSIS

  # Atom   Element   Kind        Atomic population                    Net charge
       1     H          1                 0.662434                      0.337566
       2     H          1                 0.662466                      0.337534
       3     O          2                 6.675100                     -0.675100
 # Total charge                           8.000000                      0.000000


 tblite reference CLI check
 Executable: tblite
 Method:     gxtb
 Guess:      auto
 Solver:     gvd
 Spin-pol.:  F
 Grad file:  H2O_stress_L08_cli.grad
 JSON file:  H2O_stress_L08_cli.json
 Log file:   H2O_stress_L08_cli.log
 Energy CP2K/CLI/absdiff:   -7.653281894255E+01   -7.653281894352E+01    9.678586820883E-10
 Gradient diff sum/max:    2.756401825818E-07    1.093024315993E-07
 Virial diff sum/max:    2.323727203684E-01    8.329457518131E-02
 tblite reference CLI deviation exceeded ERROR_LIMIT =   1.0000E-05

 ENERGY| Total FORCE_EVAL ( QS ) energy [hartree]            -76.532818942547408

 -------------------------------------------------------------------------------
 ----                             MULTIGRID INFO                            ----
 -------------------------------------------------------------------------------
 total grid count     :           420              cutoff [a.u.]            1.00

 PW_GRID| Information for grid number                                          9
 PW_GRID| Cutoff [a.u.]                                                      1.0
 PW_GRID| spherical cutoff:                                                   NO
 PW_GRID|   Bounds   1             -4       3                Points:           8
 PW_GRID|   Bounds   2             -4       3                Points:           8
 PW_GRID|   Bounds   3             -4       3                Points:           8
 PW_GRID| Volume element (a.u.^3)   6.748         Volume (a.u.^3)      3455.1473
 PW_GRID| Grid span                                                    FULLSPACE

 POISSON| Solver                                                        PERIODIC
 POISSON| Periodicity                                                        XYZ

 RS_GRID| Information for grid number                                          9
 RS_GRID|   Bounds   1             -4       3                Points:           8
 RS_GRID|   Bounds   2             -4       3                Points:           8
 RS_GRID|   Bounds   3             -4       3                Points:           8

 Parameters for the always stable predictor-corrector (ASPC) method:

  ASPC order: 3

  B(1) =   3.000000
  B(2) =  -3.428571
  B(3) =   1.928571
  B(4) =  -0.571429
  B(5) =   0.071429

 Extrapolation method: ASPC

 Number of electrons:                                                          8
 Number of occupied orbitals:                                                  4
 Number of molecular orbitals:                                                 6

 Number of orbital functions:                                                  6
 Number of independent orbital functions:                                      6


 SCF WAVEFUNCTION OPTIMIZATION

  Step     Update method      Time    Convergence         Total energy    Change
  ------------------------------------------------------------------------------
     1 GXTB-Raw    0.10E+01    0.0     0.00000198       -76.5328189425 -7.65E+01
     2 GXTB-Simple 0.20E+00    0.0     0.00000122       -76.5328189425 -3.31E-12
     3 GXTB-Simple 0.20E+00    0.0     0.00000104       -76.5328189425 -2.36E-12
     4 GXTB-FDIIS  0.10E+01    0.0     0.00000544       -76.5328189425 -5.97E-12
     5 GXTB-FDIIS  0.10E+01    0.0     0.00000028       -76.5328189425 -2.84E-14
     6 GXTB-FDIIS  0.10E+01    0.0     6.8454E-09       -76.5328189425  1.42E-14
     7 GXTB-FDIIS  0.10E+01    0.0     1.8430E-12       -76.5328189425  0.00E+00

  *** SCF run converged in     7 steps ***


  Core Hamiltonian energy:                                     -6.24864806250586
  Repulsive potential energy:                                   0.31804647320496
  Electrostatic energy:                                         0.15847127830224
  Self-consistent dispersion energy:                           -0.00005659681852
  Non-self consistent dispersion energy:                        0.00000040322649
  Correction for halogen bonding:                               0.00000000000000

  Total energy:                                               -76.53281894254739


 MULLIKEN POPULATION ANALYSIS

  # Atom   Element   Kind        Atomic population                    Net charge
       1     H          1                 0.662434                      0.337566
       2     H          1                 0.662466                      0.337534
       3     O          2                 6.675100                     -0.675100
 # Total charge                           8.000000                     -0.000000


 tblite reference CLI check
 Executable: tblite
 Method:     gxtb
 Guess:      auto
 Solver:     gvd
 Spin-pol.:  F
 Grad file:  H2O_stress_L08_cli.grad
 JSON file:  H2O_stress_L08_cli.json
 Log file:   H2O_stress_L08_cli.log
 Energy CP2K/CLI/absdiff:   -7.653281894255E+01   -7.653281894352E+01    9.678728929430E-10
 Gradient diff sum/max:    2.756401816670E-07    1.093024311419E-07
 Virial diff sum/max:    2.323727203684E-01    8.329457518131E-02
 tblite reference CLI deviation exceeded ERROR_LIMIT =   1.0000E-05

 ENERGY| Total FORCE_EVAL ( QS ) energy [hartree]            -76.532818942547394

 -------------------------------------------------------------------------------
 ----                             MULTIGRID INFO                            ----
 -------------------------------------------------------------------------------
 total grid count     :           420              cutoff [a.u.]            1.00

 PW_GRID| Information for grid number                                         10
 PW_GRID| Cutoff [a.u.]                                                      1.0
 PW_GRID| spherical cutoff:                                                   NO
 PW_GRID|   Bounds   1             -4       3                Points:           8
 PW_GRID|   Bounds   2             -4       3                Points:           8
 PW_GRID|   Bounds   3             -4       3                Points:           8
 PW_GRID| Volume element (a.u.^3)   6.748         Volume (a.u.^3)      3455.1702
 PW_GRID| Grid span                                                    FULLSPACE

 POISSON| Solver                                                        PERIODIC
 POISSON| Periodicity                                                        XYZ

 RS_GRID| Information for grid number                                         10
 RS_GRID|   Bounds   1             -4       3                Points:           8
 RS_GRID|   Bounds   2             -4       3                Points:           8
 RS_GRID|   Bounds   3             -4       3                Points:           8

 Parameters for the always stable predictor-corrector (ASPC) method:

  ASPC order: 3

  B(1) =   3.000000
  B(2) =  -3.428571
  B(3) =   1.928571
  B(4) =  -0.571429
  B(5) =   0.071429

 Extrapolation method: ASPC

 Number of electrons:                                                          8
 Number of occupied orbitals:                                                  4
 Number of molecular orbitals:                                                 6

 Number of orbital functions:                                                  6
 Number of independent orbital functions:                                      6


 SCF WAVEFUNCTION OPTIMIZATION

  Step     Update method      Time    Convergence         Total energy    Change
  ------------------------------------------------------------------------------
     1 GXTB-Raw    0.10E+01    0.0     0.00000099       -76.5328185338 -7.65E+01
     2 GXTB-Simple 0.20E+00    0.0     0.00000061       -76.5328185339 -8.24E-13
     3 GXTB-Simple 0.20E+00    0.0     0.00000052       -76.5328185339 -5.97E-13
     4 GXTB-FDIIS  0.10E+01    0.0     0.00000271       -76.5328185339 -1.48E-12
     5 GXTB-FDIIS  0.10E+01    0.0     0.00000015       -76.5328185339 -2.84E-14
     6 GXTB-FDIIS  0.10E+01    0.0     6.8644E-09       -76.5328185339  0.00E+00
     7 GXTB-FDIIS  0.10E+01    0.0     1.6070E-09       -76.5328185339  0.00E+00
     8 GXTB-FDIIS  0.10E+01    0.0     1.2748E-11       -76.5328185339  1.42E-14

  *** SCF run converged in     8 steps ***


  Core Hamiltonian energy:                                     -6.24864800918199
  Repulsive potential energy:                                   0.31804647352273
  Electrostatic energy:                                         0.15847125027681
  Self-consistent dispersion energy:                           -0.00005659662536
  Non-self consistent dispersion energy:                        0.00000040321980
  Correction for halogen bonding:                               0.00000000000000

  Total energy:                                               -76.53281853385273


 MULLIKEN POPULATION ANALYSIS

  # Atom   Element   Kind        Atomic population                    Net charge
       1     H          1                 0.662434                      0.337566
       2     H          1                 0.662466                      0.337534
       3     O          2                 6.675100                     -0.675100
 # Total charge                           8.000000                     -0.000000


 tblite reference CLI check
 Executable: tblite
 Method:     gxtb
 Guess:      auto
 Solver:     gvd
 Spin-pol.:  F
 Grad file:  H2O_stress_L08_cli.grad
 JSON file:  H2O_stress_L08_cli.json
 Log file:   H2O_stress_L08_cli.log
 Energy CP2K/CLI/absdiff:   -7.653281853385E+01   -7.653281853482E+01    9.678728929430E-10
 Gradient diff sum/max:    1.102210012888E-07    3.232231229888E-08
 Virial diff sum/max:    2.323711430624E-01    8.329455647821E-02
 tblite reference CLI deviation exceeded ERROR_LIMIT =   1.0000E-05

 ENERGY| Total FORCE_EVAL ( QS ) energy [hartree]            -76.532818533852733

 -------------------------------------------------------------------------------
 ----                             MULTIGRID INFO                            ----
 -------------------------------------------------------------------------------
 total grid count     :           420              cutoff [a.u.]            1.00

 PW_GRID| Information for grid number                                         11
 PW_GRID| Cutoff [a.u.]                                                      1.0
 PW_GRID| spherical cutoff:                                                   NO
 PW_GRID|   Bounds   1             -4       3                Points:           8
 PW_GRID|   Bounds   2             -4       3                Points:           8
 PW_GRID|   Bounds   3             -4       3                Points:           8
 PW_GRID| Volume element (a.u.^3)   6.748         Volume (a.u.^3)      3455.1245
 PW_GRID| Grid span                                                    FULLSPACE

 POISSON| Solver                                                        PERIODIC
 POISSON| Periodicity                                                        XYZ

 RS_GRID| Information for grid number                                         11
 RS_GRID|   Bounds   1             -4       3                Points:           8
 RS_GRID|   Bounds   2             -4       3                Points:           8
 RS_GRID|   Bounds   3             -4       3                Points:           8

 Parameters for the always stable predictor-corrector (ASPC) method:

  ASPC order: 3

  B(1) =   3.000000
  B(2) =  -3.428571
  B(3) =   1.928571
  B(4) =  -0.571429
  B(5) =   0.071429

 Extrapolation method: ASPC

 Number of electrons:                                                          8
 Number of occupied orbitals:                                                  4
 Number of molecular orbitals:                                                 6

 Number of orbital functions:                                                  6
 Number of independent orbital functions:                                      6


 SCF WAVEFUNCTION OPTIMIZATION

  Step     Update method      Time    Convergence         Total energy    Change
  ------------------------------------------------------------------------------
     1 GXTB-Raw    0.10E+01    0.0     0.00000001       -76.5328193513 -7.65E+01
     2 GXTB-Simple 0.20E+00    0.0     0.00000004       -76.5328193513 -1.42E-14
     3 GXTB-Simple 0.20E+00    0.0     0.00000003       -76.5328193513  0.00E+00
     4 GXTB-FDIIS  0.10E+01    0.0     0.00000016       -76.5328193513 -1.42E-14
     5 GXTB-FDIIS  0.10E+01    0.0     0.00000002       -76.5328193513  1.42E-14
     6 GXTB-FDIIS  0.10E+01    0.0     2.6377E-09       -76.5328193513  0.00E+00
     7 GXTB-FDIIS  0.10E+01    0.0     7.5158E-11       -76.5328193513  0.00E+00

  *** SCF run converged in     7 steps ***


  Core Hamiltonian energy:                                     -6.24864811585722
  Repulsive potential energy:                                   0.31804647291350
  Electrostatic energy:                                         0.15847130632669
  Self-consistent dispersion energy:                           -0.00005659701169
  Non-self consistent dispersion energy:                        0.00000040323318
  Correction for halogen bonding:                               0.00000000000000

  Total energy:                                               -76.53281935125092


 MULLIKEN POPULATION ANALYSIS

  # Atom   Element   Kind        Atomic population                    Net charge
       1     H          1                 0.662434                      0.337566
       2     H          1                 0.662466                      0.337534
       3     O          2                 6.675100                     -0.675100
 # Total charge                           8.000000                      0.000000


 tblite reference CLI check
 Executable: tblite
 Method:     gxtb
 Guess:      auto
 Solver:     gvd
 Spin-pol.:  F
 Grad file:  H2O_stress_L08_cli.grad
 JSON file:  H2O_stress_L08_cli.json
 Log file:   H2O_stress_L08_cli.log
 Energy CP2K/CLI/absdiff:   -7.653281935125E+01   -7.653281935222E+01    9.678728929430E-10
 Gradient diff sum/max:    3.051679416415E-08    8.720908335107E-09
 Virial diff sum/max:    2.323720153258E-01    8.329459314508E-02
 tblite reference CLI deviation exceeded ERROR_LIMIT =   1.0000E-05

 ENERGY| Total FORCE_EVAL ( QS ) energy [hartree]            -76.532819351250922

 -------------------------------------------------------------------------------
 ----                             MULTIGRID INFO                            ----
 -------------------------------------------------------------------------------
 total grid count     :           420              cutoff [a.u.]            1.00

 PW_GRID| Information for grid number                                         12
 PW_GRID| Cutoff [a.u.]                                                      1.0
 PW_GRID| spherical cutoff:                                                   NO
 PW_GRID|   Bounds   1             -4       3                Points:           8
 PW_GRID|   Bounds   2             -4       3                Points:           8
 PW_GRID|   Bounds   3             -4       3                Points:           8
 PW_GRID| Volume element (a.u.^3)   6.748         Volume (a.u.^3)      3455.1473
 PW_GRID| Grid span                                                    FULLSPACE

 POISSON| Solver                                                        PERIODIC
 POISSON| Periodicity                                                        XYZ

 RS_GRID| Information for grid number                                         12
 RS_GRID|   Bounds   1             -4       3                Points:           8
 RS_GRID|   Bounds   2             -4       3                Points:           8
 RS_GRID|   Bounds   3             -4       3                Points:           8

 Parameters for the always stable predictor-corrector (ASPC) method:

  ASPC order: 3

  B(1) =   3.000000
  B(2) =  -3.428571
  B(3) =   1.928571
  B(4) =  -0.571429
  B(5) =   0.071429

 Extrapolation method: ASPC

 Number of electrons:                                                          8
 Number of occupied orbitals:                                                  4
 Number of molecular orbitals:                                                 6

 Number of orbital functions:                                                  6
 Number of independent orbital functions:                                      6


 SCF WAVEFUNCTION OPTIMIZATION

  Step     Update method      Time    Convergence         Total energy    Change
  ------------------------------------------------------------------------------
     1 GXTB-Raw    0.10E+01    0.0     0.00000101       -76.5328189425 -7.65E+01
     2 GXTB-Simple 0.20E+00    0.0     0.00000064       -76.5328189425 -1.01E-12
     3 GXTB-Simple 0.20E+00    0.0     0.00000055       -76.5328189425 -6.96E-13
     4 GXTB-FDIIS  0.10E+01    0.0     0.00000287       -76.5328189425 -1.83E-12
     5 GXTB-FDIIS  0.10E+01    0.0     0.00000017       -76.5328189425  0.00E+00
     6 GXTB-FDIIS  0.10E+01    0.0     7.1938E-09       -76.5328189425  0.00E+00
     7 GXTB-FDIIS  0.10E+01    0.0     1.3076E-09       -76.5328189425  0.00E+00
     8 GXTB-FDIIS  0.10E+01    0.0     1.3639E-11       -76.5328189425  0.00E+00

  *** SCF run converged in     8 steps ***


  Core Hamiltonian energy:                                     -6.24864806250435
  Repulsive potential energy:                                   0.31804647320245
  Electrostatic energy:                                         0.15847127830262
  Self-consistent dispersion energy:                           -0.00005659681852
  Non-self consistent dispersion energy:                        0.00000040322649
  Correction for halogen bonding:                               0.00000000000000

  Total energy:                                               -76.53281894254746


 MULLIKEN POPULATION ANALYSIS

  # Atom   Element   Kind        Atomic population                    Net charge
       1     H          1                 0.662434                      0.337566
       2     H          1                 0.662466                      0.337534
       3     O          2                 6.675100                     -0.675100
 # Total charge                           8.000000                      0.000000


 tblite reference CLI check
 Executable: tblite
 Method:     gxtb
 Guess:      auto
 Solver:     gvd
 Spin-pol.:  F
 Grad file:  H2O_stress_L08_cli.grad
 JSON file:  H2O_stress_L08_cli.json
 Log file:   H2O_stress_L08_cli.log
 Energy CP2K/CLI/absdiff:   -7.653281894255E+01   -7.653281894352E+01    9.678586820883E-10
 Gradient diff sum/max:    2.111403792984E-07    7.705616998534E-08
 Virial diff sum/max:    2.323726776424E-01    8.329457516090E-02
 tblite reference CLI deviation exceeded ERROR_LIMIT =   1.0000E-05

 ENERGY| Total FORCE_EVAL ( QS ) energy [hartree]            -76.532818942547465

 -------------------------------------------------------------------------------
 ----                             MULTIGRID INFO                            ----
 -------------------------------------------------------------------------------
 total grid count     :           420              cutoff [a.u.]            1.00

 PW_GRID| Information for grid number                                         13
 PW_GRID| Cutoff [a.u.]                                                      1.0
 PW_GRID| spherical cutoff:                                                   NO
 PW_GRID|   Bounds   1             -4       3                Points:           8
 PW_GRID|   Bounds   2             -4       3                Points:           8
 PW_GRID|   Bounds   3             -4       3                Points:           8
 PW_GRID| Volume element (a.u.^3)   6.748         Volume (a.u.^3)      3455.1473
 PW_GRID| Grid span                                                    FULLSPACE

 POISSON| Solver                                                        PERIODIC
 POISSON| Periodicity                                                        XYZ

 RS_GRID| Information for grid number                                         13
 RS_GRID|   Bounds   1             -4       3                Points:           8
 RS_GRID|   Bounds   2             -4       3                Points:           8
 RS_GRID|   Bounds   3             -4       3                Points:           8

 Parameters for the always stable predictor-corrector (ASPC) method:

  ASPC order: 3

  B(1) =   3.000000
  B(2) =  -3.428571
  B(3) =   1.928571
  B(4) =  -0.571429
  B(5) =   0.071429

 Extrapolation method: ASPC

 Number of electrons:                                                          8
 Number of occupied orbitals:                                                  4
 Number of molecular orbitals:                                                 6

 Number of orbital functions:                                                  6
 Number of independent orbital functions:                                      6


 SCF WAVEFUNCTION OPTIMIZATION

  Step     Update method      Time    Convergence         Total energy    Change
  ------------------------------------------------------------------------------
     1 GXTB-Raw    0.10E+01    0.0     0.00000203       -76.5328189425 -7.65E+01
     2 GXTB-Simple 0.20E+00    0.0     0.00000129       -76.5328189425 -3.98E-12
     3 GXTB-Simple 0.20E+00    0.0     0.00000109       -76.5328189425 -2.84E-12
     4 GXTB-FDIIS  0.10E+01    0.0     0.00000576       -76.5328189425 -7.32E-12
     5 GXTB-FDIIS  0.10E+01    0.0     0.00000032       -76.5328189425 -1.42E-14
     6 GXTB-FDIIS  0.10E+01    0.0     5.5883E-09       -76.5328189425  0.00E+00
     7 GXTB-FDIIS  0.10E+01    0.0     2.3883E-12       -76.5328189425  0.00E+00

  *** SCF run converged in     7 steps ***


  Core Hamiltonian energy:                                     -6.24864806250432
  Repulsive potential energy:                                   0.31804647320246
  Electrostatic energy:                                         0.15847127830259
  Self-consistent dispersion energy:                           -0.00005659681852
  Non-self consistent dispersion energy:                        0.00000040322649
  Correction for halogen bonding:                               0.00000000000000

  Total energy:                                               -76.53281894254746


 MULLIKEN POPULATION ANALYSIS

  # Atom   Element   Kind        Atomic population                    Net charge
       1     H          1                 0.662434                      0.337566
       2     H          1                 0.662466                      0.337534
       3     O          2                 6.675100                     -0.675100
 # Total charge                           8.000000                     -0.000000


 tblite reference CLI check
 Executable: tblite
 Method:     gxtb
 Guess:      auto
 Solver:     gvd
 Spin-pol.:  F
 Grad file:  H2O_stress_L08_cli.grad
 JSON file:  H2O_stress_L08_cli.json
 Log file:   H2O_stress_L08_cli.log
 Energy CP2K/CLI/absdiff:   -7.653281894255E+01   -7.653281894352E+01    9.678586820883E-10
 Gradient diff sum/max:    2.111403802132E-07    7.705617044275E-08
 Virial diff sum/max:    2.323726776424E-01    8.329457516090E-02
 tblite reference CLI deviation exceeded ERROR_LIMIT =   1.0000E-05

[...]
     5 GXTB-FDIIS  0.10E+01    0.0     0.00000013       -76.5328194698  0.00E+00
     6 GXTB-FDIIS  0.10E+01    0.0     0.00000008       -76.5328194698 -1.42E-14
     7 GXTB-FDIIS  0.10E+01    0.0     2.8065E-09       -76.5328194698  0.00E+00
     8 GXTB-FDIIS  0.10E+01    0.0     5.1499E-10       -76.5328194698 -1.42E-14
     9 GXTB-FDIIS  0.10E+01    0.0     3.5067E-12       -76.5328194698  1.42E-14

  *** SCF run converged in     9 steps ***


  Core Hamiltonian energy:                                     -6.24865267757982
  Repulsive potential energy:                                   0.31805120713425
  Electrostatic energy:                                         0.15847110001794
  Self-consistent dispersion energy:                           -0.00005659659073
  Non-self consistent dispersion energy:                        0.00000040322319
  Correction for halogen bonding:                               0.00000000000000

  Total energy:                                               -76.53281946979045


 MULLIKEN POPULATION ANALYSIS

  # Atom   Element   Kind        Atomic population                    Net charge
       1     H          1                 0.662434                      0.337566
       2     H          1                 0.662466                      0.337534
       3     O          2                 6.675100                     -0.675100
 # Total charge                           8.000000                      0.000000


 tblite reference CLI check
 Executable: tblite
 Method:     gxtb
 Guess:      auto
 Solver:     gvd
 Spin-pol.:  F
 Grad file:  H2O_stress_L08_cli.grad
 JSON file:  H2O_stress_L08_cli.json
 Log file:   H2O_stress_L08_cli.log
 Energy CP2K/CLI/absdiff:   -7.653281946979E+01   -7.653281947076E+01    9.678302603788E-10
 Gradient diff sum/max:    1.186052585153E-05    5.498149342377E-06
 Virial diff sum/max:    2.323617043324E-01    8.329386023347E-02
 tblite reference CLI deviation exceeded ERROR_LIMIT =   1.0000E-05

 ENERGY| Total FORCE_EVAL ( QS ) energy [hartree]            -76.532819469790454

 -------------------------------------------------------------------------------
 ----                             MULTIGRID INFO                            ----
 -------------------------------------------------------------------------------
 total grid count     :           420              cutoff [a.u.]            1.00

 PW_GRID| Information for grid number                                         20
 PW_GRID| Cutoff [a.u.]                                                      1.0
 PW_GRID| spherical cutoff:                                                   NO
 PW_GRID|   Bounds   1             -4       3                Points:           8
 PW_GRID|   Bounds   2             -4       3                Points:           8
 PW_GRID|   Bounds   3             -4       3                Points:           8
 PW_GRID| Volume element (a.u.^3)   6.748         Volume (a.u.^3)      3455.1473
 PW_GRID| Grid span                                                    FULLSPACE

 POISSON| Solver                                                        PERIODIC
 POISSON| Periodicity                                                        XYZ

 RS_GRID| Information for grid number                                         20
 RS_GRID|   Bounds   1             -4       3                Points:           8
 RS_GRID|   Bounds   2             -4       3                Points:           8
 RS_GRID|   Bounds   3             -4       3                Points:           8

 Parameters for the always stable predictor-corrector (ASPC) method:

  ASPC order: 3

  B(1) =   3.000000
  B(2) =  -3.428571
  B(3) =   1.928571
  B(4) =  -0.571429
  B(5) =   0.071429

 Extrapolation method: ASPC

 Number of electrons:                                                          8
 Number of occupied orbitals:                                                  4
 Number of molecular orbitals:                                                 6

 Number of orbital functions:                                                  6
 Number of independent orbital functions:                                      6


 SCF WAVEFUNCTION OPTIMIZATION

  Step     Update method      Time    Convergence         Total energy    Change
  ------------------------------------------------------------------------------
     1 GXTB-Raw    0.10E+01    0.0     0.00000308       -76.5328189425 -7.65E+01
     2 GXTB-Simple 0.20E+00    0.0     0.00000047       -76.5328189425 -7.67E-13
     3 GXTB-Simple 0.20E+00    0.0     0.00000039       -76.5328189425 -4.97E-13
     4 GXTB-FDIIS  0.10E+01    0.0     0.00000179       -76.5328189425 -1.04E-12
     5 GXTB-FDIIS  0.10E+01    0.0     0.00000006       -76.5328189425  0.00E+00
     6 GXTB-FDIIS  0.10E+01    0.0     0.00000004       -76.5328189425 -1.42E-14
     7 GXTB-FDIIS  0.10E+01    0.0     1.4033E-09       -76.5328189425  0.00E+00
     8 GXTB-FDIIS  0.10E+01    0.0     2.5750E-10       -76.5328189425  1.42E-14
     9 GXTB-FDIIS  0.10E+01    0.0     1.7534E-12       -76.5328189425  0.00E+00

  *** SCF run converged in     9 steps ***


  Core Hamiltonian energy:                                     -6.24864806251959
  Repulsive potential energy:                                   0.31804647321811
  Electrostatic energy:                                         0.15847127830202
  Self-consistent dispersion energy:                           -0.00005659681852
  Non-self consistent dispersion energy:                        0.00000040322649
  Correction for halogen bonding:                               0.00000000000000

  Total energy:                                               -76.53281894254920


 MULLIKEN POPULATION ANALYSIS

  # Atom   Element   Kind        Atomic population                    Net charge
       1     H          1                 0.662434                      0.337566
       2     H          1                 0.662466                      0.337534
       3     O          2                 6.675100                     -0.675100
 # Total charge                           8.000000                      0.000000


 tblite reference CLI check
 Executable: tblite
 Method:     gxtb
 Guess:      auto
 Solver:     gvd
 Spin-pol.:  F
 Grad file:  H2O_stress_L08_cli.grad
 JSON file:  H2O_stress_L08_cli.json
 Log file:   H2O_stress_L08_cli.log
 Energy CP2K/CLI/absdiff:   -7.653281894255E+01   -7.653281894352E+01    9.678728929430E-10
 Gradient diff sum/max:    5.706568833086E-08    1.558466923915E-08
 Virial diff sum/max:    2.323715792012E-01    8.329457515853E-02
 tblite reference CLI deviation exceeded ERROR_LIMIT =   1.0000E-05

 ENERGY| Total FORCE_EVAL ( QS ) energy [hartree]            -76.532818942549198
 DEBUG| Numerical pv_virial [a.u.]
 DEBUG|                  -0.083294598010      0.000000000000      0.003789286742
 DEBUG|                   0.000000000000     -0.061786348692      0.000000000000
 DEBUG|                   0.003789286742      0.000000000000     -0.079712103148

 DEBUG| Analytical pv_virial [a.u.]
 DEBUG|                  -0.083294598172     -0.000000000000      0.003789286543
 DEBUG|                  -0.000000000000     -0.061786348999     -0.000000000000
 DEBUG|                   0.003789286543     -0.000000000000     -0.079712101851

 DEBUG| Difference pv_virial [a.u.]
 DEBUG|                   0.000000000162      0.000000000000      0.000000000198
 DEBUG|                   0.000000000000      0.000000000307      0.000000000000
 DEBUG|                   0.000000000198      0.000000000000     -0.000000001297
 DEBUG| Sum of differences                                        0.000000002163

 DEBUG| Relative error pv_virial
 DEBUG| Threshold value for error check [a.u.]                    1.00000000E-05
 DEBUG|                          -0.00 %                 - %              0.00 %
 DEBUG|                              - %             -0.00 %                 - %
 DEBUG|                           0.00 %                 - %              0.00 %
 DEBUG| Maximum accepted error                                            0.20 %

 -------------------------------------------------------------------------------
 -                                                                             -
 -                                DBCSR STATISTICS                             -
 -                                                                             -
 -------------------------------------------------------------------------------
 COUNTER                                    TOTAL       BLAS       SMM       ACC
 flops     1 x     6 x     1                 3168     100.0%      0.0%      0.0%     
 flops     4 x     6 x     1                 6336     100.0%      0.0%      0.0%     
 flops     1 x     6 x     4                 6336     100.0%      0.0%      0.0%     
 flops     1 x     1 x     6                 6696     100.0%      0.0%      0.0%     
 flops     4 x     1 x     6                 8928     100.0%      0.0%      0.0%     
 flops     1 x     4 x     6                 8928     100.0%      0.0%      0.0%     
 flops     4 x     6 x     4                12672     100.0%      0.0%      0.0%     
 flops     4 x     4 x     6                35712     100.0%      0.0%      0.0%     
 flops inhomo. stacks                           0       0.0%      0.0%      0.0%
 flops total                        88.776000E+03     100.0%      0.0%      0.0%
 flops max/rank                     88.776000E+03     100.0%      0.0%      0.0%
 matmuls inhomo. stacks                         0       0.0%      0.0%      0.0%
 matmuls total                               1710     100.0%      0.0%      0.0%
 number of processed stacks                  1008     100.0%      0.0%      0.0%
 average stack size                                     1.7       0.0       0.0
 marketing flops                    82.080000E+03
 -------------------------------------------------------------------------------
 # multiplications                            252
 max memory usage/rank               9.875948E+09
 # max total images/rank                        1
 # max 3D layers                                1
 # MPI messages exchanged                       0
 -------------------------------------------------------------------------------
 -                                                                             -
 -                      DBCSR MESSAGE PASSING PERFORMANCE                      -
 -                                                                             -
 -------------------------------------------------------------------------------
 ROUTINE             CALLS      AVE VOLUME [Bytes]
 MP_Bcast                9                     12.
 MP_Allreduce         1163                      9.
 MP_Alltoall          6594                    294.
 MP_ISend             1008                     76.
 MP_IRecv             1008                     76.
 -------------------------------------------------------------------------------

 -------------------------------------------------------------------------------
 -                                                                             -
 -                          OFFLOAD MEMPOOL STATISTICS                         -
 -                                                                             -
 -------------------------------------------------------------------------------
 Memory consumption                Number of allocations  Used [MiB]  Size [MiB]
 Host                                                  1           0           0
 -------------------------------------------------------------------------------

 MEMORY| Estimated peak process memory [MiB]                                 117

 -------------------------------------------------------------------------------
 ----                             MULTIGRID INFO                            ----
 -------------------------------------------------------------------------------
 total grid count     :           420              cutoff [a.u.]            1.00

 -------------------------------------------------------------------------------
 -                                                                             -
 -                         MESSAGE PASSING PERFORMANCE                         -
 -                                                                             -
 -------------------------------------------------------------------------------

 ROUTINE             CALLS      AVE VOLUME [Bytes]
 MP_Group               20
 MP_Bcast              332                     26.
 MP_Allreduce         5339                     51.
 MP_Sync               186
 MP_comm_split         166
 -------------------------------------------------------------------------------


 -------------------------------------------------------------------------------
 -                                                                             -
 -                           R E F E R E N C E S                               -
 -                                                                             -
 -------------------------------------------------------------------------------
 
 CP2K version 2026.2 (Development Version), the CP2K developers group (2026).
 CP2K is freely available from https://www.cp2k.org/ .
 
 M. Iannuzzi, J. Wilhelm, F. Stein, A. Bussy, H. Elgabarty, D. Golze, A. Hehn, 
 M. Graml, S. Marek, B. Sertcan Gökmen, C. Schran, H. Forbert, R. Z. 
 Khaliullin, A. Kozhevnikov, M. Taillefumier, R. Meli, V. V. Rybkin, M. Brehm, 
 R. Schade, O. Schütt, J. V. Pototschnig, H. Mirhosseini, A. Knüpfer, D. Marx, 
 M. Krack, J. Hutter, T. D. Kühne.
 J. Phys. Chem. B 130, 1237-1310 (2026).
 The CP2K Program Package Made Simple.
 https://doi.org/10.1021/acs.jpcb.5c05851

 A. Katbashev, M. Stahn, T. Rose, V. Alizadeh, M. Friede, C. Plett, P. 
 Steinbach, S. Ehlert.
 J. Phys. Chem. A 129, 2667-2682 (2025).
 Overview on Building Blocks and Applications of Efficient and Robust Extended 
 Tight Binding.
 https://doi.org/10.1021/acs.jpca.4c08263

 T. D. Kühne, M. Iannuzzi, M. Del Ben, V. V. Rybkin, P. Seewald, F. Stein, T. 
 Laino, R. Z. Khaliullin, O. Schütt, F. Schiffmann, D. Golze, J. Wilhelm, S. 
 Chulkov, M. H. Bani-Hashemian, V. Weber, U. Borstnik, M. Taillefumier, A. S. 
 Jakobovits, A. Lazzaro, H. Pabst, T. Müller, R. Schade, M. Guidon, S. 
 Andermatt, N. Holmberg, G. K. Schenter, A. Hehn, A. Bussy, F. Belleflamme, G. 
 Tabacchi, A. Glöß, M. Lass, I. Bethune, C. J. Mundy, C. Plessl, M. Watkins, 
 J. VandeVondele, M. Krack, J. Hutter.
 J. Chem. Phys. 152, 194103 (2020).
 CP2K: An electronic structure and molecular dynamics software package - 
 Quickstep: Efficient and accurate electronic structure calculations.
 https://doi.org/10.1063/5.0007045

 P. Pracht, E. Caldeweyher, S. Ehlert, S. Grimme.
 ChemRxiv, (2019).
 A Robust Non-Self-Consistent Tight-Binding Quantum Chemistry Method for large 
 Molecules.
 https://doi.org/10.26434/chemrxiv.8326202.v1

 S. Grimme, C. Bannwarth, P. Shushkov.
 J. Chem. Theory Comput. 13, 1989 (2017).
 A Robust and Accurate Tight-Binding Quantum Chemical Method for Structures, 
 Vibrational Frequencies, and Noncovalent Interactions of Large Molecular 
 Systems Parametrized for All spd-Block Elements (Z = 1-86).
 https://doi.org/10.1021/acs.jctc.7b00118

 O. Schuett, P. Messmer, J. Hutter, J. VandeVondele.
 Electronic Structure Calculations on Graphics Processing Units, 173-190 (2016).
 GPU-Accelerated Sparse Matrix-Matrix Multiplication for Linear Scaling Density 
 Functional Theory.
 https://doi.org/10.1002/9781118670712.ch8

 U. Borstnik, J. VandeVondele, V. Weber, J. Hutter.
 Parallel Comput. 40, 47-58 (2014).
 Sparse matrix multiplication: The distributed block-compressed sparse row 
 library.
 https://doi.org/10.1016/j.parco.2014.03.012

 T. D. Kühne, M. Krack, F. R. Mohamed, M. Parrinello.
 Phys. Rev. Lett. 98, 066401 (2007).
 Efficient and accurate Car-Parrinello-like approach to Born-Oppenheimer 
 molecular dynamics.
 https://doi.org/10.1103/PhysRevLett.98.066401

 M. Frigo, S. G. Johnson.
 Proc. IEEE 93, 216-231 (2005).
 The design and implementation of FFTW3.
 https://doi.org/10.1109/JPROC.2004.840301

 J. Kolafa.
 J. Comput. Chem. 25, 335-342 (2004).
 Time-reversible always stable predictor-corrector method for molecular dynamics 
 of polarizable molecules.
 https://doi.org/10.1002/jcc.10385


 -------------------------------------------------------------------------------
 -                                                                             -
 -                                T I M I N G                                  -
 -                                                                             -
 -------------------------------------------------------------------------------
 SUBROUTINE                       CALLS  ASD         SELF TIME        TOTAL TIME
                                MAXIMUM       AVERAGE  MAXIMUM  AVERAGE  MAXIMUM
 CP2K                                 1  1.0    0.005    0.005    0.956    0.956
 qs_energies                         20  2.0    0.001    0.001    0.898    0.898
 tb_reference_cli_compare            20  3.0    0.502    0.502    0.502    0.502
 scf_env_do_scf                      20  3.0    0.000    0.000    0.244    0.244
 scf_env_do_scf_inner_loop          166  4.1    0.030    0.030    0.243    0.243
 qs_scf_new_mos                     166  5.1    0.003    0.003    0.167    0.167
 calculate_dm_sparse                185  6.1    0.001    0.001    0.116    0.116
 cp_dbcsr_plus_fm_fm_t              186  7.1    0.002    0.002    0.116    0.116
 build_tblite_matrices               21  4.0    0.093    0.093    0.108    0.108
 dbcsr_multiply_generic             252  8.0    0.007    0.007    0.103    0.103
 qs_energies_init_hamiltonians       20  3.0    0.000    0.000    0.103    0.103
 qs_forces                            1  2.0    0.000    0.000    0.071    0.071
 init_scf_run                        20  3.0    0.000    0.000    0.058    0.058
 make_m2s                           504  9.0    0.004    0.004    0.055    0.055
 scf_env_initial_rho_setup           20  4.0    0.000    0.000    0.054    0.054
 wfi_extrapolate                     20  5.0    0.001    0.001    0.054    0.054
 rebuild_ks_matrix                  186  5.8    0.000    0.000    0.046    0.046
 build_tblite_ks_matrix             186  6.8    0.039    0.039    0.046    0.046
 dbcsr_complete_redistribute        690  8.3    0.017    0.017    0.043    0.043
 copy_dbcsr_to_fm                   252  6.2    0.002    0.002    0.041    0.041
 qs_ks_update_qs_env                185  4.9    0.001    0.001    0.038    0.038
 cp_dbcsr_sm_fm_multiply             66  6.0    0.001    0.001    0.035    0.035
 eigensolver                        166  6.1    0.008    0.008    0.032    0.032
 copy_fm_to_dbcsr                   438  7.9    0.001    0.001    0.030    0.030
 make_images                        504 10.0    0.006    0.006    0.025    0.025
 multiply_cannon                    252  9.0    0.015    0.015    0.025    0.025
 cp_fm_syevd                        166  7.1    0.001    0.001    0.021    0.021
 dbcsr_finalize                    3690  8.9    0.005    0.005    0.019    0.019
 -------------------------------------------------------------------------------

 The number of warnings for this run is : 1
 
 -------------------------------------------------------------------------------
  **** **** ******  **  PROGRAM ENDED AT                 2026-07-21 17:56:55.418
 ***** ** ***  *** **   PROGRAM RAN ON                                     terok
 **    ****   ******    PROGRAM RAN BY                                  kuehne88
 ***** **    ** ** **   PROGRAM PROCESS ID                               1490711
  **** **  *******  **  PROGRAM STOPPED IN /home/kuehne88/work/h2o-molecular-lim
                                           it-fix-20260721/stress/raw/H2O_stress
                                           _L08
