 DBCSR| CPU Multiplication driver                                           BLAS (U)
 DBCSR| Multrec recursion limit                                              512 (U)
 DBCSR| Multiplication stack size                                           1000 (D)
 DBCSR| Maximum elements for images                                    UNLIMITED (U)
 DBCSR| Multiplicative factor virtual images                                   1 (U)
 DBCSR| Use multiplication densification                                       T (D)
 DBCSR| Multiplication size stacks                                             3 (U)
 DBCSR| Use memory pool for CPU allocation                                     F (U)
 DBCSR| Number of 3D layers                                               SINGLE (U)
 DBCSR| Use MPI memory allocation                                              F (U)
 DBCSR| Use RMA algorithm                                                      F (U)
 DBCSR| Use Communication thread                                               T (U)
 DBCSR| Communication thread load                                             87 (D)
 DBCSR| MPI: My process id                                                     0
 DBCSR| MPI: Number of processes                                               1
 DBCSR| OMP: Current number of threads                                         1
 DBCSR| OMP: Max number of threads                                             1
 DBCSR| Split modifier for TAS multiplication algorithm                  1.0E+00 (U)


  **** **** ******  **  PROGRAM STARTED AT               2026-07-21 17:57:34.482
 ***** ** ***  *** **   PROGRAM STARTED ON                                 terok
 **    ****   ******    PROGRAM STARTED BY                              kuehne88
 ***** **    ** ** **   PROGRAM PROCESS ID                               1512105
  **** **  *******  **  PROGRAM STARTED IN /home/kuehne88/work/h2o-molecular-lim
                                           it-fix-20260721/stress/raw/H2O_stress
                                           _L10

 CP2K| version string:                 CP2K version 2026.2 (Development Version)
 CP2K| source code revision number:                                    8520b2e59
 CP2K| cp2kflags: omp parallel scalapack spglib s_dftd3 mctc-lib tblite tblite_g
 CP2K|            xtb
 CP2K| is freely available from                            https://www.cp2k.org/
 CP2K| Program compiled at                                   2026-07-18 23:48:15
 CP2K| Program compiled on                                                 terok
 CP2K| Program compiled for                                               x86_64
 CP2K| Data directory path                            /usr/local/share/cp2k/data
 CP2K| Input file name        /home/kuehne88/work/h2o-molecular-limit-fix-202607

 GLOBAL| Force Environment number                                              1
 GLOBAL| Basis set file name                                           BASIS_SET
 GLOBAL| Potential file name                                           POTENTIAL
 GLOBAL| MM Potential file name                                     MM_POTENTIAL
 GLOBAL| Coordinate file name                                      __STD_INPUT__
 GLOBAL| Method name                                                        CP2K
 GLOBAL| Project name                                             H2O_stress_L10
 GLOBAL| Run type                                                          DEBUG
 GLOBAL| FFT library                                                       FFTW3
 GLOBAL| Diagonalization library                                       ScaLAPACK
 GLOBAL| Cholesky decomposition library                                ScaLAPACK
 GLOBAL| DGEMM library                                                      BLAS
 GLOBAL| Direct generalized diagonalization requested                          F
 GLOBAL| Orthonormality check for eigenvectors                          DISABLED
 GLOBAL| Matrix multiplication library                                 ScaLAPACK
 GLOBAL| All-to-all communication in single precision                          F
 GLOBAL| FFTs using library dependent lengths                                  F
 GLOBAL| Grid backend                                                       AUTO
 GLOBAL| Global print level                                               MEDIUM
 GLOBAL| MPI I/O enabled                                                       T
 GLOBAL| Total number of message passing processes                             1
 GLOBAL| Number of distributed systems (nodes)                                 1
 GLOBAL| Number of threads for this process                                    1
 GLOBAL| This output is from process                                           0
 GLOBAL| OpenMP stack size per thread (OMP_STACKSIZE)                    default
 GLOBAL| CPU model name                                       AMD EPYC Processor
 GLOBAL| CPUID                                                              1002

 MEMORY| system memory details [Kb]
 MEMORY|                        rank 0           min           max       average
 MEMORY| MemTotal            528104804     528104804     528104804     528104804
 MEMORY| MemFree             507939536     507939536     507939536     507939536
 MEMORY| Buffers                    20            20            20            20
 MEMORY| Cached               15187520      15187520      15187520      15187520
 MEMORY| Slab                  2494636       2494636       2494636       2494636
 MEMORY| SReclaimable          1120744       1120744       1120744       1120744
 MEMORY| MemLikelyFree       524247820     524247820     524247820     524247820


 *** WARNING in environment.F:1098 :: FFT library FFTW3 is not available. ***
 *** Trying FFT library FFTSG.                                            ***


 *** Fundamental physical constants (SI units) ***

 *** Literature: B. J. Mohr and B. N. Taylor,
 ***             CODATA recommended values of the fundamental physical
 ***             constants: 2006, Web Version 5.1
 ***             http://physics.nist.gov/constants

 Speed of light in vacuum [m/s]                             2.99792458000000E+08
 Magnetic constant or permeability of vacuum [N/A**2]       1.25663706143592E-06
 Electric constant or permittivity of vacuum [F/m]          8.85418781762039E-12
 Planck constant (h) [J*s]                                  6.62606896000000E-34
 Planck constant (h-bar) [J*s]                              1.05457162825177E-34
 Elementary charge [C]                                      1.60217648700000E-19
 Electron mass [kg]                                         9.10938215000000E-31
 Electron g factor [ ]                                     -2.00231930436220E+00
 Proton mass [kg]                                           1.67262163700000E-27
 Fine-structure constant                                    7.29735253760000E-03
 Rydberg constant [1/m]                                     1.09737315685270E+07
 Avogadro constant [1/mol]                                  6.02214179000000E+23
 Boltzmann constant [J/K]                                   1.38065040000000E-23
 Atomic mass unit [kg]                                      1.66053878200000E-27
 Bohr radius [m]                                            5.29177208590000E-11

 *** Conversion factors ***

 [u] -> [a.u.]                                              1.82288848426455E+03
 [Angstrom] -> [Bohr] = [a.u.]                              1.88972613288564E+00
 [a.u.] = [Bohr] -> [Angstrom]                              5.29177208590000E-01
 [a.u.] -> [s]                                              2.41888432650478E-17
 [a.u.] -> [fs]                                             2.41888432650478E-02
 [a.u.] -> [J]                                              4.35974393937059E-18
 [a.u.] -> [N]                                              8.23872205491840E-08
 [a.u.] -> [K]                                              3.15774647902944E+05
 [a.u.] -> [kJ/mol]                                         2.62549961709828E+03
 [a.u.] -> [kcal/mol]                                       6.27509468713739E+02
 [a.u.] -> [Pa]                                             2.94210107994716E+13
 [a.u.] -> [bar]                                            2.94210107994716E+08
 [a.u.] -> [atm]                                            2.90362800883016E+08
 [a.u.] -> [eV]                                             2.72113838565563E+01
 [a.u.] -> [Hz]                                             6.57968392072181E+15
 [a.u.] -> [1/cm] (wave numbers)                            2.19474631370540E+05
 [a.u./Bohr**2] -> [1/cm]                                   5.14048714338585E+03
 

 CELL| Volume [angstrom^3]:                                          1000.000000
 CELL| Vector a [angstrom]:      10.000     0.000     0.000   |a| =    10.000000
 CELL| Vector b [angstrom]:       0.000    10.000     0.000   |b| =    10.000000
 CELL| Vector c [angstrom]:       0.000     0.000    10.000   |c| =    10.000000
 CELL| Angle (b,c), alpha [degree]:                                    90.000000
 CELL| Angle (a,c), beta  [degree]:                                    90.000000
 CELL| Angle (a,b), gamma [degree]:                                    90.000000
 CELL| Numerically orthorhombic:                                             YES
 CELL| Periodicity                                                           XYZ

 CELL_REF| Volume [angstrom^3]:                                      1000.000000
 CELL_REF| Vector a [angstrom    10.000     0.000     0.000   |a| =    10.000000
 CELL_REF| Vector b [angstrom     0.000    10.000     0.000   |b| =    10.000000
 CELL_REF| Vector c [angstrom     0.000     0.000    10.000   |c| =    10.000000
 CELL_REF| Angle (b,c), alpha [degree]:                                90.000000
 CELL_REF| Angle (a,c), beta  [degree]:                                90.000000
 CELL_REF| Angle (a,b), gamma [degree]:                                90.000000
 CELL_REF| Numerically orthorhombic:                                         YES
 CELL_REF| Periodicity                                                       XYZ

 GENERATE|  Preliminary Number of Bonds generated:                             0
 GENERATE|  Achieved consistency in connectivity generation.


                  #####   #####        #     #   #     #       #          
                 #     # #     #      #    ##### #     #   # #####  ####  
                 #     # #           #       #   ###   #       #   #    # 
                 #     #  #####     #        #   #  #  #   #   #   ###### 
                 #   # #       #   #         #   #   # #   #   #   #      
                 #    #  #     #  #          #   #  #  # # #   #    #   # 
                  #### #  #####  #           #   ###   ##  #   #     ###  

                                     g-xTB   
                                 Version 0.0                       
                            Johann V. Pototschnig                  

                tblite provider: SAVE
                tblite source revision: 15915c9435644eb257178ca8f8bf7220c38b1a84
                g-xTB support: enabled

 xTB| Parameter file                                             xTB1_parameters
 xTB| Basis expansion STO-NG                                                   6
 xTB| Basis expansion STO-NG for Hydrogen                                      4
 xTB| Repulsive pair potential accuracy                               0.1000E-09
 xTB| Repulsive enhancement factor                                      0.000000
 xTB| Halogen interaction potential                                            T
 xTB| Halogen interaction potential cutoff radius                         20.000
 xTB| Nonbonded interactions                                                   F
 xTB| vdW potential type:                                              DFTD3(BJ)
 xTB| D3 Dispersion: Parameter                                         dftd3.dat
 xTB| Huckel constants ks kp kd                        1.850     2.250     2.000
 xTB| Huckel constants ksp k2sh                                  2.080     2.850
 xTB| Mataga-Nishimoto exponent                                            2.000
 xTB| Repulsion potential exponent                                         1.500
 xTB| Coordination number scaling kcn(s) kcn(p) kc     0.006    -0.003    -0.005
 xTB| Electronegativity scaling                                           -0.007
 xTB| Halogen potential scaling kxr kx2                          1.300     0.440
 xTB| SCC mixer:                                                       TBLITE
 xTB| tblite accuracy:                                                 1.000E-01
 xTB| tblite SCC mixer damping:                                            0.400
 xTB| tblite SCC mixer iterations:                                           300
 xTB| tblite SCC mixer memory:                                               300
 xTB| tblite SCC mixer solver:                                         GVD
 xTB| tblite SCC mixer omega0:                                         1.000E-02
 xTB| tblite SCC mixer min weight:                                     1.000E+00
 xTB| tblite SCC mixer max weight:                                     1.000E+05
 xTB| tblite SCC mixer weight factor:                                  1.000E-02




 ATOMIC KIND INFORMATION

  1. Atomic kind: H                                     Number of atoms:       2

     Orbital Basis Set                                                 H _STO-8G

       Number of orbital shell sets:                                           1
       Number of orbital shells:                                               1
       Number of primitive Cartesian functions:                                8
       Number of Cartesian basis functions:                                    1
       Number of spherical basis functions:                                    1
       Norm type:                                                              3

       Normalised Cartesian orbitals:

                        Set   Shell   Orbital            Exponent    Coefficient

                          1       1    1s              337.005012       0.037374
                                                        53.310531       0.063272
                                                        12.208253       0.115774
                                                         3.418827       0.175156
                                                         1.108790       0.218995
                                                         0.478718       0.126311
                                                         0.212137       0.088533
                                                         0.069058       0.001978

     AE Potential information for                                       Hydrogen

       Description:                                       Bare Coulomb Potential
                                                              Full atomic charge

       Gaussian exponent of the core charge distribution:              12.500000
       Electronic configuration (s p d ...):                       1   0   0   0

  2. Atomic kind: O                                     Number of atoms:       1

     Orbital Basis Set                                                 O _STO-6G

       Number of orbital shell sets:                                           2
       Number of orbital shells:                                               2
       Number of primitive Cartesian functions:                               12
       Number of Cartesian basis functions:                                    4
       Number of spherical basis functions:                                    4
       Norm type:                                                              3

       Normalised Cartesian orbitals:

                        Set   Shell   Orbital            Exponent    Coefficient

                          1       1    1s                3.483595      -1.312778
                                                         2.859866       1.114640
                                                         0.740681       0.294469
                                                         0.344927       0.081374
                                                         0.261979       0.039450
                                                         0.094616       0.012404

                          2       1    2px              37.641471       1.473846
                                                         9.713089       1.793230
                                                         3.137177       1.302657
                                                         1.121381       0.632971
                                                         0.398078       0.183037
                                                         0.123048       0.019201
                          2       1    2py              37.641471       1.473846
                                                         9.713089       1.793230
                                                         3.137177       1.302657
                                                         1.121381       0.632971
                                                         0.398078       0.183037
                                                         0.123048       0.019201
                          2       1    2pz              37.641471       1.473846
                                                         9.713089       1.793230
                                                         3.137177       1.302657
                                                         1.121381       0.632971
                                                         0.398078       0.183037
                                                         0.123048       0.019201

     AE Potential information for                                         Oxygen

       Description:                                       Bare Coulomb Potential
                                                             Valence charge only

       Gaussian exponent of the core charge distribution:               3.753049
       Electronic configuration (s p d ...):                       2   4   0   0


 MOLECULE KIND INFORMATION


 All atoms are their own molecule, skipping detailed information


 TOTAL NUMBERS AND MAXIMUM NUMBERS

  Total number of            - Atomic kinds:                                   2
                             - Atoms:                                          3
                             - Shell sets:                                     4
                             - Shells:                                         4
                             - Primitive Cartesian functions:                 28
                             - Cartesian basis functions:                      6
                             - Spherical basis functions:                      6

  Maximum angular momentum of the orbital basis functions:                     1


 MODULE QUICKSTEP: ATOMIC COORDINATES IN ANGSTROM

   Atom Kind Element         X             Y             Z       Z(eff)     Mass
      1    1 H     1     -0.012165      0.000000     -0.932352   1.0000   1.0079
      2    1 H     1      0.875098      0.000000      0.321998   1.0000   1.0079
      3    2 O     8     -0.054364      0.000000      0.038451   6.0000  15.9994



 SCF PARAMETERS         Density guess:                                     MOPAC
                        --------------------------------------------------------
                        max_scf:                                             300
                        max_scf_history:                                       0
                        max_diis:                                              4
                        --------------------------------------------------------
                        eps_scf:                                        1.00E-10
                        eps_scf_history:                                0.00E+00
                        eps_diis:                                       1.00E-01
                        eps_eigval:                                     1.00E-05
                        --------------------------------------------------------
                        level_shift [a.u.]:                             0.000000
                        added MOs                                         2    0
                        --------------------------------------------------------
                        Mixing method:                           DIRECT_P_MIXING
                        --------------------------------------------------------
                        No outer SCF

 PW_GRID| Information for grid number                                          1
 PW_GRID| Cutoff [a.u.]                                                      1.0
 PW_GRID| spherical cutoff:                                                   NO
 PW_GRID|   Bounds   1             -4       4                Points:           9
 PW_GRID|   Bounds   2             -4       4                Points:           9
 PW_GRID|   Bounds   3             -4       4                Points:           9
 PW_GRID| Volume element (a.u.^3)   9.257         Volume (a.u.^3)      6748.3346
 PW_GRID| Grid span                                                    FULLSPACE

 POISSON| Solver                                                        PERIODIC
 POISSON| Periodicity                                                        XYZ

 RS_GRID| Information for grid number                                          1
 RS_GRID|   Bounds   1             -4       4                Points:           9
 RS_GRID|   Bounds   2             -4       4                Points:           9
 RS_GRID|   Bounds   3             -4       4                Points:           9

 Extrapolation method: initial_guess

 Number of electrons:                                                          8
 Number of occupied orbitals:                                                  4
 Number of molecular orbitals:                                                 6

 Number of orbital functions:                                                  6
 Number of independent orbital functions:                                      6


 SCF WAVEFUNCTION OPTIMIZATION

  Step     Update method      Time    Convergence         Total energy    Change
  ------------------------------------------------------------------------------
     1 GXTB-Raw    0.10E+01    0.0     0.75253312       -76.4671097071 -7.65E+01
     2 GXTB-Simple 0.20E+00    0.0     0.05519667       -76.4812356476 -1.41E-02
     3 GXTB-Simple 0.20E+00    0.0     0.03851164       -76.4884761755 -7.24E-03
     4 GXTB-FDIIS  0.10E+01    0.0     0.08068419       -76.4960776369 -7.60E-03
     5 GXTB-FDIIS  0.10E+01    0.0     0.00679416       -76.4961272177 -4.96E-05
     6 GXTB-FDIIS  0.10E+01    0.0     0.00125881       -76.4961277931 -5.75E-07
     7 GXTB-FDIIS  0.10E+01    0.0     0.00006034       -76.4961277950 -1.87E-09
     8 GXTB-FDIIS  0.10E+01    0.0     0.00000655       -76.4961277950 -2.51E-11
     9 GXTB-FDIIS  0.10E+01    0.0     0.00000082       -76.4961277950  0.00E+00
    10 GXTB-FDIIS  0.10E+01    0.0     0.00000043       -76.4961277950 -5.68E-14
    11 GXTB-FDIIS  0.10E+01    0.0     9.6253E-11       -76.4961277950  0.00E+00

  *** SCF run converged in    11 steps ***


  Core Hamiltonian energy:                                     -6.24168643504629
  Repulsive potential energy:                                   0.31811530232867
  Electrostatic energy:                                         0.15352177377089
  Self-consistent dispersion energy:                           -0.00004617705897
  Non-self consistent dispersion energy:                        0.00000029772266
  Correction for halogen bonding:                               0.00000000000000

  Total energy:                                               -76.49612779497798


 MULLIKEN POPULATION ANALYSIS

  # Atom   Element   Kind        Atomic population                    Net charge
       1     H          1                 0.669457                      0.330543
       2     H          1                 0.669467                      0.330533
       3     O          2                 6.661076                     -0.661076
 # Total charge                           8.000000                     -0.000000


 tblite reference CLI check
 Executable: tblite
 Method:     gxtb
 Guess:      auto
 Solver:     gvd
 Spin-pol.:  F
 Grad file:  H2O_stress_L10_cli.grad
 JSON file:  H2O_stress_L10_cli.json
 Log file:   H2O_stress_L10_cli.log
 Energy CP2K/CLI/absdiff:   -7.649612779498E+01   -7.649612779558E+01    6.056239953978E-10
 Gradient diff sum/max:    8.940703236156E-08    2.470077180468E-08
 Virial diff sum/max:    7.954122071154E-08    3.777993110021E-08

 ENERGY| Total FORCE_EVAL ( QS ) energy [hartree]            -76.496127794977980

 -------------------------------------------------------------------------------
 ----                             MULTIGRID INFO                            ----
 -------------------------------------------------------------------------------
 total grid count     :           420              cutoff [a.u.]            1.00

 PW_GRID| Information for grid number                                          2
 PW_GRID| Cutoff [a.u.]                                                      1.0
 PW_GRID| spherical cutoff:                                                   NO
 PW_GRID|   Bounds   1             -4       4                Points:           9
 PW_GRID|   Bounds   2             -4       4                Points:           9
 PW_GRID|   Bounds   3             -4       4                Points:           9
 PW_GRID| Volume element (a.u.^3)   9.257         Volume (a.u.^3)      6748.3703
 PW_GRID| Grid span                                                    FULLSPACE

 POISSON| Solver                                                        PERIODIC
 POISSON| Periodicity                                                        XYZ

 RS_GRID| Information for grid number                                          2
 RS_GRID|   Bounds   1             -4       4                Points:           9
 RS_GRID|   Bounds   2             -4       4                Points:           9
 RS_GRID|   Bounds   3             -4       4                Points:           9

 Parameters for the always stable predictor-corrector (ASPC) method:

  ASPC order: 0

  B(1) =   1.000000

 Extrapolation method: ASPC

 Number of electrons:                                                          8
 Number of occupied orbitals:                                                  4
 Number of molecular orbitals:                                                 6

 Number of orbital functions:                                                  6
 Number of independent orbital functions:                                      6


 SCF WAVEFUNCTION OPTIMIZATION

  Step     Update method      Time    Convergence         Total energy    Change
  ------------------------------------------------------------------------------
     1 GXTB-Raw    0.10E+01    0.0     0.00000190       -76.4961274372 -7.65E+01
     2 GXTB-Simple 0.20E+00    0.0     0.00000038       -76.4961274372 -4.83E-13
     3 GXTB-Simple 0.20E+00    0.0     0.00000032       -76.4961274372 -3.41E-13
     4 GXTB-FDIIS  0.10E+01    0.0     0.00000150       -76.4961274372 -6.96E-13
     5 GXTB-FDIIS  0.10E+01    0.0     0.00000006       -76.4961274372  0.00E+00
     6 GXTB-FDIIS  0.10E+01    0.0     0.00000004       -76.4961274372  1.42E-14
     7 GXTB-FDIIS  0.10E+01    0.0     1.3439E-09       -76.4961274372 -1.42E-14
     8 GXTB-FDIIS  0.10E+01    0.0     1.4115E-10       -76.4961274372  0.00E+00
     9 GXTB-FDIIS  0.10E+01    0.0     4.5099E-13       -76.4961274372  1.42E-14

  *** SCF run converged in     9 steps ***


  Core Hamiltonian energy:                                     -6.24168308242651
  Repulsive potential energy:                                   0.31811212094355
  Electrostatic energy:                                         0.15352178699181
  Self-consistent dispersion energy:                           -0.00004617727967
  Non-self consistent dispersion energy:                        0.00000029772728
  Correction for halogen bonding:                               0.00000000000000

  Total energy:                                               -76.49612743724400


 MULLIKEN POPULATION ANALYSIS

  # Atom   Element   Kind        Atomic population                    Net charge
       1     H          1                 0.669457                      0.330543
       2     H          1                 0.669468                      0.330532
       3     O          2                 6.661075                     -0.661075
 # Total charge                           8.000000                      0.000000


 tblite reference CLI check
 Executable: tblite
 Method:     gxtb
 Guess:      auto
 Solver:     gvd
 Spin-pol.:  F
 Grad file:  H2O_stress_L10_cli.grad
 JSON file:  H2O_stress_L10_cli.json
 Log file:   H2O_stress_L10_cli.log
 Energy CP2K/CLI/absdiff:   -7.649612743724E+01   -7.649612743785E+01    6.056808388166E-10
 Gradient diff sum/max:    9.849197571390E-06    3.755501220590E-06
 Virial diff sum/max:    1.862344171109E-01    6.760528684831E-02
 tblite reference CLI deviation exceeded ERROR_LIMIT =   1.0000E-05

 ENERGY| Total FORCE_EVAL ( QS ) energy [hartree]            -76.496127437243999

 -------------------------------------------------------------------------------
 ----                             MULTIGRID INFO                            ----
 -------------------------------------------------------------------------------
 total grid count     :           420              cutoff [a.u.]            1.00

 PW_GRID| Information for grid number                                          3
 PW_GRID| Cutoff [a.u.]                                                      1.0
 PW_GRID| spherical cutoff:                                                   NO
 PW_GRID|   Bounds   1             -4       4                Points:           9
 PW_GRID|   Bounds   2             -4       4                Points:           9
 PW_GRID|   Bounds   3             -4       4                Points:           9
 PW_GRID| Volume element (a.u.^3)   9.257         Volume (a.u.^3)      6748.2989
 PW_GRID| Grid span                                                    FULLSPACE

 POISSON| Solver                                                        PERIODIC
 POISSON| Periodicity                                                        XYZ

 RS_GRID| Information for grid number                                          3
 RS_GRID|   Bounds   1             -4       4                Points:           9
 RS_GRID|   Bounds   2             -4       4                Points:           9
 RS_GRID|   Bounds   3             -4       4                Points:           9

 Parameters for the always stable predictor-corrector (ASPC) method:

  ASPC order: 0

  B(1) =   2.000000
  B(2) =  -1.000000

 Extrapolation method: ASPC

 Number of electrons:                                                          8
 Number of occupied orbitals:                                                  4
 Number of molecular orbitals:                                                 6

 Number of orbital functions:                                                  6
 Number of independent orbital functions:                                      6


 SCF WAVEFUNCTION OPTIMIZATION

  Step     Update method      Time    Convergence         Total energy    Change
  ------------------------------------------------------------------------------
     1 GXTB-Raw    0.10E+01    0.0     0.00000381       -76.4961281527 -7.65E+01
     2 GXTB-Simple 0.20E+00    0.0     0.00000077       -76.4961281527 -1.95E-12
     3 GXTB-Simple 0.20E+00    0.0     0.00000064       -76.4961281527 -1.31E-12
     4 GXTB-FDIIS  0.10E+01    0.0     0.00000300       -76.4961281527 -2.79E-12
     5 GXTB-FDIIS  0.10E+01    0.0     0.00000013       -76.4961281527  0.00E+00
     6 GXTB-FDIIS  0.10E+01    0.0     0.00000007       -76.4961281527  0.00E+00
     7 GXTB-FDIIS  0.10E+01    0.0     2.6877E-09       -76.4961281527  0.00E+00
     8 GXTB-FDIIS  0.10E+01    0.0     2.8230E-10       -76.4961281527  0.00E+00
     9 GXTB-FDIIS  0.10E+01    0.0     9.0247E-13       -76.4961281527  0.00E+00

  *** SCF run converged in     9 steps ***


  Core Hamiltonian energy:                                     -6.24168978769136
  Repulsive potential energy:                                   0.31811848377048
  Electrostatic energy:                                         0.15352176055621
  Self-consistent dispersion energy:                           -0.00004617683826
  Non-self consistent dispersion energy:                        0.00000029771803
  Correction for halogen bonding:                               0.00000000000000

  Total energy:                                               -76.49612815267972


 MULLIKEN POPULATION ANALYSIS

  # Atom   Element   Kind        Atomic population                    Net charge
       1     H          1                 0.669457                      0.330543
       2     H          1                 0.669467                      0.330533
       3     O          2                 6.661076                     -0.661076
 # Total charge                           8.000000                     -0.000000


 tblite reference CLI check
 Executable: tblite
 Method:     gxtb
 Guess:      auto
 Solver:     gvd
 Spin-pol.:  F
 Grad file:  H2O_stress_L10_cli.grad
 JSON file:  H2O_stress_L10_cli.json
 Log file:   H2O_stress_L10_cli.log
 Energy CP2K/CLI/absdiff:   -7.649612815268E+01   -7.649612815329E+01    6.055955736883E-10
 Gradient diff sum/max:    9.890141186562E-06    3.805004280705E-06
 Virial diff sum/max:    1.862283510491E-01    6.759239519836E-02
 tblite reference CLI deviation exceeded ERROR_LIMIT =   1.0000E-05

 ENERGY| Total FORCE_EVAL ( QS ) energy [hartree]            -76.496128152679717

 -------------------------------------------------------------------------------
 ----                             MULTIGRID INFO                            ----
 -------------------------------------------------------------------------------
 total grid count     :           420              cutoff [a.u.]            1.00

 PW_GRID| Information for grid number                                          4
 PW_GRID| Cutoff [a.u.]                                                      1.0
 PW_GRID| spherical cutoff:                                                   NO
 PW_GRID|   Bounds   1             -4       4                Points:           9
 PW_GRID|   Bounds   2             -4       4                Points:           9
 PW_GRID|   Bounds   3             -4       4                Points:           9
 PW_GRID| Volume element (a.u.^3)   9.257         Volume (a.u.^3)      6748.3346
 PW_GRID| Grid span                                                    FULLSPACE

 POISSON| Solver                                                        PERIODIC
 POISSON| Periodicity                                                        XYZ

 RS_GRID| Information for grid number                                          4
 RS_GRID|   Bounds   1             -4       4                Points:           9
 RS_GRID|   Bounds   2             -4       4                Points:           9
 RS_GRID|   Bounds   3             -4       4                Points:           9

 Parameters for the always stable predictor-corrector (ASPC) method:

  ASPC order: 1

  B(1) =   2.500000
  B(2) =  -2.000000
  B(3) =   0.500000

 Extrapolation method: ASPC

 Number of electrons:                                                          8
 Number of occupied orbitals:                                                  4
 Number of molecular orbitals:                                                 6

 Number of orbital functions:                                                  6
 Number of independent orbital functions:                                      6


 SCF WAVEFUNCTION OPTIMIZATION

  Step     Update method      Time    Convergence         Total energy    Change
  ------------------------------------------------------------------------------
     1 GXTB-Raw    0.10E+01    0.0     0.00000190       -76.4961277950 -7.65E+01
     2 GXTB-Simple 0.20E+00    0.0     0.00000038       -76.4961277950 -4.83E-13
     3 GXTB-Simple 0.20E+00    0.0     0.00000032       -76.4961277950 -3.27E-13
     4 GXTB-FDIIS  0.10E+01    0.0     0.00000150       -76.4961277950 -6.96E-13
     5 GXTB-FDIIS  0.10E+01    0.0     0.00000006       -76.4961277950  0.00E+00
     6 GXTB-FDIIS  0.10E+01    0.0     0.00000004       -76.4961277950  0.00E+00
     7 GXTB-FDIIS  0.10E+01    0.0     1.3439E-09       -76.4961277950  0.00E+00
     8 GXTB-FDIIS  0.10E+01    0.0     1.4115E-10       -76.4961277950  0.00E+00
     9 GXTB-FDIIS  0.10E+01    0.0     4.5074E-13       -76.4961277950  0.00E+00

  *** SCF run converged in     9 steps ***


  Core Hamiltonian energy:                                     -6.24168643504952
  Repulsive potential energy:                                   0.31811530232865
  Electrostatic energy:                                         0.15352177377295
  Self-consistent dispersion energy:                           -0.00004617705897
  Non-self consistent dispersion energy:                        0.00000029772266
  Correction for halogen bonding:                               0.00000000000000

  Total energy:                                               -76.49612779497731


 MULLIKEN POPULATION ANALYSIS

  # Atom   Element   Kind        Atomic population                    Net charge
       1     H          1                 0.669457                      0.330543
       2     H          1                 0.669467                      0.330533
       3     O          2                 6.661076                     -0.661076
 # Total charge                           8.000000                      0.000000


 tblite reference CLI check
 Executable: tblite
 Method:     gxtb
 Guess:      auto
 Solver:     gvd
 Spin-pol.:  F
 Grad file:  H2O_stress_L10_cli.grad
 JSON file:  H2O_stress_L10_cli.json
 Log file:   H2O_stress_L10_cli.log
 Energy CP2K/CLI/absdiff:   -7.649612779498E+01   -7.649612779558E+01    6.056239953978E-10
 Gradient diff sum/max:    9.102030742539E-08    2.470082146808E-08
 Virial diff sum/max:    1.862318867855E-01    6.759884107687E-02
 tblite reference CLI deviation exceeded ERROR_LIMIT =   1.0000E-05

 ENERGY| Total FORCE_EVAL ( QS ) energy [hartree]            -76.496127794977312

 -------------------------------------------------------------------------------
 ----                             MULTIGRID INFO                            ----
 -------------------------------------------------------------------------------
 total grid count     :           420              cutoff [a.u.]            1.00

 PW_GRID| Information for grid number                                          5
 PW_GRID| Cutoff [a.u.]                                                      1.0
 PW_GRID| spherical cutoff:                                                   NO
 PW_GRID|   Bounds   1             -4       4                Points:           9
 PW_GRID|   Bounds   2             -4       4                Points:           9
 PW_GRID|   Bounds   3             -4       4                Points:           9
 PW_GRID| Volume element (a.u.^3)   9.257         Volume (a.u.^3)      6748.3346
 PW_GRID| Grid span                                                    FULLSPACE

 POISSON| Solver                                                        PERIODIC
 POISSON| Periodicity                                                        XYZ

 RS_GRID| Information for grid number                                          5
 RS_GRID|   Bounds   1             -4       4                Points:           9
 RS_GRID|   Bounds   2             -4       4                Points:           9
 RS_GRID|   Bounds   3             -4       4                Points:           9

 Parameters for the always stable predictor-corrector (ASPC) method:

  ASPC order: 2

  B(1) =   2.800000
  B(2) =  -2.800000
  B(3) =   1.200000
  B(4) =  -0.200000

 Extrapolation method: ASPC

 Number of electrons:                                                          8
 Number of occupied orbitals:                                                  4
 Number of molecular orbitals:                                                 6

 Number of orbital functions:                                                  6
 Number of independent orbital functions:                                      6


 SCF WAVEFUNCTION OPTIMIZATION

  Step     Update method      Time    Convergence         Total energy    Change
  ------------------------------------------------------------------------------
     1 GXTB-Raw    0.10E+01    0.0     1.3147E-09       -76.4961277950 -7.65E+01
     2 GXTB-Simple 0.20E+00    0.0     5.6883E-11       -76.4961277950 -1.42E-14

  *** SCF run converged in     2 steps ***


  Core Hamiltonian energy:                                     -6.24168643504953
  Repulsive potential energy:                                   0.31811530232865
  Electrostatic energy:                                         0.15352177377295
  Self-consistent dispersion energy:                           -0.00004617705897
  Non-self consistent dispersion energy:                        0.00000029772266
  Correction for halogen bonding:                               0.00000000000000

  Total energy:                                               -76.49612779497731


 MULLIKEN POPULATION ANALYSIS

  # Atom   Element   Kind        Atomic population                    Net charge
       1     H          1                 0.669457                      0.330543
       2     H          1                 0.669467                      0.330533
       3     O          2                 6.661076                     -0.661076
 # Total charge                           8.000000                     -0.000000


 tblite reference CLI check
 Executable: tblite
 Method:     gxtb
 Guess:      auto
 Solver:     gvd
 Spin-pol.:  F
 Grad file:  H2O_stress_L10_cli.grad
 JSON file:  H2O_stress_L10_cli.json
 Log file:   H2O_stress_L10_cli.log
 Energy CP2K/CLI/absdiff:   -7.649612779498E+01   -7.649612779558E+01    6.056239953978E-10
 Gradient diff sum/max:    9.102030804680E-08    2.470082146808E-08
 Virial diff sum/max:    1.862318867855E-01    6.759884107687E-02
 tblite reference CLI deviation exceeded ERROR_LIMIT =   1.0000E-05

 ENERGY| Total FORCE_EVAL ( QS ) energy [hartree]            -76.496127794977312

 -------------------------------------------------------------------------------
 ----                             MULTIGRID INFO                            ----
 -------------------------------------------------------------------------------
 total grid count     :           420              cutoff [a.u.]            1.00

 PW_GRID| Information for grid number                                          6
 PW_GRID| Cutoff [a.u.]                                                      1.0
 PW_GRID| spherical cutoff:                                                   NO
 PW_GRID|   Bounds   1             -4       4                Points:           9
 PW_GRID|   Bounds   2             -4       4                Points:           9
 PW_GRID|   Bounds   3             -4       4                Points:           9
 PW_GRID| Volume element (a.u.^3)   9.257         Volume (a.u.^3)      6748.3346
 PW_GRID| Grid span                                                    FULLSPACE

 POISSON| Solver                                                        PERIODIC
 POISSON| Periodicity                                                        XYZ

 RS_GRID| Information for grid number                                          6
 RS_GRID|   Bounds   1             -4       4                Points:           9
 RS_GRID|   Bounds   2             -4       4                Points:           9
 RS_GRID|   Bounds   3             -4       4                Points:           9

 Parameters for the always stable predictor-corrector (ASPC) method:

  ASPC order: 3

  B(1) =   3.000000
  B(2) =  -3.428571
  B(3) =   1.928571
  B(4) =  -0.571429
  B(5) =   0.071429

 Extrapolation method: ASPC

 Number of electrons:                                                          8
 Number of occupied orbitals:                                                  4
 Number of molecular orbitals:                                                 6

 Number of orbital functions:                                                  6
 Number of independent orbital functions:                                      6


 SCF WAVEFUNCTION OPTIMIZATION

  Step     Update method      Time    Convergence         Total energy    Change
  ------------------------------------------------------------------------------
     1 GXTB-Raw    0.10E+01    0.0     0.00000077       -76.4961278099 -7.65E+01
     2 GXTB-Simple 0.20E+00    0.0     0.00000030       -76.4961278099 -3.55E-13
     3 GXTB-Simple 0.20E+00    0.0     0.00000025       -76.4961278099 -2.42E-13
     4 GXTB-FDIIS  0.10E+01    0.0     0.00000124       -76.4961278099 -5.68E-13
     5 GXTB-FDIIS  0.10E+01    0.0     0.00000005       -76.4961278099  0.00E+00
     6 GXTB-FDIIS  0.10E+01    0.0     7.5817E-09       -76.4961278099  0.00E+00
     7 GXTB-FDIIS  0.10E+01    0.0     9.1333E-10       -76.4961278099 -1.42E-14
     8 GXTB-FDIIS  0.10E+01    0.0     9.4652E-11       -76.4961278099  1.42E-14

  *** SCF run converged in     8 steps ***


  Core Hamiltonian energy:                                     -6.24168590672289
  Repulsive potential energy:                                   0.31811444527959
  Electrostatic energy:                                         0.15352189165395
  Self-consistent dispersion energy:                           -0.00004617721570
  Non-self consistent dispersion energy:                        0.00000029771833
  Correction for halogen bonding:                               0.00000000000000

  Total energy:                                               -76.49612780993438


 MULLIKEN POPULATION ANALYSIS

  # Atom   Element   Kind        Atomic population                    Net charge
       1     H          1                 0.669457                      0.330543
       2     H          1                 0.669467                      0.330533
       3     O          2                 6.661076                     -0.661076
 # Total charge                           8.000000                     -0.000000


 tblite reference CLI check
 Executable: tblite
 Method:     gxtb
 Guess:      auto
 Solver:     gvd
 Spin-pol.:  F
 Grad file:  H2O_stress_L10_cli.grad
 JSON file:  H2O_stress_L10_cli.json
 Log file:   H2O_stress_L10_cli.log
 Energy CP2K/CLI/absdiff:   -7.649612780993E+01   -7.649612781054E+01    6.056524171072E-10
 Gradient diff sum/max:    3.908824815427E-06    1.124535126703E-06
 Virial diff sum/max:    1.862302859298E-01    6.760080742536E-02
 tblite reference CLI deviation exceeded ERROR_LIMIT =   1.0000E-05

 ENERGY| Total FORCE_EVAL ( QS ) energy [hartree]            -76.496127809934379

 -------------------------------------------------------------------------------
 ----                             MULTIGRID INFO                            ----
 -------------------------------------------------------------------------------
 total grid count     :           420              cutoff [a.u.]            1.00

 PW_GRID| Information for grid number                                          7
 PW_GRID| Cutoff [a.u.]                                                      1.0
 PW_GRID| spherical cutoff:                                                   NO
 PW_GRID|   Bounds   1             -4       4                Points:           9
 PW_GRID|   Bounds   2             -4       4                Points:           9
 PW_GRID|   Bounds   3             -4       4                Points:           9
 PW_GRID| Volume element (a.u.^3)   9.257         Volume (a.u.^3)      6748.3346
 PW_GRID| Grid span                                                    FULLSPACE

 POISSON| Solver                                                        PERIODIC
 POISSON| Periodicity                                                        XYZ

 RS_GRID| Information for grid number                                          7
 RS_GRID|   Bounds   1             -4       4                Points:           9
 RS_GRID|   Bounds   2             -4       4                Points:           9
 RS_GRID|   Bounds   3             -4       4                Points:           9

 Parameters for the always stable predictor-corrector (ASPC) method:

  ASPC order: 3

  B(1) =   3.000000
  B(2) =  -3.428571
  B(3) =   1.928571
  B(4) =  -0.571429
  B(5) =   0.071429

 Extrapolation method: ASPC

 Number of electrons:                                                          8
 Number of occupied orbitals:                                                  4
 Number of molecular orbitals:                                                 6

 Number of orbital functions:                                                  6
 Number of independent orbital functions:                                      6


 SCF WAVEFUNCTION OPTIMIZATION

  Step     Update method      Time    Convergence         Total energy    Change
  ------------------------------------------------------------------------------
     1 GXTB-Raw    0.10E+01    0.0     0.00000154       -76.4961277800 -7.65E+01
     2 GXTB-Simple 0.20E+00    0.0     0.00000060       -76.4961277800 -1.39E-12
     3 GXTB-Simple 0.20E+00    0.0     0.00000050       -76.4961277800 -9.81E-13
     4 GXTB-FDIIS  0.10E+01    0.0     0.00000248       -76.4961277800 -2.29E-12
     5 GXTB-FDIIS  0.10E+01    0.0     0.00000010       -76.4961277800  0.00E+00
     6 GXTB-FDIIS  0.10E+01    0.0     0.00000002       -76.4961277800 -1.42E-14
     7 GXTB-FDIIS  0.10E+01    0.0     1.8267E-09       -76.4961277800  2.84E-14
     8 GXTB-FDIIS  0.10E+01    0.0     1.8931E-10       -76.4961277800 -1.42E-14
     9 GXTB-FDIIS  0.10E+01    0.0     7.2595E-13       -76.4961277800  0.00E+00

  *** SCF run converged in     9 steps ***


  Core Hamiltonian energy:                                     -6.24168696335916
  Repulsive potential energy:                                   0.31811615936565
  Electrostatic energy:                                         0.15352165589505
  Self-consistent dispersion energy:                           -0.00004617690224
  Non-self consistent dispersion energy:                        0.00000029772698
  Correction for halogen bonding:                               0.00000000000000

  Total energy:                                               -76.49612778001240


 MULLIKEN POPULATION ANALYSIS

  # Atom   Element   Kind        Atomic population                    Net charge
       1     H          1                 0.669457                      0.330543
       2     H          1                 0.669467                      0.330533
       3     O          2                 6.661075                     -0.661075
 # Total charge                           8.000000                     -0.000000


 tblite reference CLI check
 Executable: tblite
 Method:     gxtb
 Guess:      auto
 Solver:     gvd
 Spin-pol.:  F
 Grad file:  H2O_stress_L10_cli.grad
 JSON file:  H2O_stress_L10_cli.json
 Log file:   H2O_stress_L10_cli.log
 Energy CP2K/CLI/absdiff:   -7.649612778001E+01   -7.649612778062E+01    6.056239953978E-10
 Gradient diff sum/max:    3.920435861310E-06    1.165149386882E-06
 Virial diff sum/max:    1.862324822908E-01    6.759687472741E-02
 tblite reference CLI deviation exceeded ERROR_LIMIT =   1.0000E-05

 ENERGY| Total FORCE_EVAL ( QS ) energy [hartree]            -76.496127780012401

 -------------------------------------------------------------------------------
 ----                             MULTIGRID INFO                            ----
 -------------------------------------------------------------------------------
 total grid count     :           420              cutoff [a.u.]            1.00

 PW_GRID| Information for grid number                                          8
 PW_GRID| Cutoff [a.u.]                                                      1.0
 PW_GRID| spherical cutoff:                                                   NO
 PW_GRID|   Bounds   1             -4       4                Points:           9
 PW_GRID|   Bounds   2             -4       4                Points:           9
 PW_GRID|   Bounds   3             -4       4                Points:           9
 PW_GRID| Volume element (a.u.^3)   9.257         Volume (a.u.^3)      6748.3346
 PW_GRID| Grid span                                                    FULLSPACE

 POISSON| Solver                                                        PERIODIC
 POISSON| Periodicity                                                        XYZ

 RS_GRID| Information for grid number                                          8
 RS_GRID|   Bounds   1             -4       4                Points:           9
 RS_GRID|   Bounds   2             -4       4                Points:           9
 RS_GRID|   Bounds   3             -4       4                Points:           9

 Parameters for the always stable predictor-corrector (ASPC) method:

  ASPC order: 3

  B(1) =   3.000000
  B(2) =  -3.428571
  B(3) =   1.928571
  B(4) =  -0.571429
  B(5) =   0.071429

 Extrapolation method: ASPC

 Number of electrons:                                                          8
 Number of occupied orbitals:                                                  4
 Number of molecular orbitals:                                                 6

 Number of orbital functions:                                                  6
 Number of independent orbital functions:                                      6


 SCF WAVEFUNCTION OPTIMIZATION

  Step     Update method      Time    Convergence         Total energy    Change
  ------------------------------------------------------------------------------
     1 GXTB-Raw    0.10E+01    0.0     0.00000093       -76.4961277950 -7.65E+01
     2 GXTB-Simple 0.20E+00    0.0     0.00000048       -76.4961277950 -8.38E-13
     3 GXTB-Simple 0.20E+00    0.0     0.00000040       -76.4961277950 -6.11E-13
     4 GXTB-FDIIS  0.10E+01    0.0     0.00000210       -76.4961277950 -1.46E-12
     5 GXTB-FDIIS  0.10E+01    0.0     0.00000011       -76.4961277950 -1.42E-14
     6 GXTB-FDIIS  0.10E+01    0.0     8.3607E-09       -76.4961277950  0.00E+00
     7 GXTB-FDIIS  0.10E+01    0.0     8.9001E-10       -76.4961277950  0.00E+00
     8 GXTB-FDIIS  0.10E+01    0.0     3.5401E-10       -76.4961277950  1.42E-14
     9 GXTB-FDIIS  0.10E+01    0.0     3.2883E-11       -76.4961277950 -1.42E-14

  *** SCF run converged in     9 steps ***


  Core Hamiltonian energy:                                     -6.24168643504079
  Repulsive potential energy:                                   0.31811530232023
  Electrostatic energy:                                         0.15352177377312
  Self-consistent dispersion energy:                           -0.00004617705897
  Non-self consistent dispersion energy:                        0.00000029772266
  Correction for halogen bonding:                               0.00000000000000

  Total energy:                                               -76.49612779497704


 MULLIKEN POPULATION ANALYSIS

  # Atom   Element   Kind        Atomic population                    Net charge
       1     H          1                 0.669457                      0.330543
       2     H          1                 0.669467                      0.330533
       3     O          2                 6.661076                     -0.661076
 # Total charge                           8.000000                     -0.000000


 tblite reference CLI check
 Executable: tblite
 Method:     gxtb
 Guess:      auto
 Solver:     gvd
 Spin-pol.:  F
 Grad file:  H2O_stress_L10_cli.grad
 JSON file:  H2O_stress_L10_cli.json
 Log file:   H2O_stress_L10_cli.log
 Energy CP2K/CLI/absdiff:   -7.649612779498E+01   -7.649612779558E+01    6.056239953978E-10
 Gradient diff sum/max:    2.505280340617E-07    8.057024663434E-08
 Virial diff sum/max:    1.862321250775E-01    6.759884109076E-02
 tblite reference CLI deviation exceeded ERROR_LIMIT =   1.0000E-05

 ENERGY| Total FORCE_EVAL ( QS ) energy [hartree]            -76.496127794977042

 -------------------------------------------------------------------------------
 ----                             MULTIGRID INFO                            ----
 -------------------------------------------------------------------------------
 total grid count     :           420              cutoff [a.u.]            1.00

 PW_GRID| Information for grid number                                          9
 PW_GRID| Cutoff [a.u.]                                                      1.0
 PW_GRID| spherical cutoff:                                                   NO
 PW_GRID|   Bounds   1             -4       4                Points:           9
 PW_GRID|   Bounds   2             -4       4                Points:           9
 PW_GRID|   Bounds   3             -4       4                Points:           9
 PW_GRID| Volume element (a.u.^3)   9.257         Volume (a.u.^3)      6748.3346
 PW_GRID| Grid span                                                    FULLSPACE

 POISSON| Solver                                                        PERIODIC
 POISSON| Periodicity                                                        XYZ

 RS_GRID| Information for grid number                                          9
 RS_GRID|   Bounds   1             -4       4                Points:           9
 RS_GRID|   Bounds   2             -4       4                Points:           9
 RS_GRID|   Bounds   3             -4       4                Points:           9

 Parameters for the always stable predictor-corrector (ASPC) method:

  ASPC order: 3

  B(1) =   3.000000
  B(2) =  -3.428571
  B(3) =   1.928571
  B(4) =  -0.571429
  B(5) =   0.071429

 Extrapolation method: ASPC

 Number of electrons:                                                          8
 Number of occupied orbitals:                                                  4
 Number of molecular orbitals:                                                 6

 Number of orbital functions:                                                  6
 Number of independent orbital functions:                                      6


 SCF WAVEFUNCTION OPTIMIZATION

  Step     Update method      Time    Convergence         Total energy    Change
  ------------------------------------------------------------------------------
     1 GXTB-Raw    0.10E+01    0.0     0.00000186       -76.4961277950 -7.65E+01
     2 GXTB-Simple 0.20E+00    0.0     0.00000096       -76.4961277950 -2.00E-12
     3 GXTB-Simple 0.20E+00    0.0     0.00000081       -76.4961277950 -1.42E-12
     4 GXTB-FDIIS  0.10E+01    0.0     0.00000425       -76.4961277950 -3.60E-12
     5 GXTB-FDIIS  0.10E+01    0.0     0.00000020       -76.4961277950 -2.84E-14
     6 GXTB-FDIIS  0.10E+01    0.0     4.8352E-09       -76.4961277950  1.42E-14
     7 GXTB-FDIIS  0.10E+01    0.0     1.1640E-12       -76.4961277950  0.00E+00

  *** SCF run converged in     7 steps ***


  Core Hamiltonian energy:                                     -6.24168643504079
  Repulsive potential energy:                                   0.31811530232023
  Electrostatic energy:                                         0.15352177377310
  Self-consistent dispersion energy:                           -0.00004617705897
  Non-self consistent dispersion energy:                        0.00000029772266
  Correction for halogen bonding:                               0.00000000000000

  Total energy:                                               -76.49612779497703


 MULLIKEN POPULATION ANALYSIS

  # Atom   Element   Kind        Atomic population                    Net charge
       1     H          1                 0.669457                      0.330543
       2     H          1                 0.669467                      0.330533
       3     O          2                 6.661076                     -0.661076
 # Total charge                           8.000000                     -0.000000


 tblite reference CLI check
 Executable: tblite
 Method:     gxtb
 Guess:      auto
 Solver:     gvd
 Spin-pol.:  F
 Grad file:  H2O_stress_L10_cli.grad
 JSON file:  H2O_stress_L10_cli.json
 Log file:   H2O_stress_L10_cli.log
 Energy CP2K/CLI/absdiff:   -7.649612779498E+01   -7.649612779558E+01    6.056382062525E-10
 Gradient diff sum/max:    2.505280334286E-07    8.057024631778E-08
 Virial diff sum/max:    1.862321250775E-01    6.759884109076E-02
 tblite reference CLI deviation exceeded ERROR_LIMIT =   1.0000E-05

 ENERGY| Total FORCE_EVAL ( QS ) energy [hartree]            -76.496127794977028

 -------------------------------------------------------------------------------
 ----                             MULTIGRID INFO                            ----
 -------------------------------------------------------------------------------
 total grid count     :           420              cutoff [a.u.]            1.00

 PW_GRID| Information for grid number                                         10
 PW_GRID| Cutoff [a.u.]                                                      1.0
 PW_GRID| spherical cutoff:                                                   NO
 PW_GRID|   Bounds   1             -4       4                Points:           9
 PW_GRID|   Bounds   2             -4       4                Points:           9
 PW_GRID|   Bounds   3             -4       4                Points:           9
 PW_GRID| Volume element (a.u.^3)   9.257         Volume (a.u.^3)      6748.3703
 PW_GRID| Grid span                                                    FULLSPACE

 POISSON| Solver                                                        PERIODIC
 POISSON| Periodicity                                                        XYZ

 RS_GRID| Information for grid number                                         10
 RS_GRID|   Bounds   1             -4       4                Points:           9
 RS_GRID|   Bounds   2             -4       4                Points:           9
 RS_GRID|   Bounds   3             -4       4                Points:           9

 Parameters for the always stable predictor-corrector (ASPC) method:

  ASPC order: 3

  B(1) =   3.000000
  B(2) =  -3.428571
  B(3) =   1.928571
  B(4) =  -0.571429
  B(5) =   0.071429

 Extrapolation method: ASPC

 Number of electrons:                                                          8
 Number of occupied orbitals:                                                  4
 Number of molecular orbitals:                                                 6

 Number of orbital functions:                                                  6
 Number of independent orbital functions:                                      6


 SCF WAVEFUNCTION OPTIMIZATION

  Step     Update method      Time    Convergence         Total energy    Change
  ------------------------------------------------------------------------------
     1 GXTB-Raw    0.10E+01    0.0     0.00000093       -76.4961275419 -7.65E+01
     2 GXTB-Simple 0.20E+00    0.0     0.00000048       -76.4961275419 -5.12E-13
     3 GXTB-Simple 0.20E+00    0.0     0.00000040       -76.4961275419 -3.69E-13
     4 GXTB-FDIIS  0.10E+01    0.0     0.00000211       -76.4961275419 -8.81E-13
     5 GXTB-FDIIS  0.10E+01    0.0     0.00000010       -76.4961275419  0.00E+00
     6 GXTB-FDIIS  0.10E+01    0.0     8.4258E-09       -76.4961275419 -1.42E-14
     7 GXTB-FDIIS  0.10E+01    0.0     1.1596E-09       -76.4961275419  0.00E+00
     8 GXTB-FDIIS  0.10E+01    0.0     7.6961E-12       -76.4961275419  0.00E+00

  *** SCF run converged in     8 steps ***


  Core Hamiltonian energy:                                     -6.24168638059098
  Repulsive potential energy:                                   0.31811530292992
  Electrostatic energy:                                         0.15352172918075
  Self-consistent dispersion energy:                           -0.00004617702749
  Non-self consistent dispersion energy:                        0.00000029772171
  Correction for halogen bonding:                               0.00000000000000

  Total energy:                                               -76.49612754194960


 MULLIKEN POPULATION ANALYSIS

  # Atom   Element   Kind        Atomic population                    Net charge
       1     H          1                 0.669457                      0.330543
       2     H          1                 0.669467                      0.330533
       3     O          2                 6.661076                     -0.661076
 # Total charge                           8.000000                     -0.000000


 tblite reference CLI check
 Executable: tblite
 Method:     gxtb
 Guess:      auto
 Solver:     gvd
 Spin-pol.:  F
 Grad file:  H2O_stress_L10_cli.grad
 JSON file:  H2O_stress_L10_cli.json
 Log file:   H2O_stress_L10_cli.log
 Energy CP2K/CLI/absdiff:   -7.649612754195E+01   -7.649612754256E+01    6.056382062525E-10
 Gradient diff sum/max:    1.373844499318E-07    4.027603485966E-08
 Virial diff sum/max:    1.862310936377E-01    6.759882401725E-02
 tblite reference CLI deviation exceeded ERROR_LIMIT =   1.0000E-05

 ENERGY| Total FORCE_EVAL ( QS ) energy [hartree]            -76.496127541949605

 -------------------------------------------------------------------------------
 ----                             MULTIGRID INFO                            ----
 -------------------------------------------------------------------------------
 total grid count     :           420              cutoff [a.u.]            1.00

 PW_GRID| Information for grid number                                         11
 PW_GRID| Cutoff [a.u.]                                                      1.0
 PW_GRID| spherical cutoff:                                                   NO
 PW_GRID|   Bounds   1             -4       4                Points:           9
 PW_GRID|   Bounds   2             -4       4                Points:           9
 PW_GRID|   Bounds   3             -4       4                Points:           9
 PW_GRID| Volume element (a.u.^3)   9.257         Volume (a.u.^3)      6748.2989
 PW_GRID| Grid span                                                    FULLSPACE

 POISSON| Solver                                                        PERIODIC
 POISSON| Periodicity                                                        XYZ

 RS_GRID| Information for grid number                                         11
 RS_GRID|   Bounds   1             -4       4                Points:           9
 RS_GRID|   Bounds   2             -4       4                Points:           9
 RS_GRID|   Bounds   3             -4       4                Points:           9

 Parameters for the always stable predictor-corrector (ASPC) method:

  ASPC order: 3

  B(1) =   3.000000
  B(2) =  -3.428571
  B(3) =   1.928571
  B(4) =  -0.571429
  B(5) =   0.071429

 Extrapolation method: ASPC

 Number of electrons:                                                          8
 Number of occupied orbitals:                                                  4
 Number of molecular orbitals:                                                 6

 Number of orbital functions:                                                  6
 Number of independent orbital functions:                                      6


 SCF WAVEFUNCTION OPTIMIZATION

  Step     Update method      Time    Convergence         Total energy    Change
  ------------------------------------------------------------------------------
     1 GXTB-Raw    0.10E+01    0.0     5.1647E-09       -76.4961280480 -7.65E+01
     2 GXTB-Simple 0.20E+00    0.0     0.00000005       -76.4961280480 -1.42E-14
     3 GXTB-Simple 0.20E+00    0.0     0.00000004       -76.4961280480 -1.42E-14
     4 GXTB-FDIIS  0.10E+01    0.0     0.00000010       -76.4961280480  0.00E+00
     5 GXTB-FDIIS  0.10E+01    0.0     0.00000001       -76.4961280480  0.00E+00
     6 GXTB-FDIIS  0.10E+01    0.0     1.4877E-09       -76.4961280480 -1.42E-14
     7 GXTB-FDIIS  0.10E+01    0.0     4.5974E-11       -76.4961280480  0.00E+00

  *** SCF run converged in     7 steps ***


  Core Hamiltonian energy:                                     -6.24168648950869
  Repulsive potential energy:                                   0.31811530172737
  Electrostatic energy:                                         0.15352181836566
  Self-consistent dispersion energy:                           -0.00004617709045
  Non-self consistent dispersion energy:                        0.00000029772361
  Correction for halogen bonding:                               0.00000000000000

  Total energy:                                               -76.49612804800898


 MULLIKEN POPULATION ANALYSIS

  # Atom   Element   Kind        Atomic population                    Net charge
       1     H          1                 0.669457                      0.330543
       2     H          1                 0.669467                      0.330533
       3     O          2                 6.661076                     -0.661076
 # Total charge                           8.000000                     -0.000000


 tblite reference CLI check
 Executable: tblite
 Method:     gxtb
 Guess:      auto
 Solver:     gvd
 Spin-pol.:  F
 Grad file:  H2O_stress_L10_cli.grad
 JSON file:  H2O_stress_L10_cli.json
 Log file:   H2O_stress_L10_cli.log
 Energy CP2K/CLI/absdiff:   -7.649612804801E+01   -7.649612804861E+01    6.056382062525E-10
 Gradient diff sum/max:    5.575236853726E-08    1.499285705309E-08
 Virial diff sum/max:    1.862316745437E-01    6.759885781560E-02
 tblite reference CLI deviation exceeded ERROR_LIMIT =   1.0000E-05

 ENERGY| Total FORCE_EVAL ( QS ) energy [hartree]            -76.496128048008984

 -------------------------------------------------------------------------------
 ----                             MULTIGRID INFO                            ----
 -------------------------------------------------------------------------------
 total grid count     :           420              cutoff [a.u.]            1.00

 PW_GRID| Information for grid number                                         12
 PW_GRID| Cutoff [a.u.]                                                      1.0
 PW_GRID| spherical cutoff:                                                   NO
 PW_GRID|   Bounds   1             -4       4                Points:           9
 PW_GRID|   Bounds   2             -4       4                Points:           9
 PW_GRID|   Bounds   3             -4       4                Points:           9
 PW_GRID| Volume element (a.u.^3)   9.257         Volume (a.u.^3)      6748.3346
 PW_GRID| Grid span                                                    FULLSPACE

 POISSON| Solver                                                        PERIODIC
 POISSON| Periodicity                                                        XYZ

 RS_GRID| Information for grid number                                         12
 RS_GRID|   Bounds   1             -4       4                Points:           9
 RS_GRID|   Bounds   2             -4       4                Points:           9
 RS_GRID|   Bounds   3             -4       4                Points:           9

 Parameters for the always stable predictor-corrector (ASPC) method:

  ASPC order: 3

  B(1) =   3.000000
  B(2) =  -3.428571
  B(3) =   1.928571
  B(4) =  -0.571429
  B(5) =   0.071429

 Extrapolation method: ASPC

 Number of electrons:                                                          8
 Number of occupied orbitals:                                                  4
 Number of molecular orbitals:                                                 6

 Number of orbital functions:                                                  6
 Number of independent orbital functions:                                      6


 SCF WAVEFUNCTION OPTIMIZATION

  Step     Update method      Time    Convergence         Total energy    Change
  ------------------------------------------------------------------------------
     1 GXTB-Raw    0.10E+01    0.0     0.00000096       -76.4961277950 -7.65E+01
     2 GXTB-Simple 0.20E+00    0.0     0.00000050       -76.4961277950 -6.11E-13
     3 GXTB-Simple 0.20E+00    0.0     0.00000043       -76.4961277950 -4.41E-13
     4 GXTB-FDIIS  0.10E+01    0.0     0.00000223       -76.4961277950 -1.11E-12
     5 GXTB-FDIIS  0.10E+01    0.0     0.00000012       -76.4961277950  1.42E-14
     6 GXTB-FDIIS  0.10E+01    0.0     9.3617E-09       -76.4961277950 -1.42E-14
     7 GXTB-FDIIS  0.10E+01    0.0     9.4989E-10       -76.4961277950  0.00E+00
     8 GXTB-FDIIS  0.10E+01    0.0     8.1280E-12       -76.4961277950  1.42E-14

  *** SCF run converged in     8 steps ***


  Core Hamiltonian energy:                                     -6.24168643503983
  Repulsive potential energy:                                   0.31811530231863
  Electrostatic energy:                                         0.15352177377332
  Self-consistent dispersion energy:                           -0.00004617705897
  Non-self consistent dispersion energy:                        0.00000029772266
  Correction for halogen bonding:                               0.00000000000000

  Total energy:                                               -76.49612779497706


 MULLIKEN POPULATION ANALYSIS

  # Atom   Element   Kind        Atomic population                    Net charge
       1     H          1                 0.669457                      0.330543
       2     H          1                 0.669467                      0.330533
       3     O          2                 6.661076                     -0.661076
 # Total charge                           8.000000                      0.000000


 tblite reference CLI check
 Executable: tblite
 Method:     gxtb
 Guess:      auto
 Solver:     gvd
 Spin-pol.:  F
 Grad file:  H2O_stress_L10_cli.grad
 JSON file:  H2O_stress_L10_cli.json
 Log file:   H2O_stress_L10_cli.log
 Energy CP2K/CLI/absdiff:   -7.649612779498E+01   -7.649612779558E+01    6.056382062525E-10
 Gradient diff sum/max:    2.030479096816E-07    5.683249496930E-08
 Virial diff sum/max:    1.862321012416E-01    6.759884107711E-02
 tblite reference CLI deviation exceeded ERROR_LIMIT =   1.0000E-05

 ENERGY| Total FORCE_EVAL ( QS ) energy [hartree]            -76.496127794977056

 -------------------------------------------------------------------------------
 ----                             MULTIGRID INFO                            ----
 -------------------------------------------------------------------------------
 total grid count     :           420              cutoff [a.u.]            1.00

 PW_GRID| Information for grid number                                         13
 PW_GRID| Cutoff [a.u.]                                                      1.0
 PW_GRID| spherical cutoff:                                                   NO
 PW_GRID|   Bounds   1             -4       4                Points:           9
 PW_GRID|   Bounds   2             -4       4                Points:           9
 PW_GRID|   Bounds   3             -4       4                Points:           9
 PW_GRID| Volume element (a.u.^3)   9.257         Volume (a.u.^3)      6748.3346
 PW_GRID| Grid span                                                    FULLSPACE

 POISSON| Solver                                                        PERIODIC
 POISSON| Periodicity                                                        XYZ

 RS_GRID| Information for grid number                                         13
 RS_GRID|   Bounds   1             -4       4                Points:           9
 RS_GRID|   Bounds   2             -4       4                Points:           9
 RS_GRID|   Bounds   3             -4       4                Points:           9

 Parameters for the always stable predictor-corrector (ASPC) method:

  ASPC order: 3

  B(1) =   3.000000
  B(2) =  -3.428571
  B(3) =   1.928571
  B(4) =  -0.571429
  B(5) =   0.071429

 Extrapolation method: ASPC

 Number of electrons:                                                          8
 Number of occupied orbitals:                                                  4
 Number of molecular orbitals:                                                 6

 Number of orbital functions:                                                  6
 Number of independent orbital functions:                                      6


 SCF WAVEFUNCTION OPTIMIZATION

  Step     Update method      Time    Convergence         Total energy    Change
  ------------------------------------------------------------------------------
     1 GXTB-Raw    0.10E+01    0.0     0.00000191       -76.4961277950 -7.65E+01
     2 GXTB-Simple 0.20E+00    0.0     0.00000101       -76.4961277950 -2.40E-12
     3 GXTB-Simple 0.20E+00    0.0     0.00000085       -76.4961277950 -1.73E-12
     4 GXTB-FDIIS  0.10E+01    0.0     0.00000449       -76.4961277950 -4.38E-12
     5 GXTB-FDIIS  0.10E+01    0.0     0.00000023       -76.4961277950 -2.84E-14
     6 GXTB-FDIIS  0.10E+01    0.0     3.9736E-09       -76.4961277950  1.42E-14
     7 GXTB-FDIIS  0.10E+01    0.0     1.5017E-12       -76.4961277950  0.00E+00

  *** SCF run converged in     7 steps ***


  Core Hamiltonian energy:                                     -6.24168643503980
  Repulsive potential energy:                                   0.31811530231863
  Electrostatic energy:                                         0.15352177377331
  Self-consistent dispersion energy:                           -0.00004617705897
  Non-self consistent dispersion energy:                        0.00000029772266
  Correction for halogen bonding:                               0.00000000000000

  Total energy:                                               -76.49612779497706


 MULLIKEN POPULATION ANALYSIS

  # Atom   Element   Kind        Atomic population                    Net charge
       1     H          1                 0.669457                      0.330543
       2     H          1                 0.669467                      0.330533
       3     O          2                 6.661076                     -0.661076
 # Total charge                           8.000000                      0.000000


 tblite reference CLI check
 Executable: tblite
 Method:     gxtb
 Guess:      auto
 Solver:     gvd
 Spin-pol.:  F
 Grad file:  H2O_stress_L10_cli.grad
 JSON file:  H2O_stress_L10_cli.json
 Log file:   H2O_stress_L10_cli.log
 Energy CP2K/CLI/absdiff:   -7.649612779498E+01   -7.649612779558E+01    6.056382062525E-10
 Gradient diff sum/max:    2.030479103147E-07    5.683249528586E-08
 Virial diff sum/max:    1.862321012416E-01    6.759884107711E-02
 tblite reference CLI deviation exceeded ERROR_LIMIT =   1.0000E-05

 ENERGY| Total FORCE_EVAL ( QS ) energy [hartree]            -76.496127794977056

 -------------------------------------------------------------------------------
 ----                             MULTIGRID INFO                            ----
 -------------------------------------------------------------------------------
 total grid count     :           420              cutoff [a.u.]            1.00

[...]
     4 GXTB-FDIIS  0.10E+01    0.0     0.00000285       -76.4961281398 -2.60E-12
     5 GXTB-FDIIS  0.10E+01    0.0     0.00000010       -76.4961281398 -1.42E-14
     6 GXTB-FDIIS  0.10E+01    0.0     0.00000006       -76.4961281398  0.00E+00
     7 GXTB-FDIIS  0.10E+01    0.0     2.4221E-09       -76.4961281398 -1.42E-14
     8 GXTB-FDIIS  0.10E+01    0.0     3.9665E-10       -76.4961281398  1.42E-14
     9 GXTB-FDIIS  0.10E+01    0.0     8.7289E-13       -76.4961281398 -1.42E-14

  *** SCF run converged in     9 steps ***


  Core Hamiltonian energy:                                     -6.24169015703955
  Repulsive potential energy:                                   0.31811908957191
  Electrostatic energy:                                         0.15352167545998
  Self-consistent dispersion energy:                           -0.00004617672900
  Non-self consistent dispersion energy:                        0.00000029772039
  Correction for halogen bonding:                               0.00000000000000

  Total energy:                                               -76.49612813978231


 MULLIKEN POPULATION ANALYSIS

  # Atom   Element   Kind        Atomic population                    Net charge
       1     H          1                 0.669457                      0.330543
       2     H          1                 0.669467                      0.330533
       3     O          2                 6.661076                     -0.661076
 # Total charge                           8.000000                     -0.000000


 tblite reference CLI check
 Executable: tblite
 Method:     gxtb
 Guess:      auto
 Solver:     gvd
 Spin-pol.:  F
 Grad file:  H2O_stress_L10_cli.grad
 JSON file:  H2O_stress_L10_cli.json
 Log file:   H2O_stress_L10_cli.log
 Energy CP2K/CLI/absdiff:   -7.649612813978E+01   -7.649612814039E+01    6.055671519789E-10
 Gradient diff sum/max:    9.528339014498E-06    4.410705430037E-06
 Virial diff sum/max:    1.862234613244E-01    6.759827450895E-02
 tblite reference CLI deviation exceeded ERROR_LIMIT =   1.0000E-05

 ENERGY| Total FORCE_EVAL ( QS ) energy [hartree]            -76.496128139782314

 -------------------------------------------------------------------------------
 ----                             MULTIGRID INFO                            ----
 -------------------------------------------------------------------------------
 total grid count     :           420              cutoff [a.u.]            1.00

 PW_GRID| Information for grid number                                         20
 PW_GRID| Cutoff [a.u.]                                                      1.0
 PW_GRID| spherical cutoff:                                                   NO
 PW_GRID|   Bounds   1             -4       4                Points:           9
 PW_GRID|   Bounds   2             -4       4                Points:           9
 PW_GRID|   Bounds   3             -4       4                Points:           9
 PW_GRID| Volume element (a.u.^3)   9.257         Volume (a.u.^3)      6748.3346
 PW_GRID| Grid span                                                    FULLSPACE

 POISSON| Solver                                                        PERIODIC
 POISSON| Periodicity                                                        XYZ

 RS_GRID| Information for grid number                                         20
 RS_GRID|   Bounds   1             -4       4                Points:           9
 RS_GRID|   Bounds   2             -4       4                Points:           9
 RS_GRID|   Bounds   3             -4       4                Points:           9

 Parameters for the always stable predictor-corrector (ASPC) method:

  ASPC order: 3

  B(1) =   3.000000
  B(2) =  -3.428571
  B(3) =   1.928571
  B(4) =  -0.571429
  B(5) =   0.071429

 Extrapolation method: ASPC

 Number of electrons:                                                          8
 Number of occupied orbitals:                                                  4
 Number of molecular orbitals:                                                 6

 Number of orbital functions:                                                  6
 Number of independent orbital functions:                                      6


 SCF WAVEFUNCTION OPTIMIZATION

  Step     Update method      Time    Convergence         Total energy    Change
  ------------------------------------------------------------------------------
     1 GXTB-Raw    0.10E+01    0.0     0.00000245       -76.4961277950 -7.65E+01
     2 GXTB-Simple 0.20E+00    0.0     0.00000037       -76.4961277950 -4.69E-13
     3 GXTB-Simple 0.20E+00    0.0     0.00000031       -76.4961277950 -3.13E-13
     4 GXTB-FDIIS  0.10E+01    0.0     0.00000142       -76.4961277950 -6.68E-13
     5 GXTB-FDIIS  0.10E+01    0.0     0.00000005       -76.4961277950  1.42E-14
     6 GXTB-FDIIS  0.10E+01    0.0     0.00000003       -76.4961277950 -1.42E-14
     7 GXTB-FDIIS  0.10E+01    0.0     1.2111E-09       -76.4961277950  1.42E-14
     8 GXTB-FDIIS  0.10E+01    0.0     1.9833E-10       -76.4961277950 -1.42E-14
     9 GXTB-FDIIS  0.10E+01    0.0     4.3637E-13       -76.4961277950  0.00E+00

  *** SCF run converged in     9 steps ***


  Core Hamiltonian energy:                                     -6.24168643504966
  Repulsive potential energy:                                   0.31811530232865
  Electrostatic energy:                                         0.15352177377306
  Self-consistent dispersion energy:                           -0.00004617705897
  Non-self consistent dispersion energy:                        0.00000029772266
  Correction for halogen bonding:                               0.00000000000000

  Total energy:                                               -76.49612779497798


 MULLIKEN POPULATION ANALYSIS

  # Atom   Element   Kind        Atomic population                    Net charge
       1     H          1                 0.669457                      0.330543
       2     H          1                 0.669467                      0.330533
       3     O          2                 6.661076                     -0.661076
 # Total charge                           8.000000                     -0.000000


 tblite reference CLI check
 Executable: tblite
 Method:     gxtb
 Guess:      auto
 Solver:     gvd
 Spin-pol.:  F
 Grad file:  H2O_stress_L10_cli.grad
 JSON file:  H2O_stress_L10_cli.json
 Log file:   H2O_stress_L10_cli.log
 Energy CP2K/CLI/absdiff:   -7.649612779498E+01   -7.649612779558E+01    6.056239953978E-10
 Gradient diff sum/max:    8.940703236156E-08    2.470077180468E-08
 Virial diff sum/max:    1.862313840893E-01    6.759884107561E-02
 tblite reference CLI deviation exceeded ERROR_LIMIT =   1.0000E-05

 ENERGY| Total FORCE_EVAL ( QS ) energy [hartree]            -76.496127794977980
 DEBUG| Numerical pv_virial [a.u.]
 DEBUG|                  -0.067598878614      0.000000000671      0.002827217168
 DEBUG|                   0.000000000671     -0.047815681692      0.000000000000
 DEBUG|                   0.002827217168      0.000000000000     -0.065162460669

 DEBUG| Analytical pv_virial [a.u.]
 DEBUG|                  -0.067598876769      0.000000000000      0.002827217552
 DEBUG|                   0.000000000000     -0.047815680841     -0.000000000000
 DEBUG|                   0.002827217552     -0.000000000000     -0.065162458782

 DEBUG| Difference pv_virial [a.u.]
 DEBUG|                  -0.000000001845      0.000000000671     -0.000000000383
 DEBUG|                   0.000000000671     -0.000000000851      0.000000000000
 DEBUG|                  -0.000000000383      0.000000000000     -0.000000001888
 DEBUG| Sum of differences                                        0.000000006693

 DEBUG| Relative error pv_virial
 DEBUG| Threshold value for error check [a.u.]                    1.00000000E-05
 DEBUG|                           0.00 %                 - %             -0.00 %
 DEBUG|                              - %              0.00 %                 - %
 DEBUG|                          -0.00 %                 - %              0.00 %
 DEBUG| Maximum accepted error                                            0.20 %

 -------------------------------------------------------------------------------
 -                                                                             -
 -                                DBCSR STATISTICS                             -
 -                                                                             -
 -------------------------------------------------------------------------------
 COUNTER                                    TOTAL       BLAS       SMM       ACC
 flops     1 x     6 x     1                 3168     100.0%      0.0%      0.0%     
 flops     4 x     6 x     1                 6336     100.0%      0.0%      0.0%     
 flops     1 x     6 x     4                 6336     100.0%      0.0%      0.0%     
 flops     1 x     1 x     6                 6408     100.0%      0.0%      0.0%     
 flops     4 x     1 x     6                 8544     100.0%      0.0%      0.0%     
 flops     1 x     4 x     6                 8544     100.0%      0.0%      0.0%     
 flops     4 x     6 x     4                12672     100.0%      0.0%      0.0%     
 flops     4 x     4 x     6                34176     100.0%      0.0%      0.0%     
 flops inhomo. stacks                           0       0.0%      0.0%      0.0%
 flops total                        86.184000E+03     100.0%      0.0%      0.0%
 flops max/rank                     86.184000E+03     100.0%      0.0%      0.0%
 matmuls inhomo. stacks                         0       0.0%      0.0%      0.0%
 matmuls total                               1662     100.0%      0.0%      0.0%
 number of processed stacks                   976     100.0%      0.0%      0.0%
 average stack size                                     1.7       0.0       0.0
 marketing flops                    79.776000E+03
 -------------------------------------------------------------------------------
 # multiplications                            244
 max memory usage/rank               9.875948E+09
 # max total images/rank                        1
 # max 3D layers                                1
 # MPI messages exchanged                       0
 -------------------------------------------------------------------------------
 -                                                                             -
 -                      DBCSR MESSAGE PASSING PERFORMANCE                      -
 -                                                                             -
 -------------------------------------------------------------------------------
 ROUTINE             CALLS      AVE VOLUME [Bytes]
 MP_Bcast                9                     12.
 MP_Allreduce         1123                      9.
 MP_Alltoall          6370                    294.
 MP_ISend              976                     76.
 MP_IRecv              976                     76.
 -------------------------------------------------------------------------------

 -------------------------------------------------------------------------------
 -                                                                             -
 -                          OFFLOAD MEMPOOL STATISTICS                         -
 -                                                                             -
 -------------------------------------------------------------------------------
 Memory consumption                Number of allocations  Used [MiB]  Size [MiB]
 Host                                                  1           0           0
 -------------------------------------------------------------------------------

 MEMORY| Estimated peak process memory [MiB]                                 117

 -------------------------------------------------------------------------------
 ----                             MULTIGRID INFO                            ----
 -------------------------------------------------------------------------------
 total grid count     :           420              cutoff [a.u.]            1.00

 -------------------------------------------------------------------------------
 -                                                                             -
 -                         MESSAGE PASSING PERFORMANCE                         -
 -                                                                             -
 -------------------------------------------------------------------------------

 ROUTINE             CALLS      AVE VOLUME [Bytes]
 MP_Group               20
 MP_Bcast              316                     26.
 MP_Allreduce         5107                     50.
 MP_Sync               178
 MP_comm_split         158
 -------------------------------------------------------------------------------


 -------------------------------------------------------------------------------
 -                                                                             -
 -                           R E F E R E N C E S                               -
 -                                                                             -
 -------------------------------------------------------------------------------
 
 CP2K version 2026.2 (Development Version), the CP2K developers group (2026).
 CP2K is freely available from https://www.cp2k.org/ .
 
 M. Iannuzzi, J. Wilhelm, F. Stein, A. Bussy, H. Elgabarty, D. Golze, A. Hehn, 
 M. Graml, S. Marek, B. Sertcan Gökmen, C. Schran, H. Forbert, R. Z. 
 Khaliullin, A. Kozhevnikov, M. Taillefumier, R. Meli, V. V. Rybkin, M. Brehm, 
 R. Schade, O. Schütt, J. V. Pototschnig, H. Mirhosseini, A. Knüpfer, D. Marx, 
 M. Krack, J. Hutter, T. D. Kühne.
 J. Phys. Chem. B 130, 1237-1310 (2026).
 The CP2K Program Package Made Simple.
 https://doi.org/10.1021/acs.jpcb.5c05851

 A. Katbashev, M. Stahn, T. Rose, V. Alizadeh, M. Friede, C. Plett, P. 
 Steinbach, S. Ehlert.
 J. Phys. Chem. A 129, 2667-2682 (2025).
 Overview on Building Blocks and Applications of Efficient and Robust Extended 
 Tight Binding.
 https://doi.org/10.1021/acs.jpca.4c08263

 T. D. Kühne, M. Iannuzzi, M. Del Ben, V. V. Rybkin, P. Seewald, F. Stein, T. 
 Laino, R. Z. Khaliullin, O. Schütt, F. Schiffmann, D. Golze, J. Wilhelm, S. 
 Chulkov, M. H. Bani-Hashemian, V. Weber, U. Borstnik, M. Taillefumier, A. S. 
 Jakobovits, A. Lazzaro, H. Pabst, T. Müller, R. Schade, M. Guidon, S. 
 Andermatt, N. Holmberg, G. K. Schenter, A. Hehn, A. Bussy, F. Belleflamme, G. 
 Tabacchi, A. Glöß, M. Lass, I. Bethune, C. J. Mundy, C. Plessl, M. Watkins, 
 J. VandeVondele, M. Krack, J. Hutter.
 J. Chem. Phys. 152, 194103 (2020).
 CP2K: An electronic structure and molecular dynamics software package - 
 Quickstep: Efficient and accurate electronic structure calculations.
 https://doi.org/10.1063/5.0007045

 P. Pracht, E. Caldeweyher, S. Ehlert, S. Grimme.
 ChemRxiv, (2019).
 A Robust Non-Self-Consistent Tight-Binding Quantum Chemistry Method for large 
 Molecules.
 https://doi.org/10.26434/chemrxiv.8326202.v1

 S. Grimme, C. Bannwarth, P. Shushkov.
 J. Chem. Theory Comput. 13, 1989 (2017).
 A Robust and Accurate Tight-Binding Quantum Chemical Method for Structures, 
 Vibrational Frequencies, and Noncovalent Interactions of Large Molecular 
 Systems Parametrized for All spd-Block Elements (Z = 1-86).
 https://doi.org/10.1021/acs.jctc.7b00118

 O. Schuett, P. Messmer, J. Hutter, J. VandeVondele.
 Electronic Structure Calculations on Graphics Processing Units, 173-190 (2016).
 GPU-Accelerated Sparse Matrix-Matrix Multiplication for Linear Scaling Density 
 Functional Theory.
 https://doi.org/10.1002/9781118670712.ch8

 U. Borstnik, J. VandeVondele, V. Weber, J. Hutter.
 Parallel Comput. 40, 47-58 (2014).
 Sparse matrix multiplication: The distributed block-compressed sparse row 
 library.
 https://doi.org/10.1016/j.parco.2014.03.012

 T. D. Kühne, M. Krack, F. R. Mohamed, M. Parrinello.
 Phys. Rev. Lett. 98, 066401 (2007).
 Efficient and accurate Car-Parrinello-like approach to Born-Oppenheimer 
 molecular dynamics.
 https://doi.org/10.1103/PhysRevLett.98.066401

 M. Frigo, S. G. Johnson.
 Proc. IEEE 93, 216-231 (2005).
 The design and implementation of FFTW3.
 https://doi.org/10.1109/JPROC.2004.840301

 J. Kolafa.
 J. Comput. Chem. 25, 335-342 (2004).
 Time-reversible always stable predictor-corrector method for molecular dynamics 
 of polarizable molecules.
 https://doi.org/10.1002/jcc.10385


 -------------------------------------------------------------------------------
 -                                                                             -
 -                                T I M I N G                                  -
 -                                                                             -
 -------------------------------------------------------------------------------
 SUBROUTINE                       CALLS  ASD         SELF TIME        TOTAL TIME
                                MAXIMUM       AVERAGE  MAXIMUM  AVERAGE  MAXIMUM
 CP2K                                 1  1.0    0.007    0.007    1.008    1.008
 qs_energies                         20  2.0    0.001    0.001    0.948    0.948
 tb_reference_cli_compare            20  3.0    0.556    0.556    0.556    0.556
 scf_env_do_scf                      20  3.0    0.000    0.000    0.230    0.230
 scf_env_do_scf_inner_loop          158  4.1    0.027    0.027    0.230    0.230
 qs_scf_new_mos                     158  5.1    0.003    0.003    0.159    0.159
 calculate_dm_sparse                177  6.1    0.001    0.001    0.110    0.110
 cp_dbcsr_plus_fm_fm_t              178  7.1    0.002    0.002    0.110    0.110
 build_tblite_matrices               21  4.0    0.096    0.096    0.109    0.109
 qs_energies_init_hamiltonians       20  3.0    0.000    0.000    0.105    0.105
 dbcsr_multiply_generic             244  8.0    0.006    0.006    0.100    0.100
 qs_forces                            1  2.0    0.000    0.000    0.068    0.068
 init_scf_run                        20  3.0    0.000    0.000    0.062    0.062
 scf_env_initial_rho_setup           20  4.0    0.000    0.000    0.057    0.057
 wfi_extrapolate                     20  5.0    0.001    0.001    0.057    0.057
 make_m2s                           488  9.0    0.003    0.003    0.053    0.053
 rebuild_ks_matrix                  178  5.8    0.000    0.000    0.044    0.044
 build_tblite_ks_matrix             178  6.8    0.036    0.036    0.044    0.044
 dbcsr_complete_redistribute        666  8.3    0.017    0.017    0.042    0.042
 copy_dbcsr_to_fm                   244  6.2    0.002    0.002    0.040    0.040
 qs_ks_update_qs_env                177  4.8    0.001    0.001    0.036    0.036
 cp_dbcsr_sm_fm_multiply             66  6.0    0.001    0.001    0.036    0.036
 eigensolver                        158  6.1    0.008    0.008    0.031    0.031
 copy_fm_to_dbcsr                   422  7.9    0.001    0.001    0.029    0.029
 multiply_cannon                    244  9.0    0.015    0.015    0.025    0.025
 make_images                        488 10.0    0.006    0.006    0.024    0.024
 cp_fm_syevd                        158  7.1    0.000    0.000    0.020    0.020
 -------------------------------------------------------------------------------

 The number of warnings for this run is : 1
 
 -------------------------------------------------------------------------------
  **** **** ******  **  PROGRAM ENDED AT                 2026-07-21 17:57:37.636
 ***** ** ***  *** **   PROGRAM RAN ON                                     terok
 **    ****   ******    PROGRAM RAN BY                                  kuehne88
 ***** **    ** ** **   PROGRAM PROCESS ID                               1512105
  **** **  *******  **  PROGRAM STOPPED IN /home/kuehne88/work/h2o-molecular-lim
                                           it-fix-20260721/stress/raw/H2O_stress
                                           _L10
