 DBCSR| CPU Multiplication driver                                           XSMM (U)
 DBCSR| Multrec recursion limit                                              512 (U)
 DBCSR| Multiplication stack size                                           1000 (D)
 DBCSR| Maximum elements for images                                    UNLIMITED (U)
 DBCSR| Multiplicative factor virtual images                                   1 (U)
 DBCSR| Use multiplication densification                                       T (D)
 DBCSR| Multiplication size stacks                                             3 (U)
 DBCSR| Use memory pool for CPU allocation                                     F (U)
 DBCSR| Number of 3D layers                                               SINGLE (U)
 DBCSR| Use MPI memory allocation                                              F (U)
 DBCSR| Use RMA algorithm                                                      F (U)
 DBCSR| Use Communication thread                                               T (U)
 DBCSR| Communication thread load                                             87 (D)
 DBCSR| MPI: My process id                                                     0
 DBCSR| MPI: Number of processes                                               1
 DBCSR| OMP: Current number of threads                                         1
 DBCSR| OMP: Max number of threads                                             1
 DBCSR| Split modifier for TAS multiplication algorithm                  1.0E+00 (U)


  **** **** ******  **  PROGRAM STARTED AT               2026-05-23 22:47:17.277
 ***** ** ***  *** **   PROGRAM STARTED ON                            spark-c86c
 **    ****   ******    PROGRAM STARTED BY                              kuehne88
 ***** **    ** ** **   PROGRAM PROCESS ID                               2268464
  **** **  *******  **  PROGRAM STARTED IN /home/kuehne88/periodic-gfn2-benchmar
                                           ks/X23b/runs/cellopt_gamma/GFN2/benze
                                           ne_GFN2_gamma_cellopt

 CP2K| version string:                 CP2K version 2026.1 (Development Version)
 CP2K| source code revision number:                                   0622d442e4
 CP2K| cp2kflags: omp fftw3 libxc parallel scalapack mpi_f08 xsmm spglib libdftd
 CP2K|            4 dftd4_v3 mctc-lib tblite
 CP2K| is freely available from                            https://www.cp2k.org/
 CP2K| Program compiled at                                   2026-05-23 22:05:08
 CP2K| Program compiled on                                            spark-c86c
 CP2K| Program compiled for                                              aarch64
 CP2K| Data directory path    /home/kuehne88/cp2k-master-tblite-20260523/install
 CP2K| Input file name                            benzene_GFN2_gamma_cellopt.inp

 GLOBAL| Force Environment number                                              1
 GLOBAL| Basis set file name                                           BASIS_SET
 GLOBAL| Potential file name                                           POTENTIAL
 GLOBAL| MM Potential file name                                     MM_POTENTIAL
 GLOBAL| Coordinate file name                                      __STD_INPUT__
 GLOBAL| Method name                                                        CP2K
 GLOBAL| Project name                                benzene_GFN2_gamma_cell_opt
 GLOBAL| Run type                                                       CELL_OPT
 GLOBAL| FFT library                                                       FFTW3
 GLOBAL| Diagonalization library                                       ScaLAPACK
 GLOBAL| Cholesky decomposition library                                ScaLAPACK
 GLOBAL| DGEMM library                                                      BLAS
 GLOBAL| Direct generalized diagonalization requested                          F
 GLOBAL| Orthonormality check for eigenvectors                          DISABLED
 GLOBAL| Matrix multiplication library                                 ScaLAPACK
 GLOBAL| All-to-all communication in single precision                          F
 GLOBAL| FFTs using library dependent lengths                                  F
 GLOBAL| Grid backend                                                       AUTO
 GLOBAL| Global print level                                                  LOW
 GLOBAL| MPI I/O enabled                                                       T
 GLOBAL| Total number of message passing processes                             1
 GLOBAL| Number of distributed systems (nodes)                                 1
 GLOBAL| Number of threads for this process                                    1
 GLOBAL| This output is from process                                           0
 GLOBAL| OpenMP stack size per thread (OMP_STACKSIZE)                    default
 GLOBAL| CPU model name                                                  UNKNOWN
 GLOBAL| CPUID                                                              2200
 GLOBAL| Compiled for CPUID                                                 2000

 *** HINT in environment.F:970 :: The compiler target flags (arm_arch64)   ***
 *** used to build this binary cannot exploit all extensions of this CPU   ***
 *** model (arm_sve256). Consider compiler target flags as part of FCFLAGS ***
 *** and CFLAGS (ARCH file).                                               ***


 MEMORY| system memory details [Kb]
 MEMORY|                        rank 0           min           max       average
 MEMORY| MemTotal            125508532     125508532     125508532     125508532
 MEMORY| MemFree             104332316     104332316     104332316     104332316
 MEMORY| Buffers                867900        867900        867900        867900
 MEMORY| Cached               14071984      14071984      14071984      14071984
 MEMORY| Slab                  1595728       1595728       1595728       1595728
 MEMORY| SReclaimable           917488        917488        917488        917488
 MEMORY| MemLikelyFree       120189688     120189688     120189688     120189688


 GENERATE|  Preliminary Number of Bonds generated:                             0
 GENERATE|  Achieved consistency in connectivity generation.


                  #####   #####        #     #   #     #       #          
                 #     # #     #      #    ##### #     #   # #####  ####  
                 #     # #           #       #   ###   #       #   #    # 
                 #     #  #####     #        #   #  #  #   #   #   ###### 
                 #   # #       #   #         #   #   # #   #   #   #      
                 #    #  #     #  #          #   #  #  # # #   #    #   # 
                  #### #  #####  #           #   ###   ##  #   #     ###  

                                   GFN2-xTB  
                                 Version 0.0                       
                            Johann V. Pototschnig                  



 TOTAL NUMBERS AND MAXIMUM NUMBERS

  Total number of            - Atomic kinds:                                   2
                             - Atoms:                                         48
                             - Shell sets:                                    72
                             - Shells:                                        72
                             - Primitive Cartesian functions:                264
                             - Cartesian basis functions:                    120
                             - Spherical basis functions:                    120

  Maximum angular momentum of the orbital basis functions:                     1


 SCF PARAMETERS         Density guess:                                     MOPAC
                        --------------------------------------------------------
                        max_scf:                                             300
                        max_scf_history:                                       0
                        max_diis:                                              4
                        --------------------------------------------------------
                        eps_scf:                                        1.00E-09
                        eps_scf_history:                                0.00E+00
                        eps_diis:                                       1.00E-01
                        eps_eigval:                                     1.00E-05
                        --------------------------------------------------------
                        level_shift [a.u.]:                             0.000000
                        added MOs                                        60    0
                        --------------------------------------------------------
                        Mixing method:                           DIRECT_P_MIXING
                        --------------------------------------------------------
                        Smear method:                                FERMI_DIRAC
                        Electronic temperature [K]:                        300.0
                        Electronic temperature [a.u.]:                  9.50E-04
                        Accuracy threshold:                             1.00E-06
                        --------------------------------------------------------
                        No outer SCF

 CELL_OPT| Pressure tolerance [bar]:                                       100.0
 CELL_OPT| Keep volume of cell:                                               NO
 CELL_OPT| Keep angles between the cell vectors:                              NO
 CELL_OPT| Keep cell symmetry:                                                NO
 CELL_OPT| Constraint:                                                      NONE

 BFGS| Use rational function optimization for step estimation:                NO
 BFGS| Use model Hessian for initial guess:                                   NO
 BFGS| Restart Hessian:                                                       NO
 BFGS| Trust radius:                                                       0.472

 *******************************************************************************
 ***                     STARTING   CELL   OPTIMIZATION                      ***
 ***                                   BFGS                                  ***
 *******************************************************************************

 CELL| Volume [angstrom^3]:                                           474.069978
 CELL| Vector a [angstrom]:       7.390     0.000     0.000   |a| =     7.390000
 CELL| Vector b [angstrom]:       0.000     9.420     0.000   |b| =     9.420000
 CELL| Vector c [angstrom]:       0.000     0.000     6.810   |c| =     6.810000
 CELL| Angle (b,c), alpha [degree]:                                    90.000000
 CELL| Angle (a,c), beta  [degree]:                                    90.000000
 CELL| Angle (a,b), gamma [degree]:                                    90.000000
 CELL| Numerically orthorhombic:                                             YES
 CELL| Periodicity                                                           XYZ

 Extrapolation method: initial_guess

 Number of electrons:                                                        120
 Number of occupied orbitals:                                                 60
 Number of molecular orbitals:                                               120

 Number of orbital functions:                                                120
 Number of independent orbital functions:                                    120


 SCF WAVEFUNCTION OPTIMIZATION

  Step     Update method      Time    Convergence         Total energy    Change
  ------------------------------------------------------------------------------
     1 TBLite/Diag 0.40E+00    0.0     0.53158751       -63.5641942259 -6.36E+01
     2 TBLite/Diag 0.40E+00    0.0     0.02389777       -63.5744263512 -1.02E-02
     3 TBLite/Diag 0.40E+00    0.0     0.01651300       -63.5752687554 -8.42E-04
     4 TBLite/Diag 0.40E+00    0.0     0.00804562       -63.5756500495 -3.81E-04
     5 TBLite/Diag 0.40E+00    0.0     0.00203184       -63.5757200921 -7.00E-05
     6 TBLite/Diag 0.40E+00    0.0     0.00031595       -63.5757212112 -1.12E-06
     7 TBLite/Diag 0.40E+00    0.0     0.00008405       -63.5757212825 -7.13E-08
     8 TBLite/Diag 0.40E+00    0.0     0.00001421       -63.5757212845 -1.99E-09
     9 TBLite/Diag 0.40E+00    0.0     0.00000353       -63.5757212847 -2.10E-10
    10 TBLite/Diag 0.40E+00    0.0     0.00000020       -63.5757212847 -1.49E-13
    11 TBLite/Diag 0.40E+00    0.0     0.00000013       -63.5757212847 -7.11E-14
    12 TBLite/Diag 0.40E+00    0.0     0.00000008       -63.5757212847 -7.82E-14
    13 TBLite/Diag 0.40E+00    0.0     0.00000001       -63.5757212847 -1.92E-13
    14 TBLite/Diag 0.40E+00    0.0     3.4751E-09       -63.5757212847 -2.84E-14
    15 TBLite/Diag 0.40E+00    0.0     5.7563E-10       -63.5757212847 -4.26E-14

  *** SCF run converged in    15 steps ***


  Core Hamiltonian energy:                                    -64.73748504165933
  Repulsive potential energy:                                   1.20265576133776
  Electrostatic energy:                                         0.05811743666762
  Self-consistent dispersion energy:                           -0.12187203710836
  Non-self consistent dispersion energy:                        0.02286259609426
  Correction for halogen bonding:                               0.00000000000000
  Electronic entropic energy:                                  -0.00000000000000
  Fermi energy:                                                -0.28248144293688

  Total energy:                                               -63.57572128466804
  Total energy (extrapolated to T->0):                        -63.57572128466804

 ENERGY| Total FORCE_EVAL ( QS ) energy [hartree]            -63.575721284668042

 OPT| **************************************************************************
 OPT| Step number                                                              0
 OPT| Optimization method                                                   BFGS
 OPT| Total energy [hartree]                                      -63.5757212847
 OPT| Internal pressure [bar]                                  -23963.0742049056
 OPT| Used time [s]                                                        2.545
 OPT| **************************************************************************
 OPT| Estimated peak process memory [MiB]                                    168

 --------------------------
 OPTIMIZATION STEP:      1
 --------------------------

 CELL| Volume [angstrom^3]:                                           472.460674
 CELL| Vector a [angstrom]:       7.383     0.000     0.000   |a| =     7.382541
 CELL| Vector b [angstrom]:       0.000     9.408     0.000   |b| =     9.408218
 CELL| Vector c [angstrom]:       0.000     0.000     6.802   |c| =     6.802247
 CELL| Angle (b,c), alpha [degree]:                                    90.000000
 CELL| Angle (a,c), beta  [degree]:                                    90.000000
 CELL| Angle (a,b), gamma [degree]:                                    90.000000
 CELL| Numerically orthorhombic:                                             YES
 CELL| Periodicity                                                           XYZ

 Extrapolation method: ASPC

 Number of electrons:                                                        120
 Number of occupied orbitals:                                                 60
 Number of molecular orbitals:                                               120

 Number of orbital functions:                                                120
 Number of independent orbital functions:                                    120


 SCF WAVEFUNCTION OPTIMIZATION

  Step     Update method      Time    Convergence         Total energy    Change
  ------------------------------------------------------------------------------
     1 TBLite/Diag 0.40E+00    0.0     0.00994765       -63.5783004858 -6.36E+01
     2 TBLite/Diag 0.40E+00    0.0     0.00110594       -63.5783095172 -9.03E-06
     3 TBLite/Diag 0.40E+00    0.0     0.00097753       -63.5783063689  3.15E-06
     4 TBLite/Diag 0.40E+00    0.0     0.00057947       -63.5783122186 -5.85E-06
     5 TBLite/Diag 0.40E+00    0.0     0.00004359       -63.5783122336 -1.51E-08
     6 TBLite/Diag 0.40E+00    0.0     0.00001456       -63.5783122350 -1.43E-09
     7 TBLite/Diag 0.40E+00    0.0     0.00000537       -63.5783122359 -8.08E-10
     8 TBLite/Diag 0.40E+00    0.0     0.00000017       -63.5783122359 -1.56E-13
     9 TBLite/Diag 0.40E+00    0.0     0.00000011       -63.5783122359 -9.24E-14
    10 TBLite/Diag 0.40E+00    0.0     0.00000004       -63.5783122359 -6.39E-14
    11 TBLite/Diag 0.40E+00    0.0     0.00000002       -63.5783122359 -3.55E-14
    12 TBLite/Diag 0.40E+00    0.0     7.3084E-10       -63.5783122359 -1.35E-13

  *** SCF run converged in    12 steps ***


  Core Hamiltonian energy:                                    -64.76259215188300
  Repulsive potential energy:                                   1.22619591372938
  Electrostatic energy:                                         0.05736890459186
  Self-consistent dispersion energy:                           -0.12230662287459
  Non-self consistent dispersion energy:                        0.02302172058296
  Correction for halogen bonding:                               0.00000000000000
  Electronic entropic energy:                                  -0.00000000000000
  Fermi energy:                                                -0.28107270875949

  Total energy:                                               -63.57831223585340
  Total energy (extrapolated to T->0):                        -63.57831223585340

 ENERGY| Total FORCE_EVAL ( QS ) energy [hartree]            -63.578312235853396

 OPT| **************************************************************************
 OPT| Step number                                                              1
 OPT| Optimization method                                                   BFGS
 OPT| Total energy [hartree]                                      -63.5783122359
 OPT| Internal pressure [bar]                                  -14615.7115426615
 OPT| Effective energy change [hartree]                            -0.0025909512
 OPT| Predicted energy change [hartree]                            -0.0020093548
 OPT| Scaling factor                                                0.0000000000
 OPT| Step size                                                     0.0222638104
 OPT| Trust radius                                                  0.4724315332
 OPT| Decrease in energy                                                     YES
 OPT| Used time [s]                                                        2.522
 OPT|
 OPT| Maximum step size                                             0.0222638104
 OPT| Convergence limit for maximum step size                       0.0030000000
 OPT| Maximum step size is converged                                          NO
 OPT|
 OPT| RMS step size                                                 0.0051760406
 OPT| Convergence limit for RMS step size                           0.0015000000
 OPT| RMS step size is converged                                              NO
 OPT|
 OPT| Maximum gradient                                              0.0125074203
 OPT| Convergence limit for maximum gradient                        0.0004500000
 OPT| Maximum gradient is converged                                           NO
 OPT|
 OPT| RMS gradient                                                  0.0024175996
 OPT| Convergence limit for RMS gradient                            0.0003000000
 OPT| RMS gradient is converged                                               NO
 OPT|
 OPT| Pressure deviation [bar]                                 -14615.7115426615
 OPT| Pressure tolerance [bar]                                    100.0000000000
 OPT| Pressure is converged                                                   NO
 OPT| **************************************************************************
 OPT| Estimated peak process memory after this step [MiB]                    169

 --------------------------
 OPTIMIZATION STEP:      2
 --------------------------

 CELL| Volume [angstrom^3]:                                           470.552221
 CELL| Vector a [angstrom]:       7.373     0.000     0.000   |a| =     7.373259
 CELL| Vector b [angstrom]:       0.000     9.398     0.000   |b| =     9.397682
 CELL| Vector c [angstrom]:       0.000     0.000     6.791   |c| =     6.790905
 CELL| Angle (b,c), alpha [degree]:                                    90.000000
 CELL| Angle (a,c), beta  [degree]:                                    90.000000
 CELL| Angle (a,b), gamma [degree]:                                    90.000000
 CELL| Numerically orthorhombic:                                             YES
 CELL| Periodicity                                                           XYZ

 Extrapolation method: ASPC

 Number of electrons:                                                        120
 Number of occupied orbitals:                                                 60
 Number of molecular orbitals:                                               120

 Number of orbital functions:                                                120
 Number of independent orbital functions:                                    120


 SCF WAVEFUNCTION OPTIMIZATION

  Step     Update method      Time    Convergence         Total energy    Change
  ------------------------------------------------------------------------------
     1 TBLite/Diag 0.40E+00    0.0     0.00423490       -63.5792817934 -6.36E+01
     2 TBLite/Diag 0.40E+00    0.0     0.00010526       -63.5792821517 -3.58E-07
     3 TBLite/Diag 0.40E+00    0.0     0.00017592       -63.5792821691 -1.74E-08
     4 TBLite/Diag 0.40E+00    0.0     0.00009386       -63.5792822790 -1.10E-07
     5 TBLite/Diag 0.40E+00    0.0     0.00001699       -63.5792822846 -5.57E-09
     6 TBLite/Diag 0.40E+00    0.0     0.00000443       -63.5792822848 -1.43E-10
     7 TBLite/Diag 0.40E+00    0.0     0.00000102       -63.5792822848 -1.16E-11
     8 TBLite/Diag 0.40E+00    0.0     0.00000036       -63.5792822848 -1.51E-12
     9 TBLite/Diag 0.40E+00    0.0     0.00000010       -63.5792822848 -5.19E-13
    10 TBLite/Diag 0.40E+00    0.0     0.00000003       -63.5792822848  5.68E-14
    11 TBLite/Diag 0.40E+00    0.0     0.00000002       -63.5792822848  2.49E-13
    12 TBLite/Diag 0.40E+00    0.0     8.0438E-10       -63.5792822848 -9.24E-14

  *** SCF run converged in    12 steps ***


  Core Hamiltonian energy:                                    -64.78941076869054
  Repulsive potential energy:                                   1.25322174928136
  Electrostatic energy:                                         0.05649673617313
  Self-consistent dispersion energy:                           -0.12280336976454
  Non-self consistent dispersion energy:                        0.02321336822522
  Correction for halogen bonding:                               0.00000000000000
  Electronic entropic energy:                                  -0.00000000000000
  Fermi energy:                                                -0.27997190708972

  Total energy:                                               -63.57928228477537
  Total energy (extrapolated to T->0):                        -63.57928228477537

 ENERGY| Total FORCE_EVAL ( QS ) energy [hartree]            -63.579282284775374

 OPT| **************************************************************************
 OPT| Step number                                                              2
 OPT| Optimization method                                                   BFGS
 OPT| Total energy [hartree]                                      -63.5792822848
 OPT| Internal pressure [bar]                                   -4519.0791651781
 OPT| Effective energy change [hartree]                            -0.0009700489
 OPT| Predicted energy change [hartree]                            -0.0007674806
 OPT| Scaling factor                                                0.0000000000
 OPT| Step size                                                     0.0214334535
 OPT| Trust radius                                                  0.4724315332
 OPT| Decrease in energy                                                     YES
 OPT| Used time [s]                                                        2.532
 OPT|
 OPT| Maximum step size                                             0.0214334535
 OPT| Convergence limit for maximum step size                       0.0030000000
 OPT| Maximum step size is converged                                          NO
 OPT|
 OPT| RMS step size                                                 0.0043721374
 OPT| Convergence limit for RMS step size                           0.0015000000
 OPT| RMS step size is converged                                              NO
 OPT|
 OPT| Maximum gradient                                              0.0054161770
 OPT| Convergence limit for maximum gradient                        0.0004500000
 OPT| Maximum gradient is converged                                           NO
 OPT|
 OPT| RMS gradient                                                  0.0011746249
 OPT| Convergence limit for RMS gradient                            0.0003000000
 OPT| RMS gradient is converged                                               NO
 OPT|
 OPT| Pressure deviation [bar]                                  -4519.0791651781
 OPT| Pressure tolerance [bar]                                    100.0000000000
 OPT| Pressure is converged                                                   NO
 OPT| **************************************************************************
 OPT| Estimated peak process memory after this step [MiB]                    171

 --------------------------
 OPTIMIZATION STEP:      3
 --------------------------

 CELL| Volume [angstrom^3]:                                           469.640367
 CELL| Vector a [angstrom]:       7.369     0.000     0.000   |a| =     7.368813
 CELL| Vector b [angstrom]:       0.000     9.394     0.000   |b| =     9.393681
 CELL| Vector c [angstrom]:       0.000     0.000     6.785   |c| =     6.784722
 CELL| Angle (b,c), alpha [degree]:                                    90.000000
 CELL| Angle (a,c), beta  [degree]:                                    90.000000
 CELL| Angle (a,b), gamma [degree]:                                    90.000000
 CELL| Numerically orthorhombic:                                             YES
 CELL| Periodicity                                                           XYZ

 Extrapolation method: ASPC

 Number of electrons:                                                        120
 Number of occupied orbitals:                                                 60
 Number of molecular orbitals:                                               120

 Number of orbital functions:                                                120
 Number of independent orbital functions:                                    120


 SCF WAVEFUNCTION OPTIMIZATION

  Step     Update method      Time    Convergence         Total energy    Change
  ------------------------------------------------------------------------------
     1 TBLite/Diag 0.40E+00    0.0     0.00179525       -63.5794737113 -6.36E+01
     2 TBLite/Diag 0.40E+00    0.0     0.00019703       -63.5794740216 -3.10E-07
     3 TBLite/Diag 0.40E+00    0.0     0.00020802       -63.5794737533  2.68E-07
     4 TBLite/Diag 0.40E+00    0.0     0.00014390       -63.5794741149 -3.62E-07
     5 TBLite/Diag 0.40E+00    0.0     0.00000864       -63.5794741153 -4.61E-10
     6 TBLite/Diag 0.40E+00    0.0     0.00000342       -63.5794741153  1.07E-11
     7 TBLite/Diag 0.40E+00    0.0     0.00000169       -63.5794741154 -7.65E-11
     8 TBLite/Diag 0.40E+00    0.0     0.00000004       -63.5794741154  7.11E-15
     9 TBLite/Diag 0.40E+00    0.0     0.00000005       -63.5794741154 -7.11E-14
    10 TBLite/Diag 0.40E+00    0.0     0.00000001       -63.5794741154 -1.71E-13
    11 TBLite/Diag 0.40E+00    0.0     7.1327E-09       -63.5794741154  9.24E-14
    12 TBLite/Diag 0.40E+00    0.0     4.8631E-10       -63.5794741154 -3.55E-14

  *** SCF run converged in    12 steps ***


  Core Hamiltonian energy:                                    -64.80126038708453
  Repulsive potential energy:                                   1.26542088916015
  Electrostatic energy:                                         0.05609310961794
  Self-consistent dispersion energy:                           -0.12303470434854
  Non-self consistent dispersion energy:                        0.02330697726949
  Correction for halogen bonding:                               0.00000000000000
  Electronic entropic energy:                                  -0.00000000000000
  Fermi energy:                                                -0.27950785038058

  Total energy:                                               -63.57947411538549
  Total energy (extrapolated to T->0):                        -63.57947411538549

 ENERGY| Total FORCE_EVAL ( QS ) energy [hartree]            -63.579474115385494

 OPT| **************************************************************************
 OPT| Step number                                                              3
 OPT| Optimization method                                                   BFGS
 OPT| Total energy [hartree]                                      -63.5794741154
 OPT| Internal pressure [bar]                                    -161.9535762032
 OPT| Effective energy change [hartree]                            -0.0001918306
 OPT| Predicted energy change [hartree]                            -0.0001596291
 OPT| Scaling factor                                                0.0000000000
 OPT| Step size                                                     0.0116836819
 OPT| Trust radius                                                  0.4724315332
 OPT| Decrease in energy                                                     YES
 OPT| Used time [s]                                                        2.565
 OPT|
 OPT| Maximum step size                                             0.0116836819
 OPT| Convergence limit for maximum step size                       0.0030000000
 OPT| Maximum step size is converged                                          NO
 OPT|
 OPT| RMS step size                                                 0.0021277373
 OPT| Convergence limit for RMS step size                           0.0015000000
 OPT| RMS step size is converged                                              NO
 OPT|
 OPT| Maximum gradient                                              0.0014598363
 OPT| Convergence limit for maximum gradient                        0.0004500000
 OPT| Maximum gradient is converged                                           NO
 OPT|
 OPT| RMS gradient                                                  0.0005608313
 OPT| Convergence limit for RMS gradient                            0.0003000000
 OPT| RMS gradient is converged                                               NO
 OPT|
 OPT| Pressure deviation [bar]                                   -161.9535762032
 OPT| Pressure tolerance [bar]                                    100.0000000000
 OPT| Pressure is converged                                                   NO
 OPT| **************************************************************************
 OPT| Estimated peak process memory after this step [MiB]                    171

 --------------------------
 OPTIMIZATION STEP:      4
 --------------------------

 CELL| Volume [angstrom^3]:                                           469.383693
 CELL| Vector a [angstrom]:       7.368     0.000     0.000   |a| =     7.367648
 CELL| Vector b [angstrom]:       0.000     9.393     0.000   |b| =     9.393227
 CELL| Vector c [angstrom]:       0.000     0.000     6.782   |c| =     6.782414
 CELL| Angle (b,c), alpha [degree]:                                    90.000000
 CELL| Angle (a,c), beta  [degree]:                                    90.000000
 CELL| Angle (a,b), gamma [degree]:                                    90.000000
 CELL| Numerically orthorhombic:                                             YES
 CELL| Periodicity                                                           XYZ

 Extrapolation method: ASPC

 Number of electrons:                                                        120
 Number of occupied orbitals:                                                 60
 Number of molecular orbitals:                                               120

 Number of orbital functions:                                                120
 Number of independent orbital functions:                                    120


 SCF WAVEFUNCTION OPTIMIZATION

  Step     Update method      Time    Convergence         Total energy    Change
  ------------------------------------------------------------------------------
     1 TBLite/Diag 0.40E+00    0.0     0.00095131       -63.5795250371 -6.36E+01
     2 TBLite/Diag 0.40E+00    0.0     0.00006167       -63.5795250794 -4.22E-08
     3 TBLite/Diag 0.40E+00    0.0     0.00007564       -63.5795250512  2.82E-08
     4 TBLite/Diag 0.40E+00    0.0     0.00004882       -63.5795250920 -4.09E-08
     5 TBLite/Diag 0.40E+00    0.0     0.00000430       -63.5795250922 -1.29E-10
     6 TBLite/Diag 0.40E+00    0.0     0.00000145       -63.5795250922 -2.07E-12
     7 TBLite/Diag 0.40E+00    0.0     0.00000079       -63.5795250922 -1.34E-11
     8 TBLite/Diag 0.40E+00    0.0     0.00000004       -63.5795250922 -1.85E-13
     9 TBLite/Diag 0.40E+00    0.0     0.00000001       -63.5795250922  0.00E+00
    10 TBLite/Diag 0.40E+00    0.0     7.7907E-09       -63.5795250922  1.28E-13
    11 TBLite/Diag 0.40E+00    0.0     3.5917E-09       -63.5795250922 -2.77E-13
    12 TBLite/Diag 0.40E+00    0.0     3.5209E-10       -63.5795250922  2.84E-13

  *** SCF run converged in    12 steps ***


  Core Hamiltonian energy:                                    -64.80392409286506
  Repulsive potential energy:                                   1.26816895041949
  Electrostatic energy:                                         0.05600168864343
  Self-consistent dispersion energy:                           -0.12310130889567
  Non-self consistent dispersion energy:                        0.02332967051353
  Correction for halogen bonding:                               0.00000000000000
  Electronic entropic energy:                                  -0.00000000000000
  Fermi energy:                                                -0.27943191283292

  Total energy:                                               -63.57952509218427
  Total energy (extrapolated to T->0):                        -63.57952509218427

 ENERGY| Total FORCE_EVAL ( QS ) energy [hartree]            -63.579525092184269

 OPT| **************************************************************************
 OPT| Step number                                                              4
 OPT| Optimization method                                                   BFGS
 OPT| Total energy [hartree]                                      -63.5795250922
 OPT| Internal pressure [bar]                                     782.9824457422
 OPT| Effective energy change [hartree]                            -0.0000509768
 OPT| Predicted energy change [hartree]                            -0.0000337156
 OPT| Scaling factor                                                0.0000000000
 OPT| Step size                                                     0.0043609910
 OPT| Trust radius                                                  0.4724315332
 OPT| Decrease in energy                                                     YES
 OPT| Used time [s]                                                        2.542
 OPT|
 OPT| Maximum step size                                             0.0043609910
 OPT| Convergence limit for maximum step size                       0.0030000000
 OPT| Maximum step size is converged                                          NO
 OPT|
 OPT| RMS step size                                                 0.0009277342
 OPT| Convergence limit for RMS step size                           0.0015000000
 OPT| RMS step size is converged                                             YES
 OPT|
 OPT| Maximum gradient                                              0.0012044238
 OPT| Convergence limit for maximum gradient                        0.0004500000
 OPT| Maximum gradient is converged                                           NO
 OPT|
 OPT| RMS gradient                                                  0.0003884253
 OPT| Convergence limit for RMS gradient                            0.0003000000
 OPT| RMS gradient is converged                                               NO
 OPT|
 OPT| Pressure deviation [bar]                                    782.9824457422
 OPT| Pressure tolerance [bar]                                    100.0000000000
 OPT| Pressure is converged                                                   NO
 OPT| **************************************************************************
 OPT| Estimated peak process memory after this step [MiB]                    171

 --------------------------
 OPTIMIZATION STEP:      5
 --------------------------

 CELL| Volume [angstrom^3]:                                           469.248844
 CELL| Vector a [angstrom]:       7.367     0.000     0.000   |a| =     7.367209
 CELL| Vector b [angstrom]:       0.000     9.394     0.000   |b| =     9.393796
 CELL| Vector c [angstrom]:       0.000     0.000     6.780   |c| =     6.780459
 CELL| Angle (b,c), alpha [degree]:                                    90.000000
 CELL| Angle (a,c), beta  [degree]:                                    90.000000
 CELL| Angle (a,b), gamma [degree]:                                    90.000000
 CELL| Numerically orthorhombic:                                             YES
 CELL| Periodicity                                                           XYZ

 Extrapolation method: ASPC

 Number of electrons:                                                        120
 Number of occupied orbitals:                                                 60
 Number of molecular orbitals:                                               120

 Number of orbital functions:                                                120
 Number of independent orbital functions:                                    120


 SCF WAVEFUNCTION OPTIMIZATION

  Step     Update method      Time    Convergence         Total energy    Change
  ------------------------------------------------------------------------------
     1 TBLite/Diag 0.40E+00    0.0     0.00119314       -63.5795605414 -6.36E+01
     2 TBLite/Diag 0.40E+00    0.0     0.00002756       -63.5795605597 -1.83E-08
     3 TBLite/Diag 0.40E+00    0.0     0.00003830       -63.5795605568  2.93E-09
     4 TBLite/Diag 0.40E+00    0.0     0.00002215       -63.5795605677 -1.10E-08
     5 TBLite/Diag 0.40E+00    0.0     0.00000266       -63.5795605678 -3.91E-11
     6 TBLite/Diag 0.40E+00    0.0     0.00000085       -63.5795605678 -8.28E-12
     7 TBLite/Diag 0.40E+00    0.0     0.00000024       -63.5795605678 -2.98E-13
     8 TBLite/Diag 0.40E+00    0.0     0.00000011       -63.5795605678  0.00E+00
     9 TBLite/Diag 0.40E+00    0.0     0.00000003       -63.5795605678 -1.71E-13
    10 TBLite/Diag 0.40E+00    0.0     7.7944E-09       -63.5795605678  5.68E-14
    11 TBLite/Diag 0.40E+00    0.0     4.7753E-09       -63.5795605678 -7.11E-14
    12 TBLite/Diag 0.40E+00    0.0     4.0661E-10       -63.5795605678 -5.68E-14

  *** SCF run converged in    12 steps ***


  Core Hamiltonian energy:                                    -64.80436305623991
  Repulsive potential energy:                                   1.26860634785383
  Electrostatic energy:                                         0.05599212578678
  Self-consistent dispersion energy:                           -0.12314029798147
  Non-self consistent dispersion energy:                        0.02334431279331
  Correction for halogen bonding:                               0.00000000000000
  Electronic entropic energy:                                  -0.00000000000000
  Fermi energy:                                                -0.27943186488508

  Total energy:                                               -63.57956056778745
  Total energy (extrapolated to T->0):                        -63.57956056778745

 ENERGY| Total FORCE_EVAL ( QS ) energy [hartree]            -63.579560567787453

 OPT| **************************************************************************
 OPT| Step number                                                              5
 OPT| Optimization method                                                   BFGS
 OPT| Total energy [hartree]                                      -63.5795605678
 OPT| Internal pressure [bar]                                     920.3245302154
 OPT| Effective energy change [hartree]                            -0.0000354756
 OPT| Predicted energy change [hartree]                            -0.0000267865
 OPT| Scaling factor                                                0.0000000000
 OPT| Step size                                                     0.0036954950
 OPT| Trust radius                                                  0.4724315332
 OPT| Decrease in energy                                                     YES
 OPT| Used time [s]                                                        1.982
 OPT|
 OPT| Maximum step size                                             0.0036954950
 OPT| Convergence limit for maximum step size                       0.0030000000
 OPT| Maximum step size is converged                                          NO
 OPT|
 OPT| RMS step size                                                 0.0010791473
 OPT| Convergence limit for RMS step size                           0.0015000000
 OPT| RMS step size is converged                                             YES
 OPT|
 OPT| Maximum gradient                                              0.0008604776
 OPT| Convergence limit for maximum gradient                        0.0004500000
 OPT| Maximum gradient is converged                                           NO
 OPT|
 OPT| RMS gradient                                                  0.0003434533
 OPT| Convergence limit for RMS gradient                            0.0003000000
 OPT| RMS gradient is converged                                               NO
 OPT|
 OPT| Pressure deviation [bar]                                    920.3245302154
 OPT| Pressure tolerance [bar]                                    100.0000000000
 OPT| Pressure is converged                                                   NO
 OPT| **************************************************************************
 OPT| Estimated peak process memory after this step [MiB]                    172

 --------------------------
 OPTIMIZATION STEP:      6
 --------------------------

 CELL| Volume [angstrom^3]:                                           469.217563
 CELL| Vector a [angstrom]:       7.367     0.000     0.000   |a| =     7.367396
 CELL| Vector b [angstrom]:       0.000     9.395     0.000   |b| =     9.394832
 CELL| Vector c [angstrom]:       0.000     0.000     6.779   |c| =     6.779087
 CELL| Angle (b,c), alpha [degree]:                                    90.000000
 CELL| Angle (a,c), beta  [degree]:                                    90.000000
 CELL| Angle (a,b), gamma [degree]:                                    90.000000
 CELL| Numerically orthorhombic:                                             YES
 CELL| Periodicity                                                           XYZ

 Extrapolation method: ASPC

 Number of electrons:                                                        120
 Number of occupied orbitals:                                                 60
 Number of molecular orbitals:                                               120

 Number of orbital functions:                                                120
 Number of independent orbital functions:                                    120


 SCF WAVEFUNCTION OPTIMIZATION

  Step     Update method      Time    Convergence         Total energy    Change
  ------------------------------------------------------------------------------
     1 TBLite/Diag 0.40E+00    0.0     0.00108199       -63.5795866946 -6.36E+01
     2 TBLite/Diag 0.40E+00    0.0     0.00001821       -63.5795867046 -1.01E-08
     3 TBLite/Diag 0.40E+00    0.0     0.00002095       -63.5795867079 -3.21E-09
     4 TBLite/Diag 0.40E+00    0.0     0.00001070       -63.5795867099 -2.04E-09
     5 TBLite/Diag 0.40E+00    0.0     0.00000107       -63.5795867099 -3.51E-11
     6 TBLite/Diag 0.40E+00    0.0     0.00000037       -63.5795867099 -1.14E-12
     7 TBLite/Diag 0.40E+00    0.0     0.00000018       -63.5795867099 -3.84E-13
     8 TBLite/Diag 0.40E+00    0.0     0.00000006       -63.5795867099  2.42E-13
     9 TBLite/Diag 0.40E+00    0.0     0.00000002       -63.5795867099 -2.49E-13
    10 TBLite/Diag 0.40E+00    0.0     6.4551E-09       -63.5795867099 -1.07E-13
    11 TBLite/Diag 0.40E+00    0.0     3.7658E-09       -63.5795867099  1.85E-13
    12 TBLite/Diag 0.40E+00    0.0     3.1685E-10       -63.5795867099 -1.42E-14

  *** SCF run converged in    12 steps ***


  Core Hamiltonian energy:                                    -64.80315872629259
  Repulsive potential energy:                                   1.26733507037887
  Electrostatic energy:                                         0.05604451935821
  Self-consistent dispersion energy:                           -0.12315454141384
  Non-self consistent dispersion energy:                        0.02334696803477
  Correction for halogen bonding:                               0.00000000000000
  Electronic entropic energy:                                  -0.00000000000000
  Fermi energy:                                                -0.27948154006637

  Total energy:                                               -63.57958670993459
  Total energy (extrapolated to T->0):                        -63.57958670993459

 ENERGY| Total FORCE_EVAL ( QS ) energy [hartree]            -63.579586709934588

 OPT| **************************************************************************
 OPT| Step number                                                              6
 OPT| Optimization method                                                   BFGS
 OPT| Total energy [hartree]                                      -63.5795867099
 OPT| Internal pressure [bar]                                     465.5994941577
 OPT| Effective energy change [hartree]                            -0.0000261421
 OPT| Predicted energy change [hartree]                            -0.0000181895
 OPT| Scaling factor                                                0.0000000000
 OPT| Step size                                                     0.0028101368
 OPT| Trust radius                                                  0.4724315332
 OPT| Decrease in energy                                                     YES
 OPT| Used time [s]                                                        1.306
 OPT|
 OPT| Maximum step size                                             0.0028101368
 OPT| Convergence limit for maximum step size                       0.0030000000
 OPT| Maximum step size is converged                                         YES
 OPT|
 OPT| RMS step size                                                 0.0010543091
 OPT| Convergence limit for RMS step size                           0.0015000000
 OPT| RMS step size is converged                                             YES
 OPT|
 OPT| Maximum gradient                                              0.0006335064
 OPT| Convergence limit for maximum gradient                        0.0004500000
 OPT| Maximum gradient is converged                                           NO
 OPT|
 OPT| RMS gradient                                                  0.0003108841
 OPT| Convergence limit for RMS gradient                            0.0003000000
 OPT| RMS gradient is converged                                               NO
 OPT|
 OPT| Pressure deviation [bar]                                    465.5994941577
 OPT| Pressure tolerance [bar]                                    100.0000000000
 OPT| Pressure is converged                                                   NO
 OPT| **************************************************************************
 OPT| Estimated peak process memory after this step [MiB]                    172

 --------------------------
 OPTIMIZATION STEP:      7
 --------------------------

 CELL| Volume [angstrom^3]:                                           469.226276
 CELL| Vector a [angstrom]:       7.368     0.000     0.000   |a| =     7.367922
 CELL| Vector b [angstrom]:       0.000     9.396     0.000   |b| =     9.395817
 CELL| Vector c [angstrom]:       0.000     0.000     6.778   |c| =     6.778018
 CELL| Angle (b,c), alpha [degree]:                                    90.000000
 CELL| Angle (a,c), beta  [degree]:                                    90.000000
 CELL| Angle (a,b), gamma [degree]:                                    90.000000
 CELL| Numerically orthorhombic:                                             YES
 CELL| Periodicity                                                           XYZ

 Extrapolation method: ASPC

 Number of electrons:                                                        120
 Number of occupied orbitals:                                                 60
 Number of molecular orbitals:                                               120

 Number of orbital functions:                                                120
 Number of independent orbital functions:                                    120


 SCF WAVEFUNCTION OPTIMIZATION

  Step     Update method      Time    Convergence         Total energy    Change
  ------------------------------------------------------------------------------
     1 TBLite/Diag 0.40E+00    0.0     0.00093704       -63.5796078807 -6.36E+01
     2 TBLite/Diag 0.40E+00    0.0     0.00001757       -63.5796078916 -1.09E-08
     3 TBLite/Diag 0.40E+00    0.0     0.00001793       -63.5796078954 -3.79E-09
     4 TBLite/Diag 0.40E+00    0.0     0.00001041       -63.5796078970 -1.55E-09
     5 TBLite/Diag 0.40E+00    0.0     0.00000181       -63.5796078970 -3.22E-11
     6 TBLite/Diag 0.40E+00    0.0     0.00000055       -63.5796078970 -2.74E-12
     7 TBLite/Diag 0.40E+00    0.0     0.00000020       -63.5796078970 -6.61E-13
     8 TBLite/Diag 0.40E+00    0.0     0.00000004       -63.5796078970  7.11E-14
     9 TBLite/Diag 0.40E+00    0.0     0.00000001       -63.5796078970 -1.42E-14
    10 TBLite/Diag 0.40E+00    0.0     4.9310E-09       -63.5796078970  1.56E-13
    11 TBLite/Diag 0.40E+00    0.0     3.4688E-09       -63.5796078970 -1.28E-13
    12 TBLite/Diag 0.40E+00    0.0     2.9530E-10       -63.5796078970 -6.39E-14

  *** SCF run converged in    12 steps ***


  Core Hamiltonian energy:                                    -64.80122281432403
  Repulsive potential energy:                                   1.26530363969829
  Electrostatic energy:                                         0.05612620343244
  Self-consistent dispersion energy:                           -0.12315924405254
  Non-self consistent dispersion energy:                        0.02334431825559
  Correction for halogen bonding:                               0.00000000000000
  Electronic entropic energy:                                  -0.00000000000000
  Fermi energy:                                                -0.27955274549854

  Total energy:                                               -63.57960789699026
  Total energy (extrapolated to T->0):                        -63.57960789699026

 ENERGY| Total FORCE_EVAL ( QS ) energy [hartree]            -63.579607896990261

 OPT| **************************************************************************
 OPT| Step number                                                              7
 OPT| Optimization method                                                   BFGS
 OPT| Total energy [hartree]                                      -63.5796078970
 OPT| Internal pressure [bar]                                    -252.0789102912
 OPT| Effective energy change [hartree]                            -0.0000211871
 OPT| Predicted energy change [hartree]                            -0.0000147629
 OPT| Scaling factor                                                0.0000000000
 OPT| Step size                                                     0.0028445767
 OPT| Trust radius                                                  0.4724315332
 OPT| Decrease in energy                                                     YES
 OPT| Used time [s]                                                        1.305
 OPT|
 OPT| Maximum step size                                             0.0028445767
 OPT| Convergence limit for maximum step size                       0.0030000000
 OPT| Maximum step size is converged                                         YES
 OPT|
 OPT| RMS step size                                                 0.0010784757
 OPT| Convergence limit for RMS step size                           0.0015000000
 OPT| RMS step size is converged                                             YES
 OPT|
 OPT| Maximum gradient                                              0.0006045720
 OPT| Convergence limit for maximum gradient                        0.0004500000
 OPT| Maximum gradient is converged                                           NO
 OPT|
 OPT| RMS gradient                                                  0.0002323581
 OPT| Convergence limit for RMS gradient                            0.0003000000
 OPT| RMS gradient is converged                                              YES
 OPT|
 OPT| Pressure deviation [bar]                                   -252.0789102912
 OPT| Pressure tolerance [bar]                                    100.0000000000
 OPT| Pressure is converged                                                   NO
 OPT| **************************************************************************
 OPT| Estimated peak process memory after this step [MiB]                    172

 --------------------------
 OPTIMIZATION STEP:      8
 --------------------------

 CELL| Volume [angstrom^3]:                                           469.220730
 CELL| Vector a [angstrom]:       7.368     0.000     0.000   |a| =     7.368333
 CELL| Vector b [angstrom]:       0.000     9.396     0.000   |b| =     9.395949
 CELL| Vector c [angstrom]:       0.000     0.000     6.777   |c| =     6.777465
 CELL| Angle (b,c), alpha [degree]:                                    90.000000
 CELL| Angle (a,c), beta  [degree]:                                    90.000000
 CELL| Angle (a,b), gamma [degree]:                                    90.000000
 CELL| Numerically orthorhombic:                                             YES
 CELL| Periodicity                                                           XYZ

 Extrapolation method: ASPC

 Number of electrons:                                                        120
 Number of occupied orbitals:                                                 60
 Number of molecular orbitals:                                               120

 Number of orbital functions:                                                120
 Number of independent orbital functions:                                    120


 SCF WAVEFUNCTION OPTIMIZATION

  Step     Update method      Time    Convergence         Total energy    Change
  ------------------------------------------------------------------------------
     1 TBLite/Diag 0.40E+00    0.0     0.00046144       -63.5796182911 -6.36E+01
     2 TBLite/Diag 0.40E+00    0.0     0.00001154       -63.5796182960 -4.97E-09
     3 TBLite/Diag 0.40E+00    0.0     0.00001769       -63.5796182976 -1.57E-09
     4 TBLite/Diag 0.40E+00    0.0     0.00000714       -63.5796182985 -8.54E-10
     5 TBLite/Diag 0.40E+00    0.0     0.00000126       -63.5796182985 -2.04E-11
     6 TBLite/Diag 0.40E+00    0.0     0.00000039       -63.5796182985 -1.44E-12
     7 TBLite/Diag 0.40E+00    0.0     0.00000003       -63.5796182985  7.82E-14
     8 TBLite/Diag 0.40E+00    0.0     0.00000003       -63.5796182985 -8.53E-14
     9 TBLite/Diag 0.40E+00    0.0     0.00000001       -63.5796182985  0.00E+00
    10 TBLite/Diag 0.40E+00    0.0     3.0179E-09       -63.5796182985 -2.63E-13
    11 TBLite/Diag 0.40E+00    0.0     1.5391E-09       -63.5796182985  2.20E-13
    12 TBLite/Diag 0.40E+00    0.0     1.7158E-10       -63.5796182985 -4.97E-14

  *** SCF run converged in    12 steps ***


  Core Hamiltonian energy:                                    -64.80009106804880
  Repulsive potential energy:                                   1.26411694213330
  Electrostatic energy:                                         0.05617608662381
  Self-consistent dispersion energy:                           -0.12316491166079
  Non-self consistent dispersion energy:                        0.02334465246748
  Correction for halogen bonding:                               0.00000000000000
  Electronic entropic energy:                                  -0.00000000000000
  Fermi energy:                                                -0.27959370044249

  Total energy:                                               -63.57961829848501
  Total energy (extrapolated to T->0):                        -63.57961829848501

 ENERGY| Total FORCE_EVAL ( QS ) energy [hartree]            -63.579618298485009

 OPT| **************************************************************************
 OPT| Step number                                                              8
 OPT| Optimization method                                                   BFGS
 OPT| Total energy [hartree]                                      -63.5796182985
 OPT| Internal pressure [bar]                                    -668.8724477667
 OPT| Effective energy change [hartree]                            -0.0000104015
 OPT| Predicted energy change [hartree]                            -0.0000073840
 OPT| Scaling factor                                                0.0000000000
 OPT| Step size                                                     0.0016240335
 OPT| Trust radius                                                  0.4724315332
 OPT| Decrease in energy                                                     YES
 OPT| Used time [s]                                                        1.305
 OPT|
 OPT| Maximum step size                                             0.0016240335
 OPT| Convergence limit for maximum step size                       0.0030000000
 OPT| Maximum step size is converged                                         YES
 OPT|
 OPT| RMS step size                                                 0.0006931657
 OPT| Convergence limit for RMS step size                           0.0015000000
 OPT| RMS step size is converged                                             YES
 OPT|
 OPT| Maximum gradient                                              0.0009703146
 OPT| Convergence limit for maximum gradient                        0.0004500000
 OPT| Maximum gradient is converged                                           NO
 OPT|
 OPT| RMS gradient                                                  0.0001807571
 OPT| Convergence limit for RMS gradient                            0.0003000000
 OPT| RMS gradient is converged                                              YES
 OPT|
 OPT| Pressure deviation [bar]                                   -668.8724477667
 OPT| Pressure tolerance [bar]                                    100.0000000000
 OPT| Pressure is converged                                                   NO
 OPT| **************************************************************************
 OPT| Estimated peak process memory after this step [MiB]                    172

 --------------------------
 OPTIMIZATION STEP:      9
 --------------------------

 CELL| Volume [angstrom^3]:                                           469.170418
 CELL| Vector a [angstrom]:       7.369     0.000     0.000   |a| =     7.368573
 CELL| Vector b [angstrom]:       0.000     9.395     0.000   |b| =     9.395331
 CELL| Vector c [angstrom]:       0.000     0.000     6.777   |c| =     6.776963
 CELL| Angle (b,c), alpha [degree]:                                    90.000000
 CELL| Angle (a,c), beta  [degree]:                                    90.000000
 CELL| Angle (a,b), gamma [degree]:                                    90.000000
 CELL| Numerically orthorhombic:                                             YES
 CELL| Periodicity                                                           XYZ

 Extrapolation method: ASPC

 Number of electrons:                                                        120
 Number of occupied orbitals:                                                 60
 Number of molecular orbitals:                                               120

 Number of orbital functions:                                                120
 Number of independent orbital functions:                                    120


 SCF WAVEFUNCTION OPTIMIZATION

  Step     Update method      Time    Convergence         Total energy    Change
  ------------------------------------------------------------------------------
     1 TBLite/Diag 0.40E+00    0.0     0.00039911       -63.5796263520 -6.36E+01
     2 TBLite/Diag 0.40E+00    0.0     0.00000944       -63.5796263555 -3.49E-09
     3 TBLite/Diag 0.40E+00    0.0     0.00001601       -63.5796263566 -1.13E-09
     4 TBLite/Diag 0.40E+00    0.0     0.00000663       -63.5796263573 -6.66E-10
     5 TBLite/Diag 0.40E+00    0.0     0.00000101       -63.5796263573 -1.86E-11
     6 TBLite/Diag 0.40E+00    0.0     0.00000025       -63.5796263573 -3.55E-13
     7 TBLite/Diag 0.40E+00    0.0     0.00000011       -63.5796263573 -1.85E-13
     8 TBLite/Diag 0.40E+00    0.0     0.00000002       -63.5796263573  1.42E-14
     9 TBLite/Diag 0.40E+00    0.0     8.7511E-09       -63.5796263573  5.68E-14
    10 TBLite/Diag 0.40E+00    0.0     4.5043E-09       -63.5796263573 -8.53E-14
    11 TBLite/Diag 0.40E+00    0.0     1.7910E-09       -63.5796263573  3.55E-14
    12 TBLite/Diag 0.40E+00    0.0     2.5074E-10       -63.5796263573  1.28E-13

  *** SCF run converged in    12 steps ***


  Core Hamiltonian energy:                                    -64.79971499672762
  Repulsive potential energy:                                   1.26372256375723
  Electrostatic energy:                                         0.05619763210971
  Self-consistent dispersion energy:                           -0.12318112355859
  Non-self consistent dispersion energy:                        0.02334956713534
  Correction for halogen bonding:                               0.00000000000000
  Electronic entropic energy:                                  -0.00000000000000
  Fermi energy:                                                -0.27960965959353

  Total energy:                                               -63.57962635728393
  Total energy (extrapolated to T->0):                        -63.57962635728393

 ENERGY| Total FORCE_EVAL ( QS ) energy [hartree]            -63.579626357283928

 OPT| **************************************************************************
 OPT| Step number                                                              9
 OPT| Optimization method                                                   BFGS
 OPT| Total energy [hartree]                                      -63.5796263573
 OPT| Internal pressure [bar]                                    -804.1496702845
 OPT| Effective energy change [hartree]                            -0.0000080588
 OPT| Predicted energy change [hartree]                            -0.0000055849
 OPT| Scaling factor                                                0.0000000000
 OPT| Step size                                                     0.0014803307
 OPT| Trust radius                                                  0.4724315332
 OPT| Decrease in energy                                                     YES
 OPT| Used time [s]                                                        1.305
 OPT|
 OPT| Maximum step size                                             0.0014803307
 OPT| Convergence limit for maximum step size                       0.0030000000
 OPT| Maximum step size is converged                                         YES
 OPT|
 OPT| RMS step size                                                 0.0006235963
 OPT| Convergence limit for RMS step size                           0.0015000000
 OPT| RMS step size is converged                                             YES
 OPT|
 OPT| Maximum gradient                                              0.0010175627
 OPT| Convergence limit for maximum gradient                        0.0004500000
 OPT| Maximum gradient is converged                                           NO
 OPT|
 OPT| RMS gradient                                                  0.0001698525
 OPT| Convergence limit for RMS gradient                            0.0003000000
 OPT| RMS gradient is converged                                              YES
 OPT|
 OPT| Pressure deviation [bar]                                   -804.1496702845
 OPT| Pressure tolerance [bar]                                    100.0000000000
 OPT| Pressure is converged                                                   NO
 OPT| **************************************************************************
 OPT| Estimated peak process memory after this step [MiB]                    172

 --------------------------
 OPTIMIZATION STEP:     10
 --------------------------

 CELL| Volume [angstrom^3]:                                           469.062126
 CELL| Vector a [angstrom]:       7.369     0.000     0.000   |a| =     7.368610
 CELL| Vector b [angstrom]:       0.000     9.394     0.000   |b| =     9.394006
 CELL| Vector c [angstrom]:       0.000     0.000     6.776   |c| =     6.776321
 CELL| Angle (b,c), alpha [degree]:                                    90.000000
 CELL| Angle (a,c), beta  [degree]:                                    90.000000
 CELL| Angle (a,b), gamma [degree]:                                    90.000000
 CELL| Numerically orthorhombic:                                             YES
 CELL| Periodicity                                                           XYZ

 Extrapolation method: ASPC

 Number of electrons:                                                        120
 Number of occupied orbitals:                                                 60
 Number of molecular orbitals:                                               120

 Number of orbital functions:                                                120
 Number of independent orbital functions:                                    120


 SCF WAVEFUNCTION OPTIMIZATION

  Step     Update method      Time    Convergence         Total energy    Change
  ------------------------------------------------------------------------------
     1 TBLite/Diag 0.40E+00    0.0     0.00051678       -63.5796334516 -6.36E+01
     2 TBLite/Diag 0.40E+00    0.0     0.00000591       -63.5796334546 -3.02E-09
     3 TBLite/Diag 0.40E+00    0.0     0.00000797       -63.5796334560 -1.41E-09
     4 TBLite/Diag 0.40E+00    0.0     0.00000439       -63.5796334562 -2.24E-10
     5 TBLite/Diag 0.40E+00    0.0     0.00000081       -63.5796334562 -1.85E-11
     6 TBLite/Diag 0.40E+00    0.0     0.00000018       -63.5796334562 -1.78E-13
     7 TBLite/Diag 0.40E+00    0.0     0.00000008       -63.5796334562 -9.95E-14
     8 TBLite/Diag 0.40E+00    0.0     0.00000004       -63.5796334562  6.39E-14
     9 TBLite/Diag 0.40E+00    0.0     0.00000001       -63.5796334562  3.55E-14
    10 TBLite/Diag 0.40E+00    0.0     4.0680E-09       -63.5796334562 -2.84E-14
    11 TBLite/Diag 0.40E+00    0.0     1.3376E-09       -63.5796334562  0.00E+00
    12 TBLite/Diag 0.40E+00    0.0     2.2762E-10       -63.5796334562 -1.63E-13

  *** SCF run converged in    12 steps ***


  Core Hamiltonian energy:                                    -64.80002719747849
  Repulsive potential energy:                                   1.26405211886196
  Electrostatic energy:                                         0.05619352885052
  Self-consistent dispersion energy:                           -0.12321223404516
  Non-self consistent dispersion energy:                        0.02336032757911
  Correction for halogen bonding:                               0.00000000000000
  Electronic entropic energy:                                  -0.00000000000000
  Fermi energy:                                                -0.27960428421662

  Total energy:                                               -63.57963345623205
  Total energy (extrapolated to T->0):                        -63.57963345623205

 ENERGY| Total FORCE_EVAL ( QS ) energy [hartree]            -63.579633456232052

 OPT| **************************************************************************
 OPT| Step number                                                             10
 OPT| Optimization method                                                   BFGS
 OPT| Total energy [hartree]                                      -63.5796334562
 OPT| Internal pressure [bar]                                    -681.2069527991
 OPT| Effective energy change [hartree]                            -0.0000070989
 OPT| Predicted energy change [hartree]                            -0.0000050332
 OPT| Scaling factor                                                0.0000000000
 OPT| Step size                                                     0.0025053579
 OPT| Trust radius                                                  0.4724315332
 OPT| Decrease in energy                                                     YES
 OPT| Used time [s]                                                        1.314
 OPT|
 OPT| Maximum step size                                             0.0025053579
 OPT| Convergence limit for maximum step size                       0.0030000000
 OPT| Maximum step size is converged                                         YES
 OPT|
 OPT| RMS step size                                                 0.0006787599
 OPT| Convergence limit for RMS step size                           0.0015000000
 OPT| RMS step size is converged                                             YES
 OPT|
 OPT| Maximum gradient                                              0.0007975625
 OPT| Convergence limit for maximum gradient                        0.0004500000
 OPT| Maximum gradient is converged                                           NO
 OPT|
 OPT| RMS gradient                                                  0.0001552417
 OPT| Convergence limit for RMS gradient                            0.0003000000
 OPT| RMS gradient is converged                                              YES
 OPT|
 OPT| Pressure deviation [bar]                                   -681.2069527991
 OPT| Pressure tolerance [bar]                                    100.0000000000
 OPT| Pressure is converged                                                   NO
 OPT| **************************************************************************
 OPT| Estimated peak process memory after this step [MiB]                    172

 --------------------------
 OPTIMIZATION STEP:     11
 --------------------------

 CELL| Volume [angstrom^3]:                                           468.930804
 CELL| Vector a [angstrom]:       7.368     0.000     0.000   |a| =     7.368427
 CELL| Vector b [angstrom]:       0.000     9.392     0.000   |b| =     9.392484
 CELL| Vector c [angstrom]:       0.000     0.000     6.776   |c| =     6.775689
 CELL| Angle (b,c), alpha [degree]:                                    90.000000
 CELL| Angle (a,c), beta  [degree]:                                    90.000000
 CELL| Angle (a,b), gamma [degree]:                                    90.000000
 CELL| Numerically orthorhombic:                                             YES
 CELL| Periodicity                                                           XYZ

 Extrapolation method: ASPC

 Number of electrons:                                                        120
 Number of occupied orbitals:                                                 60
 Number of molecular orbitals:                                               120

 Number of orbital functions:                                                120
 Number of independent orbital functions:                                    120


 SCF WAVEFUNCTION OPTIMIZATION

  Step     Update method      Time    Convergence         Total energy    Change
  ------------------------------------------------------------------------------
     1 TBLite/Diag 0.40E+00    0.0     0.00050194       -63.5796380521 -6.36E+01
     2 TBLite/Diag 0.40E+00    0.0     0.00000593       -63.5796380541 -1.98E-09
     3 TBLite/Diag 0.40E+00    0.0     0.00000963       -63.5796380549 -7.81E-10
     4 TBLite/Diag 0.40E+00    0.0     0.00000416       -63.5796380551 -2.50E-10
     5 TBLite/Diag 0.40E+00    0.0     0.00000087       -63.5796380551 -8.04E-12
     6 TBLite/Diag 0.40E+00    0.0     0.00000030       -63.5796380551 -9.38E-13
     7 TBLite/Diag 0.40E+00    0.0     0.00000005       -63.5796380551  1.21E-13
     8 TBLite/Diag 0.40E+00    0.0     0.00000004       -63.5796380551 -1.63E-13
     9 TBLite/Diag 0.40E+00    0.0     0.00000001       -63.5796380551  1.35E-13
    10 TBLite/Diag 0.40E+00    0.0     2.9079E-09       -63.5796380551 -8.53E-14
    11 TBLite/Diag 0.40E+00    0.0     9.2949E-10       -63.5796380551 -3.55E-14

  *** SCF run converged in    11 steps ***


  Core Hamiltonian energy:                                    -64.80074215879634
  Repulsive potential energy:                                   1.26480792366322
  Electrostatic energy:                                         0.05617169104343
  Self-consistent dispersion energy:                           -0.12324893383702
  Non-self consistent dispersion energy:                        0.02337342279075
  Correction for halogen bonding:                               0.00000000000000
  Electronic entropic energy:                                  -0.00000000000000
  Fermi energy:                                                -0.27958527243280

  Total energy:                                               -63.57963805513597
  Total energy (extrapolated to T->0):                        -63.57963805513597

 ENERGY| Total FORCE_EVAL ( QS ) energy [hartree]            -63.579638055135966

 OPT| **************************************************************************
 OPT| Step number                                                             11
 OPT| Optimization method                                                   BFGS
 OPT| Total energy [hartree]                                      -63.5796380551
 OPT| Internal pressure [bar]                                    -406.3602354639
 OPT| Effective energy change [hartree]                            -0.0000045989
 OPT| Predicted energy change [hartree]                            -0.0000034320
 OPT| Scaling factor                                                0.0000000000
 OPT| Step size                                                     0.0028749809
 OPT| Trust radius                                                  0.4724315332
 OPT| Decrease in energy                                                     YES
 OPT| Used time [s]                                                        1.305
 OPT|
 OPT| Maximum step size                                             0.0028749809
 OPT| Convergence limit for maximum step size                       0.0030000000
 OPT| Maximum step size is converged                                         YES
 OPT|
 OPT| RMS step size                                                 0.0005677839
 OPT| Convergence limit for RMS step size                           0.0015000000
 OPT| RMS step size is converged                                             YES
 OPT|
 OPT| Maximum gradient                                              0.0004542766
 OPT| Convergence limit for maximum gradient                        0.0004500000
 OPT| Maximum gradient is converged                                           NO
 OPT|
 OPT| RMS gradient                                                  0.0001081263
 OPT| Convergence limit for RMS gradient                            0.0003000000
 OPT| RMS gradient is converged                                              YES
 OPT|
 OPT| Pressure deviation [bar]                                   -406.3602354639
 OPT| Pressure tolerance [bar]                                    100.0000000000
 OPT| Pressure is converged                                                   NO
 OPT| **************************************************************************
 OPT| Estimated peak process memory after this step [MiB]                    172

 --------------------------
 OPTIMIZATION STEP:     12
 --------------------------

 CELL| Volume [angstrom^3]:                                           468.838719
 CELL| Vector a [angstrom]:       7.368     0.000     0.000   |a| =     7.368176
 CELL| Vector b [angstrom]:       0.000     9.391     0.000   |b| =     9.391484
 CELL| Vector c [angstrom]:       0.000     0.000     6.775   |c| =     6.775311
 CELL| Angle (b,c), alpha [degree]:                                    90.000000
 CELL| Angle (a,c), beta  [degree]:                                    90.000000
 CELL| Angle (a,b), gamma [degree]:                                    90.000000
 CELL| Numerically orthorhombic:                                             YES
 CELL| Periodicity                                                           XYZ

 Extrapolation method: ASPC

 Number of electrons:                                                        120
 Number of occupied orbitals:                                                 60
 Number of molecular orbitals:                                               120

 Number of orbital functions:                                                120
 Number of independent orbital functions:                                    120


 SCF WAVEFUNCTION OPTIMIZATION

  Step     Update method      Time    Convergence         Total energy    Change
  ------------------------------------------------------------------------------
     1 TBLite/Diag 0.40E+00    0.0     0.00034497       -63.5796401145 -6.36E+01
     2 TBLite/Diag 0.40E+00    0.0     0.00000649       -63.5796401155 -9.79E-10
     3 TBLite/Diag 0.40E+00    0.0     0.00001059       -63.5796401152  2.49E-10
     4 TBLite/Diag 0.40E+00    0.0     0.00000639       -63.5796401159 -6.72E-10
     5 TBLite/Diag 0.40E+00    0.0     0.00000055       -63.5796401159 -3.36E-12
     6 TBLite/Diag 0.40E+00    0.0     0.00000021       -63.5796401159 -4.83E-13
     7 TBLite/Diag 0.40E+00    0.0     0.00000006       -63.5796401159  7.11E-14
     8 TBLite/Diag 0.40E+00    0.0     7.6364E-09       -63.5796401159  4.97E-14
     9 TBLite/Diag 0.40E+00    0.0     2.2780E-09       -63.5796401159 -7.82E-14
    10 TBLite/Diag 0.40E+00    0.0     1.9268E-09       -63.5796401159  0.00E+00
    11 TBLite/Diag 0.40E+00    0.0     9.2781E-10       -63.5796401159  7.82E-14

[...]

 --------------------------
 OPTIMIZATION STEP:     14
 --------------------------

 CELL| Volume [angstrom^3]:                                           468.658969
 CELL| Vector a [angstrom]:       7.367     0.000     0.000   |a| =     7.367462
 CELL| Vector b [angstrom]:       0.000     9.390     0.000   |b| =     9.389673
 CELL| Vector c [angstrom]:       0.000     0.000     6.775   |c| =     6.774676
 CELL| Angle (b,c), alpha [degree]:                                    90.000000
 CELL| Angle (a,c), beta  [degree]:                                    90.000000
 CELL| Angle (a,b), gamma [degree]:                                    90.000000
 CELL| Numerically orthorhombic:                                             YES
 CELL| Periodicity                                                           XYZ

 Extrapolation method: ASPC

 Number of electrons:                                                        120
 Number of occupied orbitals:                                                 60
 Number of molecular orbitals:                                               120

 Number of orbital functions:                                                120
 Number of independent orbital functions:                                    120


 SCF WAVEFUNCTION OPTIMIZATION

  Step     Update method      Time    Convergence         Total energy    Change
  ------------------------------------------------------------------------------
     1 TBLite/Diag 0.40E+00    0.0     0.00039351       -63.5796433295 -6.36E+01
     2 TBLite/Diag 0.40E+00    0.0     0.00000945       -63.5796433306 -1.12E-09
     3 TBLite/Diag 0.40E+00    0.0     0.00001247       -63.5796433299  7.81E-10
     4 TBLite/Diag 0.40E+00    0.0     0.00000814       -63.5796433311 -1.22E-09
     5 TBLite/Diag 0.40E+00    0.0     0.00000045       -63.5796433311 -1.14E-12
     6 TBLite/Diag 0.40E+00    0.0     0.00000020       -63.5796433311 -7.11E-14
     7 TBLite/Diag 0.40E+00    0.0     0.00000009       -63.5796433311 -2.20E-13
     8 TBLite/Diag 0.40E+00    0.0     6.8535E-09       -63.5796433311 -9.24E-14
     9 TBLite/Diag 0.40E+00    0.0     3.9081E-09       -63.5796433311 -3.55E-14
    10 TBLite/Diag 0.40E+00    0.0     1.8825E-09       -63.5796433311 -4.26E-14
    11 TBLite/Diag 0.40E+00    0.0     6.2009E-10       -63.5796433311 -1.85E-13

  *** SCF run converged in    11 steps ***


  Core Hamiltonian energy:                                    -64.80154219952919
  Repulsive potential energy:                                   1.26568667476700
  Electrostatic energy:                                         0.05613911306460
  Self-consistent dispersion energy:                           -0.12332729750812
  Non-self consistent dispersion energy:                        0.02340037813116
  Correction for halogen bonding:                               0.00000000000000
  Electronic entropic energy:                                  -0.00000000000000
  Fermi energy:                                                -0.27956647212966

  Total energy:                                               -63.57964333107455
  Total energy (extrapolated to T->0):                        -63.57964333107455

 ENERGY| Total FORCE_EVAL ( QS ) energy [hartree]            -63.579643331074550

 OPT| **************************************************************************
 OPT| Step number                                                             14
 OPT| Optimization method                                                   BFGS
 OPT| Total energy [hartree]                                      -63.5796433311
 OPT| Internal pressure [bar]                                     -75.6808894047
 OPT| Effective energy change [hartree]                            -0.0000018262
 OPT| Predicted energy change [hartree]                            -0.0000012353
 OPT| Scaling factor                                                0.0000000000
 OPT| Step size                                                     0.0020201867
 OPT| Trust radius                                                  0.4724315332
 OPT| Decrease in energy                                                     YES
 OPT| Used time [s]                                                        1.302
 OPT|
 OPT| Maximum step size                                             0.0020201867
 OPT| Convergence limit for maximum step size                       0.0030000000
 OPT| Maximum step size is converged                                         YES
 OPT|
 OPT| RMS step size                                                 0.0003585300
 OPT| Convergence limit for RMS step size                           0.0015000000
 OPT| RMS step size is converged                                             YES
 OPT|
 OPT| Maximum gradient                                              0.0002075517
 OPT| Convergence limit for maximum gradient                        0.0004500000
 OPT| Maximum gradient is converged                                          YES
 OPT|
 OPT| RMS gradient                                                  0.0000906069
 OPT| Convergence limit for RMS gradient                            0.0003000000
 OPT| RMS gradient is converged                                              YES
 OPT|
 OPT| Pressure deviation [bar]                                    -75.6808894047
 OPT| Pressure tolerance [bar]                                    100.0000000000
 OPT| Pressure is converged                                                  YES
 OPT| **************************************************************************
 OPT| Estimated peak process memory after this step [MiB]                    172

 *******************************************************************************
 ***                    GEOMETRY OPTIMIZATION COMPLETED                      ***
 *******************************************************************************

 write_final_structure: Optimization converged, writing XYZ file gladly:
  benzene_GFN2_gamma_cell_opt-FINAL-1_14.xyz

 write_final_structure: Optimization converged, writing CIF file gladly:
  benzene_GFN2_gamma_cell_opt-FINAL-1_14.cif

 write_final_structure: Done!

                    Reevaluating energy at the minimum

 CELL| Volume [angstrom^3]:                                           468.658969
 CELL| Vector a [angstrom]:       7.367     0.000     0.000   |a| =     7.367462
 CELL| Vector b [angstrom]:       0.000     9.390     0.000   |b| =     9.389673
 CELL| Vector c [angstrom]:       0.000     0.000     6.775   |c| =     6.774676
 CELL| Angle (b,c), alpha [degree]:                                    90.000000
 CELL| Angle (a,c), beta  [degree]:                                    90.000000
 CELL| Angle (a,b), gamma [degree]:                                    90.000000
 CELL| Numerically orthorhombic:                                             YES
 CELL| Periodicity                                                           XYZ

 Extrapolation method: ASPC

 Number of electrons:                                                        120
 Number of occupied orbitals:                                                 60
 Number of molecular orbitals:                                               120

 Number of orbital functions:                                                120
 Number of independent orbital functions:                                    120


 SCF WAVEFUNCTION OPTIMIZATION

  Step     Update method      Time    Convergence         Total energy    Change
  ------------------------------------------------------------------------------
     1 TBLite/Diag 0.40E+00    0.0     6.8702E-10       -63.5796433311 -6.36E+01

  *** SCF run converged in     1 steps ***


  Core Hamiltonian energy:                                    -64.80154219952831
  Repulsive potential energy:                                   1.26568667476700
  Electrostatic energy:                                         0.05613911306397
  Self-consistent dispersion energy:                           -0.12332729750812
  Non-self consistent dispersion energy:                        0.02340037813116
  Correction for halogen bonding:                               0.00000000000000
  Electronic entropic energy:                                  -0.00000000000000
  Fermi energy:                                                -0.27956647213173

  Total energy:                                               -63.57964333107429
  Total energy (extrapolated to T->0):                        -63.57964333107429

 ENERGY| Total FORCE_EVAL ( QS ) energy [hartree]            -63.579643331074287

 -------------------------------------------------------------------------------
 -                                                                             -
 -                                DBCSR STATISTICS                             -
 -                                                                             -
 -------------------------------------------------------------------------------
 COUNTER                                    TOTAL       BLAS       SMM       ACC
 flops     1 x    24 x     1              1797120       0.0%    100.0%      0.0%     
 flops     1 x    32 x     1              7188480       0.0%    100.0%      0.0%     
 flops     4 x    24 x     1              7188480       0.0%    100.0%      0.0%     
 flops     1 x    24 x     4              7188480       0.0%    100.0%      0.0%     
 flops     1 x     1 x   120             15120000       0.0%    100.0%      0.0%     
 flops     1 x    32 x     4             28753920       0.0%    100.0%      0.0%     
 flops     4 x    32 x     1             28753920       0.0%    100.0%      0.0%     
 flops     4 x    24 x     4             28753920       0.0%    100.0%      0.0%     
 flops     4 x     1 x   120             58060800       0.0%    100.0%      0.0%     
 flops     1 x     4 x   120             58060800       0.0%    100.0%      0.0%     
 flops     4 x    32 x     4            115015680       0.0%    100.0%      0.0%     
 flops     4 x     4 x   120            241920000       0.0%    100.0%      0.0%     
 flops inhomo. stacks                           0       0.0%      0.0%      0.0%
 flops total                       597.801600E+06       0.0%    100.0%      0.0%
 flops max/rank                    597.801600E+06       0.0%    100.0%      0.0%
 matmuls inhomo. stacks                         0       0.0%      0.0%      0.0%
 matmuls total                             846000       0.0%    100.0%      0.0%
 number of processed stacks                  1620       0.0%    100.0%      0.0%
 average stack size                                     0.0     522.2       0.0
 marketing flops                   587.520000E+06
 -------------------------------------------------------------------------------
 # multiplications                            275
 max memory usage/rank              13.678797E+09
 # max total images/rank                        1
 # max 3D layers                                1
 # MPI messages exchanged                       0
 -------------------------------------------------------------------------------
 -                                                                             -
 -                      DBCSR MESSAGE PASSING PERFORMANCE                      -
 -                                                                             -
 -------------------------------------------------------------------------------
 ROUTINE             CALLS      AVE VOLUME [Bytes]
 MP_Bcast               13                     12.
 MP_Allreduce         1288                      9.
 MP_Alltoall          9045                  81827.
 MP_ISend             1100                   8832.
 MP_IRecv             1100                   8832.
 -------------------------------------------------------------------------------

 -------------------------------------------------------------------------------
 -                                                                             -
 -                          OFFLOAD MEMPOOL STATISTICS                         -
 -                                                                             -
 -------------------------------------------------------------------------------
 Memory consumption                Number of allocations  Used [MiB]  Size [MiB]
 Device                                                1           0           0
 Host                                                  1           0           0
 -------------------------------------------------------------------------------

 MEMORY| Estimated peak process memory [MiB]                                 172

 -------------------------------------------------------------------------------
 -                                                                             -
 -                         MESSAGE PASSING PERFORMANCE                         -
 -                                                                             -
 -------------------------------------------------------------------------------

 ROUTINE             CALLS      AVE VOLUME [Bytes]
 MP_Group               15
 MP_Bcast              418                    490.
 MP_Allreduce         6301                    373.
 MP_Sync               224
 MP_comm_split         209
 -------------------------------------------------------------------------------


 -------------------------------------------------------------------------------
 -                                                                             -
 -                           R E F E R E N C E S                               -
 -                                                                             -
 -------------------------------------------------------------------------------
 
 CP2K version 2026.1 (Development Version), the CP2K developers group (2026).
 CP2K is freely available from https://www.cp2k.org/ .
 
 M. Iannuzzi, J. Wilhelm, F. Stein, A. Bussy, H. Elgabarty, D. Golze, A. Hehn, 
 M. Graml, S. Marek, B. Sertcan Gökmen, C. Schran, H. Forbert, R. Z. 
 Khaliullin, A. Kozhevnikov, M. Taillefumier, R. Meli, V. V. Rybkin, M. Brehm, 
 R. Schade, O. Schütt, J. V. Pototschnig, H. Mirhosseini, A. Knüpfer, D. Marx, 
 M. Krack, J. Hutter, T. D. Kühne.
 J. Phys. Chem. B 130, 1237-1310 (2026).
 The CP2K Program Package Made Simple.
 https://doi.org/10.1021/acs.jpcb.5c05851

 A. Katbashev, M. Stahn, T. Rose, V. Alizadeh, M. Friede, C. Plett, P. 
 Steinbach, S. Ehlert.
 J. Phys. Chem. A 129, 2667-2682 (2025).
 Overview on Building Blocks and Applications of Efficient and Robust Extended 
 Tight Binding.
 https://doi.org/10.1021/acs.jpca.4c08263

 T. D. Kühne, M. Iannuzzi, M. Del Ben, V. V. Rybkin, P. Seewald, F. Stein, T. 
 Laino, R. Z. Khaliullin, O. Schütt, F. Schiffmann, D. Golze, J. Wilhelm, S. 
 Chulkov, M. H. Bani-Hashemian, V. Weber, U. Borstnik, M. Taillefumier, A. S. 
 Jakobovits, A. Lazzaro, H. Pabst, T. Müller, R. Schade, M. Guidon, S. 
 Andermatt, N. Holmberg, G. K. Schenter, A. Hehn, A. Bussy, F. Belleflamme, G. 
 Tabacchi, A. Glöß, M. Lass, I. Bethune, C. J. Mundy, C. Plessl, M. Watkins, 
 J. VandeVondele, M. Krack, J. Hutter.
 J. Chem. Phys. 152, 194103 (2020).
 CP2K: An electronic structure and molecular dynamics software package - 
 Quickstep: Efficient and accurate electronic structure calculations.
 https://doi.org/10.1063/5.0007045

 P. Pracht, E. Caldeweyher, S. Ehlert, S. Grimme.
 ChemRxiv, (2019).
 A Robust Non-Self-Consistent Tight-Binding Quantum Chemistry Method for large 
 Molecules.
 https://doi.org/10.26434/chemrxiv.8326202.v1

 S. Grimme, C. Bannwarth, P. Shushkov.
 J. Chem. Theory Comput. 13, 1989 (2017).
 A Robust and Accurate Tight-Binding Quantum Chemical Method for Structures, 
 Vibrational Frequencies, and Noncovalent Interactions of Large Molecular 
 Systems Parametrized for All spd-Block Elements (Z = 1-86).
 https://doi.org/10.1021/acs.jctc.7b00118

 O. Schuett, P. Messmer, J. Hutter, J. VandeVondele.
 Electronic Structure Calculations on Graphics Processing Units, 173-190 (2016).
 GPU-Accelerated Sparse Matrix-Matrix Multiplication for Linear Scaling Density 
 Functional Theory.
 https://doi.org/10.1002/9781118670712.ch8

 A. Heinecke, G. Henry, M. Hutchinson, H. Pabst.
 Proceedings of Intl. Supercomputing Conference, 981-991 (2016).
 LIBXSMM: Accelerating Small Matrix Multiplications by Runtime Code Generation.
 https://doi.org/10.1109/SC.2016.83

 U. Borstnik, J. VandeVondele, V. Weber, J. Hutter.
 Parallel Comput. 40, 47-58 (2014).
 Sparse matrix multiplication: The distributed block-compressed sparse row 
 library.
 https://doi.org/10.1016/j.parco.2014.03.012

 T. D. Kühne, M. Krack, F. R. Mohamed, M. Parrinello.
 Phys. Rev. Lett. 98, 066401 (2007).
 Efficient and accurate Car-Parrinello-like approach to Born-Oppenheimer 
 molecular dynamics.
 https://doi.org/10.1103/PhysRevLett.98.066401

 M. Frigo, S. G. Johnson.
 Proc. IEEE 93, 216-231 (2005).
 The design and implementation of FFTW3.
 https://doi.org/10.1109/JPROC.2004.840301

 J. Kolafa.
 J. Comput. Chem. 25, 335-342 (2004).
 Time-reversible always stable predictor-corrector method for molecular dynamics 
 of polarizable molecules.
 https://doi.org/10.1002/jcc.10385

 N. D. Mermin.
 Phys. Rev. 137, A1441-A1443 (1965).
 Thermal Properties of the Inhomogeneous Electron Gas.
 https://doi.org/10.1103/PhysRev.137.A1441


 -------------------------------------------------------------------------------
 -                                                                             -
 -                                T I M I N G                                  -
 -                                                                             -
 -------------------------------------------------------------------------------
 SUBROUTINE                       CALLS  ASD         SELF TIME        TOTAL TIME
                                MAXIMUM       AVERAGE  MAXIMUM  AVERAGE  MAXIMUM
 CP2K                                 1  1.0    0.002    0.002   26.765   26.765
 cp_cell_opt                          1  2.0    0.000    0.000   26.759   26.759
 geoopt_bfgs                          1  3.0    0.002    0.002   26.759   26.759
 cp_eval_at                          16  4.0    0.002    0.002   26.718   26.718
 qs_forces                           15  5.0    0.001    0.001   26.399   26.399
 build_tblite_matrices               31  7.0   21.063   21.063   21.596   21.596
 qs_energies                         16  5.9    0.001    0.001    8.662    8.662
 qs_energies_init_hamiltonians       16  6.9    0.000    0.000    6.784    6.784
 rebuild_ks_matrix                  195  9.8    0.000    0.000    3.739    3.739
 build_tblite_ks_matrix             195 10.8    3.734    3.734    3.739    3.739
 qs_ks_update_qs_env_forces          15  6.0    0.000    0.000    3.213    3.213
 scf_env_do_scf                      16  6.9    0.000    0.000    1.700    1.700
 scf_env_do_scf_inner_loop          180  8.0    0.270    0.270    1.698    1.698
 qs_scf_new_mos                     180  9.0    0.001    0.001    0.838    0.838
 qs_ks_update_qs_env                180  9.0    0.000    0.000    0.544    0.544
 -------------------------------------------------------------------------------

 The number of warnings for this run is : 0
 
 -------------------------------------------------------------------------------
  **** **** ******  **  PROGRAM ENDED AT                 2026-05-23 22:47:44.394
 ***** ** ***  *** **   PROGRAM RAN ON                                spark-c86c
 **    ****   ******    PROGRAM RAN BY                                  kuehne88
 ***** **    ** ** **   PROGRAM PROCESS ID                               2268464
  **** **  *******  **  PROGRAM STOPPED IN /home/kuehne88/periodic-gfn2-benchmar
                                           ks/X23b/runs/cellopt_gamma/GFN2/benze
                                           ne_GFN2_gamma_cellopt
