 DBCSR| CPU Multiplication driver                                           XSMM (U)
 DBCSR| Multrec recursion limit                                              512 (U)
 DBCSR| Multiplication stack size                                           1000 (D)
 DBCSR| Maximum elements for images                                    UNLIMITED (U)
 DBCSR| Multiplicative factor virtual images                                   1 (U)
 DBCSR| Use multiplication densification                                       T (D)
 DBCSR| Multiplication size stacks                                             3 (U)
 DBCSR| Use memory pool for CPU allocation                                     F (U)
 DBCSR| Number of 3D layers                                               SINGLE (U)
 DBCSR| Use MPI memory allocation                                              F (U)
 DBCSR| Use RMA algorithm                                                      F (U)
 DBCSR| Use Communication thread                                               T (U)
 DBCSR| Communication thread load                                             87 (D)
 DBCSR| MPI: My process id                                                     0
 DBCSR| MPI: Number of processes                                               1
 DBCSR| OMP: Current number of threads                                         1
 DBCSR| OMP: Max number of threads                                             1
 DBCSR| Split modifier for TAS multiplication algorithm                  1.0E+00 (U)


  **** **** ******  **  PROGRAM STARTED AT               2026-05-23 22:47:43.681
 ***** ** ***  *** **   PROGRAM STARTED ON                            spark-c86c
 **    ****   ******    PROGRAM STARTED BY                              kuehne88
 ***** **    ** ** **   PROGRAM PROCESS ID                               2270439
  **** **  *******  **  PROGRAM STARTED IN /home/kuehne88/periodic-gfn2-benchmar
                                           ks/X23b/runs/cellopt_gamma/GFN2/pyraz
                                           ine_GFN2_gamma_cellopt

 CP2K| version string:                 CP2K version 2026.1 (Development Version)
 CP2K| source code revision number:                                   0622d442e4
 CP2K| cp2kflags: omp fftw3 libxc parallel scalapack mpi_f08 xsmm spglib libdftd
 CP2K|            4 dftd4_v3 mctc-lib tblite
 CP2K| is freely available from                            https://www.cp2k.org/
 CP2K| Program compiled at                                   2026-05-23 22:05:08
 CP2K| Program compiled on                                            spark-c86c
 CP2K| Program compiled for                                              aarch64
 CP2K| Data directory path    /home/kuehne88/cp2k-master-tblite-20260523/install
 CP2K| Input file name                           pyrazine_GFN2_gamma_cellopt.inp

 GLOBAL| Force Environment number                                              1
 GLOBAL| Basis set file name                                           BASIS_SET
 GLOBAL| Potential file name                                           POTENTIAL
 GLOBAL| MM Potential file name                                     MM_POTENTIAL
 GLOBAL| Coordinate file name                                      __STD_INPUT__
 GLOBAL| Method name                                                        CP2K
 GLOBAL| Project name                               pyrazine_GFN2_gamma_cell_opt
 GLOBAL| Run type                                                       CELL_OPT
 GLOBAL| FFT library                                                       FFTW3
 GLOBAL| Diagonalization library                                       ScaLAPACK
 GLOBAL| Cholesky decomposition library                                ScaLAPACK
 GLOBAL| DGEMM library                                                      BLAS
 GLOBAL| Direct generalized diagonalization requested                          F
 GLOBAL| Orthonormality check for eigenvectors                          DISABLED
 GLOBAL| Matrix multiplication library                                 ScaLAPACK
 GLOBAL| All-to-all communication in single precision                          F
 GLOBAL| FFTs using library dependent lengths                                  F
 GLOBAL| Grid backend                                                       AUTO
 GLOBAL| Global print level                                                  LOW
 GLOBAL| MPI I/O enabled                                                       T
 GLOBAL| Total number of message passing processes                             1
 GLOBAL| Number of distributed systems (nodes)                                 1
 GLOBAL| Number of threads for this process                                    1
 GLOBAL| This output is from process                                           0
 GLOBAL| OpenMP stack size per thread (OMP_STACKSIZE)                    default
 GLOBAL| CPU model name                                                  UNKNOWN
 GLOBAL| CPUID                                                              2200
 GLOBAL| Compiled for CPUID                                                 2000

 *** HINT in environment.F:970 :: The compiler target flags (arm_arch64)   ***
 *** used to build this binary cannot exploit all extensions of this CPU   ***
 *** model (arm_sve256). Consider compiler target flags as part of FCFLAGS ***
 *** and CFLAGS (ARCH file).                                               ***


 MEMORY| system memory details [Kb]
 MEMORY|                        rank 0           min           max       average
 MEMORY| MemTotal            125508532     125508532     125508532     125508532
 MEMORY| MemFree             104363640     104363640     104363640     104363640
 MEMORY| Buffers                868280        868280        868280        868280
 MEMORY| Cached               14087852      14087852      14087852      14087852
 MEMORY| Slab                  1597952       1597952       1597952       1597952
 MEMORY| SReclaimable           919884        919884        919884        919884
 MEMORY| MemLikelyFree       120239656     120239656     120239656     120239656


 GENERATE|  Preliminary Number of Bonds generated:                             0
 GENERATE|  Achieved consistency in connectivity generation.


                  #####   #####        #     #   #     #       #          
                 #     # #     #      #    ##### #     #   # #####  ####  
                 #     # #           #       #   ###   #       #   #    # 
                 #     #  #####     #        #   #  #  #   #   #   ###### 
                 #   # #       #   #         #   #   # #   #   #   #      
                 #    #  #     #  #          #   #  #  # # #   #    #   # 
                  #### #  #####  #           #   ###   ##  #   #     ###  

                                   GFN2-xTB  
                                 Version 0.0                       
                            Johann V. Pototschnig                  



 TOTAL NUMBERS AND MAXIMUM NUMBERS

  Total number of            - Atomic kinds:                                   3
                             - Atoms:                                         20
                             - Shell sets:                                    32
                             - Shells:                                        32
                             - Primitive Cartesian functions:                120
                             - Cartesian basis functions:                     56
                             - Spherical basis functions:                     56

  Maximum angular momentum of the orbital basis functions:                     1


 SCF PARAMETERS         Density guess:                                     MOPAC
                        --------------------------------------------------------
                        max_scf:                                             300
                        max_scf_history:                                       0
                        max_diis:                                              4
                        --------------------------------------------------------
                        eps_scf:                                        1.00E-09
                        eps_scf_history:                                0.00E+00
                        eps_diis:                                       1.00E-01
                        eps_eigval:                                     1.00E-05
                        --------------------------------------------------------
                        level_shift [a.u.]:                             0.000000
                        added MOs                                        26    0
                        --------------------------------------------------------
                        Mixing method:                           DIRECT_P_MIXING
                        --------------------------------------------------------
                        Smear method:                                FERMI_DIRAC
                        Electronic temperature [K]:                        300.0
                        Electronic temperature [a.u.]:                  9.50E-04
                        Accuracy threshold:                             1.00E-06
                        --------------------------------------------------------
                        No outer SCF

 CELL_OPT| Pressure tolerance [bar]:                                       100.0
 CELL_OPT| Keep volume of cell:                                               NO
 CELL_OPT| Keep angles between the cell vectors:                              NO
 CELL_OPT| Keep cell symmetry:                                                NO
 CELL_OPT| Constraint:                                                      NONE

 BFGS| Use rational function optimization for step estimation:                NO
 BFGS| Use model Hessian for initial guess:                                   NO
 BFGS| Restart Hessian:                                                       NO
 BFGS| Trust radius:                                                       0.472

 *******************************************************************************
 ***                     STARTING   CELL   OPTIMIZATION                      ***
 ***                                   BFGS                                  ***
 *******************************************************************************

 CELL| Volume [angstrom^3]:                                           203.639816
 CELL| Vector a [angstrom]:       9.325     0.000     0.000   |a| =     9.325000
 CELL| Vector b [angstrom]:       0.000     5.850     0.000   |b| =     5.850000
 CELL| Vector c [angstrom]:       0.000     0.000     3.733   |c| =     3.733000
 CELL| Angle (b,c), alpha [degree]:                                    90.000000
 CELL| Angle (a,c), beta  [degree]:                                    90.000000
 CELL| Angle (a,b), gamma [degree]:                                    90.000000
 CELL| Numerically orthorhombic:                                             YES
 CELL| Periodicity                                                           XYZ

 Extrapolation method: initial_guess

 Number of electrons:                                                         60
 Number of occupied orbitals:                                                 30
 Number of molecular orbitals:                                                56

 Number of orbital functions:                                                 56
 Number of independent orbital functions:                                     56


 SCF WAVEFUNCTION OPTIMIZATION

  Step     Update method      Time    Convergence         Total energy    Change
  ------------------------------------------------------------------------------
     1 TBLite/Diag 0.40E+00    0.0     0.67744744       -32.5475587767 -3.25E+01
     2 TBLite/Diag 0.40E+00    0.0     0.20286566       -32.6854685992 -1.38E-01
     3 TBLite/Diag 0.40E+00    0.0     0.04156290       -32.6876016327 -2.13E-03
     4 TBLite/Diag 0.40E+00    0.0     0.02565093       -32.6891781403 -1.58E-03
     5 TBLite/Diag 0.40E+00    0.0     0.02080414       -32.6888253218  3.53E-04
     6 TBLite/Diag 0.40E+00    0.0     0.01384787       -32.6894225222 -5.97E-04
     7 TBLite/Diag 0.40E+00    0.0     0.00166600       -32.6894284965 -5.97E-06
     8 TBLite/Diag 0.40E+00    0.0     0.00040082       -32.6894292804 -7.84E-07
     9 TBLite/Diag 0.40E+00    0.0     0.00003012       -32.6894292904 -1.00E-08
    10 TBLite/Diag 0.40E+00    0.0     0.00002018       -32.6894292934 -2.95E-09
    11 TBLite/Diag 0.40E+00    0.0     0.00000556       -32.6894292935 -1.66E-10
    12 TBLite/Diag 0.40E+00    0.0     0.00000095       -32.6894292935 -3.32E-12
    13 TBLite/Diag 0.40E+00    0.0     0.00000004       -32.6894292935 -4.26E-14
    14 TBLite/Diag 0.40E+00    0.0     8.2949E-09       -32.6894292935 -7.11E-15
    15 TBLite/Diag 0.40E+00    0.0     2.6943E-10       -32.6894292935  7.11E-15

  *** SCF run converged in    15 steps ***


  Core Hamiltonian energy:                                    -33.48138519667786
  Repulsive potential energy:                                   0.76690234440505
  Electrostatic energy:                                         0.07010632102884
  Self-consistent dispersion energy:                           -0.05565987744391
  Non-self consistent dispersion energy:                        0.01060711514538
  Correction for halogen bonding:                               0.00000000000000
  Electronic entropic energy:                                  -0.00000000000000
  Fermi energy:                                                -0.32915113824874

  Total energy:                                               -32.68942929354249
  Total energy (extrapolated to T->0):                        -32.68942929354249

 ENERGY| Total FORCE_EVAL ( QS ) energy [hartree]            -32.689429293542489

 OPT| **************************************************************************
 OPT| Step number                                                              0
 OPT| Optimization method                                                   BFGS
 OPT| Total energy [hartree]                                      -32.6894292935
 OPT| Internal pressure [bar]                                  176045.3679221955
 OPT| Used time [s]                                                        0.924
 OPT| **************************************************************************
 OPT| Estimated peak process memory [MiB]                                    162

 --------------------------
 OPTIMIZATION STEP:      1
 --------------------------

 CELL| Volume [angstrom^3]:                                           208.542332
 CELL| Vector a [angstrom]:       9.342     0.000     0.000   |a| =     9.342261
 CELL| Vector b [angstrom]:       0.000     5.914     0.000   |b| =     5.914136
 CELL| Vector c [angstrom]:       0.000     0.000     3.774   |c| =     3.774426
 CELL| Angle (b,c), alpha [degree]:                                    90.000000
 CELL| Angle (a,c), beta  [degree]:                                    90.000000
 CELL| Angle (a,b), gamma [degree]:                                    90.000000
 CELL| Numerically orthorhombic:                                             YES
 CELL| Periodicity                                                           XYZ

 Extrapolation method: ASPC

 Number of electrons:                                                         60
 Number of occupied orbitals:                                                 30
 Number of molecular orbitals:                                                56

 Number of orbital functions:                                                 56
 Number of independent orbital functions:                                     56


 SCF WAVEFUNCTION OPTIMIZATION

  Step     Update method      Time    Convergence         Total energy    Change
  ------------------------------------------------------------------------------
     1 TBLite/Diag 0.40E+00    0.0     0.12179522       -32.7974900543 -3.28E+01
     2 TBLite/Diag 0.40E+00    0.0     0.01261062       -32.7983943334 -9.04E-04
     3 TBLite/Diag 0.40E+00    0.0     0.00654086       -32.7985063072 -1.12E-04
     4 TBLite/Diag 0.40E+00    0.0     0.00334845       -32.7985356574 -2.94E-05
     5 TBLite/Diag 0.40E+00    0.0     0.00146196       -32.7985421475 -6.49E-06
     6 TBLite/Diag 0.40E+00    0.0     0.00003715       -32.7985421548 -7.27E-09
     7 TBLite/Diag 0.40E+00    0.0     0.00002052       -32.7985421555 -7.81E-10
     8 TBLite/Diag 0.40E+00    0.0     0.00000991       -32.7985421558 -2.81E-10
     9 TBLite/Diag 0.40E+00    0.0     0.00000401       -32.7985421559 -9.61E-11
    10 TBLite/Diag 0.40E+00    0.0     0.00000005       -32.7985421559 -1.42E-14
    11 TBLite/Diag 0.40E+00    0.0     7.8438E-09       -32.7985421559 -4.26E-14
    12 TBLite/Diag 0.40E+00    0.0     1.1503E-09       -32.7985421559 -4.26E-14
    13 TBLite/Diag 0.40E+00    0.0     1.5088E-10       -32.7985421559  3.55E-14

  *** SCF run converged in    13 steps ***


  Core Hamiltonian energy:                                    -33.42441649846138
  Repulsive potential energy:                                   0.59883828400389
  Electrostatic energy:                                         0.07153225061221
  Self-consistent dispersion energy:                           -0.05460394529000
  Non-self consistent dispersion energy:                        0.01010775322310
  Correction for halogen bonding:                               0.00000000000000
  Electronic entropic energy:                                  -0.00000000000000
  Fermi energy:                                                -0.33102437595023

  Total energy:                                               -32.79854215591219
  Total energy (extrapolated to T->0):                        -32.79854215591219

 ENERGY| Total FORCE_EVAL ( QS ) energy [hartree]            -32.798542155912195

 OPT| **************************************************************************
 OPT| Step number                                                              1
 OPT| Optimization method                                                   BFGS
 OPT| Total energy [hartree]                                      -32.7985421559
 OPT| Internal pressure [bar]                                  111862.1455852870
 OPT| Effective energy change [hartree]                            -0.1091128624
 OPT| Predicted energy change [hartree]                            -0.1784607875
 OPT| Scaling factor                                                0.0000000000
 OPT| Step size                                                     0.1211997208
 OPT| Trust radius                                                  0.4724315332
 OPT| Decrease in energy                                                     YES
 OPT| Used time [s]                                                        0.894
 OPT|
 OPT| Maximum step size                                             0.1211997208
 OPT| Convergence limit for maximum step size                       0.0030000000
 OPT| Maximum step size is converged                                          NO
 OPT|
 OPT| RMS step size                                                 0.0735384434
 OPT| Convergence limit for RMS step size                           0.0015000000
 OPT| RMS step size is converged                                              NO
 OPT|
 OPT| Maximum gradient                                              0.0692756706
 OPT| Convergence limit for maximum gradient                        0.0004500000
 OPT| Maximum gradient is converged                                           NO
 OPT|
 OPT| RMS gradient                                                  0.0306672386
 OPT| Convergence limit for RMS gradient                            0.0003000000
 OPT| RMS gradient is converged                                               NO
 OPT|
 OPT| Pressure deviation [bar]                                 111862.1455852870
 OPT| Pressure tolerance [bar]                                    100.0000000000
 OPT| Pressure is converged                                                   NO
 OPT| **************************************************************************
 OPT| Estimated peak process memory after this step [MiB]                    163

 --------------------------
 OPTIMIZATION STEP:      2
 --------------------------

 CELL| Volume [angstrom^3]:                                           211.412112
 CELL| Vector a [angstrom]:       9.361     0.000     0.000   |a| =     9.360548
 CELL| Vector b [angstrom]:       0.000     5.940     0.000   |b| =     5.939540
 CELL| Vector c [angstrom]:       0.000     0.000     3.803   |c| =     3.802557
 CELL| Angle (b,c), alpha [degree]:                                    90.000000
 CELL| Angle (a,c), beta  [degree]:                                    90.000000
 CELL| Angle (a,b), gamma [degree]:                                    90.000000
 CELL| Numerically orthorhombic:                                             YES
 CELL| Periodicity                                                           XYZ

 Extrapolation method: ASPC

 Number of electrons:                                                         60
 Number of occupied orbitals:                                                 30
 Number of molecular orbitals:                                                56

 Number of orbital functions:                                                 56
 Number of independent orbital functions:                                     56


 SCF WAVEFUNCTION OPTIMIZATION

  Step     Update method      Time    Convergence         Total energy    Change
  ------------------------------------------------------------------------------
     1 TBLite/Diag 0.40E+00    0.0     0.04793153       -32.8262668805 -3.28E+01
     2 TBLite/Diag 0.40E+00    0.0     0.00399299       -32.8263710746 -1.04E-04
     3 TBLite/Diag 0.40E+00    0.0     0.00222149       -32.8263830858 -1.20E-05
     4 TBLite/Diag 0.40E+00    0.0     0.00144129       -32.8263887690 -5.68E-06
     5 TBLite/Diag 0.40E+00    0.0     0.00043564       -32.8263893421 -5.73E-07
     6 TBLite/Diag 0.40E+00    0.0     0.00003295       -32.8263893457 -3.65E-09
     7 TBLite/Diag 0.40E+00    0.0     0.00000209       -32.8263893457 -5.00E-12
     8 TBLite/Diag 0.40E+00    0.0     0.00000227       -32.8263893457  1.01E-11
     9 TBLite/Diag 0.40E+00    0.0     0.00000142       -32.8263893457 -1.51E-11
    10 TBLite/Diag 0.40E+00    0.0     0.00000002       -32.8263893457 -1.42E-14
    11 TBLite/Diag 0.40E+00    0.0     6.0494E-10       -32.8263893457  2.84E-14

  *** SCF run converged in    11 steps ***


  Core Hamiltonian energy:                                    -33.39923277211793
  Repulsive potential energy:                                   0.54552329173508
  Electrostatic energy:                                         0.07128057616015
  Self-consistent dispersion energy:                           -0.05378360056386
  Non-self consistent dispersion energy:                        0.00982315903954
  Correction for halogen bonding:                               0.00000000000000
  Electronic entropic energy:                                  -0.00000000000000
  Fermi energy:                                                -0.32536602140995

  Total energy:                                               -32.82638934574702
  Total energy (extrapolated to T->0):                        -32.82638934574702

 ENERGY| Total FORCE_EVAL ( QS ) energy [hartree]            -32.826389345747018

 OPT| **************************************************************************
 OPT| Step number                                                              2
 OPT| Optimization method                                                   BFGS
 OPT| Total energy [hartree]                                      -32.8263893457
 OPT| Internal pressure [bar]                                   60387.5338394922
 OPT| Effective energy change [hartree]                            -0.0278471898
 OPT| Predicted energy change [hartree]                            -0.0221300095
 OPT| Scaling factor                                                0.0000000000
 OPT| Step size                                                     0.0531601739
 OPT| Trust radius                                                  0.4724315332
 OPT| Decrease in energy                                                     YES
 OPT| Used time [s]                                                        0.874
 OPT|
 OPT| Maximum step size                                             0.0531601739
 OPT| Convergence limit for maximum step size                       0.0030000000
 OPT| Maximum step size is converged                                          NO
 OPT|
 OPT| RMS step size                                                 0.0224934653
 OPT| Convergence limit for RMS step size                           0.0015000000
 OPT| RMS step size is converged                                              NO
 OPT|
 OPT| Maximum gradient                                              0.0508783879
 OPT| Convergence limit for maximum gradient                        0.0004500000
 OPT| Maximum gradient is converged                                           NO
 OPT|
 OPT| RMS gradient                                                  0.0115839506
 OPT| Convergence limit for RMS gradient                            0.0003000000
 OPT| RMS gradient is converged                                               NO
 OPT|
 OPT| Pressure deviation [bar]                                  60387.5338394922
 OPT| Pressure tolerance [bar]                                    100.0000000000
 OPT| Pressure is converged                                                   NO
 OPT| **************************************************************************
 OPT| Estimated peak process memory after this step [MiB]                    163

 --------------------------
 OPTIMIZATION STEP:      3
 --------------------------

 CELL| Volume [angstrom^3]:                                           215.054104
 CELL| Vector a [angstrom]:       9.369     0.000     0.000   |a| =     9.369116
 CELL| Vector b [angstrom]:       0.000     5.970     0.000   |b| =     5.969819
 CELL| Vector c [angstrom]:       0.000     0.000     3.845   |c| =     3.844926
 CELL| Angle (b,c), alpha [degree]:                                    90.000000
 CELL| Angle (a,c), beta  [degree]:                                    90.000000
 CELL| Angle (a,b), gamma [degree]:                                    90.000000
 CELL| Numerically orthorhombic:                                             YES
 CELL| Periodicity                                                           XYZ

 Extrapolation method: ASPC

 Number of electrons:                                                         60
 Number of occupied orbitals:                                                 30
 Number of molecular orbitals:                                                56

 Number of orbital functions:                                                 56
 Number of independent orbital functions:                                     56


 SCF WAVEFUNCTION OPTIMIZATION

  Step     Update method      Time    Convergence         Total energy    Change
  ------------------------------------------------------------------------------
     1 TBLite/Diag 0.40E+00    0.0     0.02675394       -32.8342196821 -3.28E+01
     2 TBLite/Diag 0.40E+00    0.0     0.00226537       -32.8342679112 -4.82E-05
     3 TBLite/Diag 0.40E+00    0.0     0.00223034       -32.8342773096 -9.40E-06
     4 TBLite/Diag 0.40E+00    0.0     0.00058750       -32.8342782453 -9.36E-07
     5 TBLite/Diag 0.40E+00    0.0     0.00029693       -32.8342785093 -2.64E-07
     6 TBLite/Diag 0.40E+00    0.0     0.00003279       -32.8342785123 -2.97E-09
     7 TBLite/Diag 0.40E+00    0.0     0.00000295       -32.8342785123 -9.11E-12
     8 TBLite/Diag 0.40E+00    0.0     0.00000304       -32.8342785123  1.21E-11
     9 TBLite/Diag 0.40E+00    0.0     0.00000178       -32.8342785123 -2.39E-11
    10 TBLite/Diag 0.40E+00    0.0     0.00000001       -32.8342785123 -4.26E-14
    11 TBLite/Diag 0.40E+00    0.0     3.5725E-09       -32.8342785123  2.13E-14
    12 TBLite/Diag 0.40E+00    0.0     2.0949E-09       -32.8342785123  0.00E+00
    13 TBLite/Diag 0.40E+00    0.0     2.9517E-10       -32.8342785123 -7.11E-15

  *** SCF run converged in    13 steps ***


  Core Hamiltonian energy:                                    -33.37063100089716
  Repulsive potential energy:                                   0.50741963673974
  Electrostatic energy:                                         0.07216591851432
  Self-consistent dispersion energy:                           -0.05270615743630
  Non-self consistent dispersion energy:                        0.00947309076303
  Correction for halogen bonding:                               0.00000000000000
  Electronic entropic energy:                                  -0.00000000000000
  Fermi energy:                                                -0.33068170664066

  Total energy:                                               -32.83427851231637
  Total energy (extrapolated to T->0):                        -32.83427851231637

 ENERGY| Total FORCE_EVAL ( QS ) energy [hartree]            -32.834278512316374

 OPT| **************************************************************************
 OPT| Step number                                                              3
 OPT| Optimization method                                                   BFGS
 OPT| Total energy [hartree]                                      -32.8342785123
 OPT| Internal pressure [bar]                                   17854.8847477087
 OPT| Effective energy change [hartree]                            -0.0078891666
 OPT| Predicted energy change [hartree]                            -0.0065148826
 OPT| Scaling factor                                                0.0000000000
 OPT| Step size                                                     0.0800644022
 OPT| Trust radius                                                  0.4724315332
 OPT| Decrease in energy                                                     YES
 OPT| Used time [s]                                                        0.870
 OPT|
 OPT| Maximum step size                                             0.0800644022
 OPT| Convergence limit for maximum step size                       0.0030000000
 OPT| Maximum step size is converged                                          NO
 OPT|
 OPT| RMS step size                                                 0.0173444841
 OPT| Convergence limit for RMS step size                           0.0015000000
 OPT| RMS step size is converged                                              NO
 OPT|
 OPT| Maximum gradient                                              0.0394226685
 OPT| Convergence limit for maximum gradient                        0.0004500000
 OPT| Maximum gradient is converged                                           NO
 OPT|
 OPT| RMS gradient                                                  0.0061004152
 OPT| Convergence limit for RMS gradient                            0.0003000000
 OPT| RMS gradient is converged                                               NO
 OPT|
 OPT| Pressure deviation [bar]                                  17854.8847477087
 OPT| Pressure tolerance [bar]                                    100.0000000000
 OPT| Pressure is converged                                                   NO
 OPT| **************************************************************************
 OPT| Estimated peak process memory after this step [MiB]                    163

 --------------------------
 OPTIMIZATION STEP:      4
 --------------------------

 CELL| Volume [angstrom^3]:                                           218.036947
 CELL| Vector a [angstrom]:       9.370     0.000     0.000   |a| =     9.370283
 CELL| Vector b [angstrom]:      -0.000     5.986     0.000   |b| =     5.986076
 CELL| Vector c [angstrom]:       0.000    -0.000     3.887   |c| =     3.887185
 CELL| Angle (b,c), alpha [degree]:                                    90.000000
 CELL| Angle (a,c), beta  [degree]:                                    90.000000
 CELL| Angle (a,b), gamma [degree]:                                    90.000000
 CELL| Numerically orthorhombic:                                              NO
 CELL| Periodicity                                                           XYZ

 Extrapolation method: ASPC

 Number of electrons:                                                         60
 Number of occupied orbitals:                                                 30
 Number of molecular orbitals:                                                56

 Number of orbital functions:                                                 56
 Number of independent orbital functions:                                     56


 SCF WAVEFUNCTION OPTIMIZATION

  Step     Update method      Time    Convergence         Total energy    Change
  ------------------------------------------------------------------------------
     1 TBLite/Diag 0.40E+00    0.0     0.00839318       -32.8375888939 -3.28E+01
     2 TBLite/Diag 0.40E+00    0.0     0.00060357       -32.8375932400 -4.35E-06
     3 TBLite/Diag 0.40E+00    0.0     0.00062022       -32.8375942271 -9.87E-07
     4 TBLite/Diag 0.40E+00    0.0     0.00020156       -32.8375944055 -1.78E-07
     5 TBLite/Diag 0.40E+00    0.0     0.00009645       -32.8375944330 -2.75E-08
     6 TBLite/Diag 0.40E+00    0.0     0.00001177       -32.8375944336 -6.05E-10
     7 TBLite/Diag 0.40E+00    0.0     0.00000394       -32.8375944337 -3.50E-11
     8 TBLite/Diag 0.40E+00    0.0     0.00000169       -32.8375944337 -1.43E-11
     9 TBLite/Diag 0.40E+00    0.0     0.00000030       -32.8375944337 -7.03E-13
    10 TBLite/Diag 0.40E+00    0.0     4.1168E-09       -32.8375944337  3.55E-14
    11 TBLite/Diag 0.40E+00    0.0     3.1185E-10       -32.8375944337 -7.11E-15

  *** SCF run converged in    11 steps ***


  Core Hamiltonian energy:                                    -33.36029830858586
  Repulsive potential energy:                                   0.49307360249923
  Electrostatic energy:                                         0.07227792630240
  Self-consistent dispersion energy:                           -0.05186333260919
  Non-self consistent dispersion energy:                        0.00921567871305
  Correction for halogen bonding:                               0.00000000000000
  Electronic entropic energy:                                  -0.00000000000000
  Fermi energy:                                                -0.33033473890373

  Total energy:                                               -32.83759443368037
  Total energy (extrapolated to T->0):                        -32.83759443368037

 ENERGY| Total FORCE_EVAL ( QS ) energy [hartree]            -32.837594433680373

 OPT| **************************************************************************
 OPT| Step number                                                              4
 OPT| Optimization method                                                   BFGS
 OPT| Total energy [hartree]                                      -32.8375944337
 OPT| Internal pressure [bar]                                    2058.5042732011
 OPT| Effective energy change [hartree]                            -0.0033159214
 OPT| Predicted energy change [hartree]                            -0.0020757322
 OPT| Scaling factor                                                0.0000000000
 OPT| Step size                                                     0.0798583472
 OPT| Trust radius                                                  0.4724315332
 OPT| Decrease in energy                                                     YES
 OPT| Used time [s]                                                        0.835
 OPT|
 OPT| Maximum step size                                             0.0798583472
 OPT| Convergence limit for maximum step size                       0.0030000000
 OPT| Maximum step size is converged                                          NO
 OPT|
 OPT| RMS step size                                                 0.0121832346
 OPT| Convergence limit for RMS step size                           0.0015000000
 OPT| RMS step size is converged                                              NO
 OPT|
 OPT| Maximum gradient                                              0.0325651591
 OPT| Convergence limit for maximum gradient                        0.0004500000
 OPT| Maximum gradient is converged                                           NO
 OPT|
 OPT| RMS gradient                                                  0.0059354035
 OPT| Convergence limit for RMS gradient                            0.0003000000
 OPT| RMS gradient is converged                                               NO
 OPT|
 OPT| Pressure deviation [bar]                                   2058.5042732011
 OPT| Pressure tolerance [bar]                                    100.0000000000
 OPT| Pressure is converged                                                   NO
 OPT| **************************************************************************
 OPT| Estimated peak process memory after this step [MiB]                    164

 --------------------------
 OPTIMIZATION STEP:      5
 --------------------------

 CELL| Volume [angstrom^3]:                                           224.566418
 CELL| Vector a [angstrom]:       9.366     0.000     0.000   |a| =     9.365505
 CELL| Vector b [angstrom]:       0.000     6.009     0.000   |b| =     6.009050
 CELL| Vector c [angstrom]:      -0.000     0.000     3.990   |c| =     3.990321
 CELL| Angle (b,c), alpha [degree]:                                    90.000000
 CELL| Angle (a,c), beta  [degree]:                                    90.000000
 CELL| Angle (a,b), gamma [degree]:                                    90.000000
 CELL| Numerically orthorhombic:                                              NO
 CELL| Periodicity                                                           XYZ

 Extrapolation method: ASPC

 Number of electrons:                                                         60
 Number of occupied orbitals:                                                 30
 Number of molecular orbitals:                                                56

 Number of orbital functions:                                                 56
 Number of independent orbital functions:                                     56


 SCF WAVEFUNCTION OPTIMIZATION

  Step     Update method      Time    Convergence         Total energy    Change
  ------------------------------------------------------------------------------
     1 TBLite/Diag 0.40E+00    0.0     0.02075315       -32.8427814885 -3.28E+01
     2 TBLite/Diag 0.40E+00    0.0     0.00207537       -32.8427952132 -1.37E-05
     3 TBLite/Diag 0.40E+00    0.0     0.00092124       -32.8427959114 -6.98E-07
     4 TBLite/Diag 0.40E+00    0.0     0.00075483       -32.8427983764 -2.47E-06
     5 TBLite/Diag 0.40E+00    0.0     0.00008604       -32.8427983980 -2.15E-08
     6 TBLite/Diag 0.40E+00    0.0     0.00001791       -32.8427983992 -1.22E-09
     7 TBLite/Diag 0.40E+00    0.0     0.00000873       -32.8427983994 -1.82E-10
     8 TBLite/Diag 0.40E+00    0.0     0.00000335       -32.8427983995 -7.09E-11
     9 TBLite/Diag 0.40E+00    0.0     0.00000034       -32.8427983995 -1.04E-12
    10 TBLite/Diag 0.40E+00    0.0     0.00000001       -32.8427983995  1.42E-14
    11 TBLite/Diag 0.40E+00    0.0     6.1729E-09       -32.8427983995 -2.13E-14
    12 TBLite/Diag 0.40E+00    0.0     1.6588E-09       -32.8427983995  6.39E-14
    13 TBLite/Diag 0.40E+00    0.0     2.1958E-10       -32.8427983995 -1.42E-14

  *** SCF run converged in    13 steps ***


  Core Hamiltonian energy:                                    -33.35059469076459
  Repulsive potential energy:                                   0.47683304585492
  Electrostatic energy:                                         0.07230205285742
  Self-consistent dispersion energy:                           -0.05005758172299
  Non-self consistent dispersion energy:                        0.00871877431011
  Correction for halogen bonding:                               0.00000000000000
  Electronic entropic energy:                                  -0.00000000000000
  Fermi energy:                                                -0.32921991423894

  Total energy:                                               -32.84279839946512
  Total energy (extrapolated to T->0):                        -32.84279839946512

 ENERGY| Total FORCE_EVAL ( QS ) energy [hartree]            -32.842798399465124

 OPT| **************************************************************************
 OPT| Step number                                                              5
 OPT| Optimization method                                                   BFGS
 OPT| Total energy [hartree]                                      -32.8427983995
 OPT| Internal pressure [bar]                                  -16814.1684353171
 OPT| Effective energy change [hartree]                            -0.0052039658
 OPT| Predicted energy change [hartree]                            -0.0039080356
 OPT| Scaling factor                                                0.0000000000
 OPT| Step size                                                     0.1948991107
 OPT| Trust radius                                                  0.4724315332
 OPT| Decrease in energy                                                     YES
 OPT| Used time [s]                                                        0.814
 OPT|
 OPT| Maximum step size                                             0.1948991107
 OPT| Convergence limit for maximum step size                       0.0030000000
 OPT| Maximum step size is converged                                          NO
 OPT|
 OPT| RMS step size                                                 0.0275577533
 OPT| Convergence limit for RMS step size                           0.0015000000
 OPT| RMS step size is converged                                              NO
 OPT|
 OPT| Maximum gradient                                              0.0207006583
 OPT| Convergence limit for maximum gradient                        0.0004500000
 OPT| Maximum gradient is converged                                           NO
 OPT|
 OPT| RMS gradient                                                  0.0057306053
 OPT| Convergence limit for RMS gradient                            0.0003000000
 OPT| RMS gradient is converged                                               NO
 OPT|
 OPT| Pressure deviation [bar]                                 -16814.1684353171
 OPT| Pressure tolerance [bar]                                    100.0000000000
 OPT| Pressure is converged                                                   NO
 OPT| **************************************************************************
 OPT| Estimated peak process memory after this step [MiB]                    164

 --------------------------
 OPTIMIZATION STEP:      6
 --------------------------

 CELL| Volume [angstrom^3]:                                           229.000636
 CELL| Vector a [angstrom]:       9.357     0.000     0.000   |a| =     9.356825
 CELL| Vector b [angstrom]:       0.000     6.010     0.000   |b| =     6.010386
 CELL| Vector c [angstrom]:       0.000     0.000     4.072   |c| =     4.071982
 CELL| Angle (b,c), alpha [degree]:                                    90.000000
 CELL| Angle (a,c), beta  [degree]:                                    90.000000
 CELL| Angle (a,b), gamma [degree]:                                    90.000000
 CELL| Numerically orthorhombic:                                              NO
 CELL| Periodicity                                                           XYZ

 Extrapolation method: ASPC

 Number of electrons:                                                         60
 Number of occupied orbitals:                                                 30
 Number of molecular orbitals:                                                56

 Number of orbital functions:                                                 56
 Number of independent orbital functions:                                     56


 SCF WAVEFUNCTION OPTIMIZATION

  Step     Update method      Time    Convergence         Total energy    Change
  ------------------------------------------------------------------------------
     1 TBLite/Diag 0.40E+00    0.0     0.01457489       -32.8459103902 -3.28E+01
     2 TBLite/Diag 0.40E+00    0.0     0.00113826       -32.8459143596 -3.97E-06
     3 TBLite/Diag 0.40E+00    0.0     0.00065101       -32.8459145470 -1.87E-07
     4 TBLite/Diag 0.40E+00    0.0     0.00043636       -32.8459153036 -7.57E-07
     5 TBLite/Diag 0.40E+00    0.0     0.00004462       -32.8459153087 -5.18E-09
     6 TBLite/Diag 0.40E+00    0.0     0.00001150       -32.8459153090 -2.87E-10
     7 TBLite/Diag 0.40E+00    0.0     0.00000576       -32.8459153091 -9.97E-11
     8 TBLite/Diag 0.40E+00    0.0     0.00000187       -32.8459153092 -2.35E-11
     9 TBLite/Diag 0.40E+00    0.0     0.00000013       -32.8459153092 -1.78E-13
    10 TBLite/Diag 0.40E+00    0.0     6.1113E-09       -32.8459153092  2.13E-14
    11 TBLite/Diag 0.40E+00    0.0     1.4819E-09       -32.8459153092  2.13E-14
    12 TBLite/Diag 0.40E+00    0.0     1.0626E-09       -32.8459153092 -2.13E-14
    13 TBLite/Diag 0.40E+00    0.0     1.3658E-10       -32.8459153092  0.00E+00

  *** SCF run converged in    13 steps ***


  Core Hamiltonian energy:                                    -33.35624470884478
  Repulsive potential energy:                                   0.47883100869712
  Electrostatic energy:                                         0.07193888414348
  Self-consistent dispersion energy:                           -0.04884755344622
  Non-self consistent dispersion energy:                        0.00840706029857
  Correction for halogen bonding:                               0.00000000000000
  Electronic entropic energy:                                  -0.00000000000000
  Fermi energy:                                                -0.32818664208362

  Total energy:                                               -32.84591530915182
  Total energy (extrapolated to T->0):                        -32.84591530915182

 ENERGY| Total FORCE_EVAL ( QS ) energy [hartree]            -32.845915309151820

 OPT| **************************************************************************
 OPT| Step number                                                              6
 OPT| Optimization method                                                   BFGS
 OPT| Total energy [hartree]                                      -32.8459153092
 OPT| Internal pressure [bar]                                  -17555.1108943678
 OPT| Effective energy change [hartree]                            -0.0031169097
 OPT| Predicted energy change [hartree]                            -0.0020989258
 OPT| Scaling factor                                                0.0000000000
 OPT| Step size                                                     0.1543166497
 OPT| Trust radius                                                  0.4724315332
 OPT| Decrease in energy                                                     YES
 OPT| Used time [s]                                                        0.797
 OPT|
 OPT| Maximum step size                                             0.1543166497
 OPT| Convergence limit for maximum step size                       0.0030000000
 OPT| Maximum step size is converged                                          NO
 OPT|
 OPT| RMS step size                                                 0.0211671812
 OPT| Convergence limit for RMS step size                           0.0015000000
 OPT| RMS step size is converged                                              NO
 OPT|
 OPT| Maximum gradient                                              0.0242697362
 OPT| Convergence limit for maximum gradient                        0.0004500000
 OPT| Maximum gradient is converged                                           NO
 OPT|
 OPT| RMS gradient                                                  0.0049844355
 OPT| Convergence limit for RMS gradient                            0.0003000000
 OPT| RMS gradient is converged                                               NO
 OPT|
 OPT| Pressure deviation [bar]                                 -17555.1108943678
 OPT| Pressure tolerance [bar]                                    100.0000000000
 OPT| Pressure is converged                                                   NO
 OPT| **************************************************************************
 OPT| Estimated peak process memory after this step [MiB]                    164

 --------------------------
 OPTIMIZATION STEP:      7
 --------------------------

 CELL| Volume [angstrom^3]:                                           233.593710
 CELL| Vector a [angstrom]:       9.344     0.000     0.000   |a| =     9.344294
 CELL| Vector b [angstrom]:       0.000     5.994     0.000   |b| =     5.993816
 CELL| Vector c [angstrom]:       0.000     0.000     4.171   |c| =     4.170722
 CELL| Angle (b,c), alpha [degree]:                                    90.000000
 CELL| Angle (a,c), beta  [degree]:                                    90.000000
 CELL| Angle (a,b), gamma [degree]:                                    90.000000
 CELL| Numerically orthorhombic:                                              NO
 CELL| Periodicity                                                           XYZ

 Extrapolation method: ASPC

 Number of electrons:                                                         60
 Number of occupied orbitals:                                                 30
 Number of molecular orbitals:                                                56

 Number of orbital functions:                                                 56
 Number of independent orbital functions:                                     56


 SCF WAVEFUNCTION OPTIMIZATION

  Step     Update method      Time    Convergence         Total energy    Change
  ------------------------------------------------------------------------------
     1 TBLite/Diag 0.40E+00    0.0     0.01358287       -32.8490581446 -3.28E+01
     2 TBLite/Diag 0.40E+00    0.0     0.00052515       -32.8490625188 -4.37E-06
     3 TBLite/Diag 0.40E+00    0.0     0.00053131       -32.8490637032 -1.18E-06
     4 TBLite/Diag 0.40E+00    0.0     0.00020402       -32.8490638098 -1.07E-07
     5 TBLite/Diag 0.40E+00    0.0     0.00006719       -32.8490638261 -1.63E-08
     6 TBLite/Diag 0.40E+00    0.0     0.00002209       -32.8490638270 -9.67E-10
     7 TBLite/Diag 0.40E+00    0.0     0.00000618       -32.8490638272 -1.24E-10
     8 TBLite/Diag 0.40E+00    0.0     0.00000200       -32.8490638272 -2.74E-11
     9 TBLite/Diag 0.40E+00    0.0     0.00000019       -32.8490638272 -2.42E-13
    10 TBLite/Diag 0.40E+00    0.0     5.7153E-09       -32.8490638272 -2.13E-14
    11 TBLite/Diag 0.40E+00    0.0     5.8248E-10       -32.8490638272  7.11E-15

  *** SCF run converged in    11 steps ***


  Core Hamiltonian energy:                                    -33.37365885839152
  Repulsive potential energy:                                   0.49307349288569
  Electrostatic energy:                                         0.07100104790494
  Self-consistent dispersion energy:                           -0.04759406510596
  Non-self consistent dispersion energy:                        0.00811455550977
  Correction for halogen bonding:                               0.00000000000000
  Electronic entropic energy:                                  -0.00000000000000
  Fermi energy:                                                -0.32681161332657

  Total energy:                                               -32.84906382719710
  Total energy (extrapolated to T->0):                        -32.84906382719710

 ENERGY| Total FORCE_EVAL ( QS ) energy [hartree]            -32.849063827197099

 OPT| **************************************************************************
 OPT| Step number                                                              7
 OPT| Optimization method                                                   BFGS
 OPT| Total energy [hartree]                                      -32.8490638272
 OPT| Internal pressure [bar]                                   -7935.2709281090
 OPT| Effective energy change [hartree]                            -0.0031485180
 OPT| Predicted energy change [hartree]                            -0.0022722302
 OPT| Scaling factor                                                0.0000000000
 OPT| Step size                                                     0.1865920127
 OPT| Trust radius                                                  0.4724315332
 OPT| Decrease in energy                                                     YES
 OPT| Used time [s]                                                        0.770
 OPT|
 OPT| Maximum step size                                             0.1865920127
 OPT| Convergence limit for maximum step size                       0.0030000000
 OPT| Maximum step size is converged                                          NO
 OPT|
 OPT| RMS step size                                                 0.0260615310
 OPT| Convergence limit for RMS step size                           0.0015000000
 OPT| RMS step size is converged                                              NO
 OPT|
 OPT| Maximum gradient                                              0.0199302093
 OPT| Convergence limit for maximum gradient                        0.0004500000
 OPT| Maximum gradient is converged                                           NO
 OPT|
 OPT| RMS gradient                                                  0.0044509306
 OPT| Convergence limit for RMS gradient                            0.0003000000
 OPT| RMS gradient is converged                                               NO
 OPT|
 OPT| Pressure deviation [bar]                                  -7935.2709281090
 OPT| Pressure tolerance [bar]                                    100.0000000000
 OPT| Pressure is converged                                                   NO
 OPT| **************************************************************************
 OPT| Estimated peak process memory after this step [MiB]                    164

 --------------------------
 OPTIMIZATION STEP:      8
 --------------------------

 CELL| Volume [angstrom^3]:                                           237.134732
 CELL| Vector a [angstrom]:       9.336     0.000     0.000   |a| =     9.335559
 CELL| Vector b [angstrom]:      -0.000     5.967     0.000   |b| =     5.966690
 CELL| Vector c [angstrom]:       0.000     0.000     4.257   |c| =     4.257174
 CELL| Angle (b,c), alpha [degree]:                                    90.000000
 CELL| Angle (a,c), beta  [degree]:                                    90.000000
 CELL| Angle (a,b), gamma [degree]:                                    90.000000
 CELL| Numerically orthorhombic:                                              NO
 CELL| Periodicity                                                           XYZ

 Extrapolation method: ASPC

 Number of electrons:                                                         60
 Number of occupied orbitals:                                                 30
 Number of molecular orbitals:                                                56

 Number of orbital functions:                                                 56
 Number of independent orbital functions:                                     56


 SCF WAVEFUNCTION OPTIMIZATION

  Step     Update method      Time    Convergence         Total energy    Change
  ------------------------------------------------------------------------------
     1 TBLite/Diag 0.40E+00    0.0     0.01262062       -32.8514388608 -3.29E+01
     2 TBLite/Diag 0.40E+00    0.0     0.00127204       -32.8514466861 -7.83E-06
     3 TBLite/Diag 0.40E+00    0.0     0.00122992       -32.8514468902 -2.04E-07
     4 TBLite/Diag 0.40E+00    0.0     0.00050716       -32.8514481653 -1.28E-06
     5 TBLite/Diag 0.40E+00    0.0     0.00008327       -32.8514481833 -1.80E-08
     6 TBLite/Diag 0.40E+00    0.0     0.00001652       -32.8514481841 -8.18E-10
     7 TBLite/Diag 0.40E+00    0.0     0.00000466       -32.8514481842 -5.59E-11
     8 TBLite/Diag 0.40E+00    0.0     0.00000175       -32.8514481842 -1.90E-11
     9 TBLite/Diag 0.40E+00    0.0     0.00000025       -32.8514481842 -5.12E-13
    10 TBLite/Diag 0.40E+00    0.0     6.3100E-09       -32.8514481842 -1.42E-14
    11 TBLite/Diag 0.40E+00    0.0     4.9701E-09       -32.8514481842 -7.11E-15
    12 TBLite/Diag 0.40E+00    0.0     6.8253E-10       -32.8514481842  2.84E-14

  *** SCF run converged in    12 steps ***


  Core Hamiltonian energy:                                    -33.39086295875308
  Repulsive potential energy:                                   0.50829769717477
  Electrostatic energy:                                         0.06984021479588
  Self-consistent dispersion energy:                           -0.04662848461509
  Non-self consistent dispersion energy:                        0.00790534722100
  Correction for halogen bonding:                               0.00000000000000
  Electronic entropic energy:                                  -0.00000000000000
  Fermi energy:                                                -0.32577135390290

  Total energy:                                               -32.85144818417652
  Total energy (extrapolated to T->0):                        -32.85144818417652

 ENERGY| Total FORCE_EVAL ( QS ) energy [hartree]            -32.851448184176519

 OPT| **************************************************************************
 OPT| Step number                                                              8
 OPT| Optimization method                                                   BFGS
 OPT| Total energy [hartree]                                      -32.8514481842
 OPT| Internal pressure [bar]                                    2831.0322718535
 OPT| Effective energy change [hartree]                            -0.0023843570
 OPT| Predicted energy change [hartree]                            -0.0016214033
 OPT| Scaling factor                                                0.0000000000
 OPT| Step size                                                     0.1633700598
 OPT| Trust radius                                                  0.4724315332
 OPT| Decrease in energy                                                     YES
 OPT| Used time [s]                                                        0.768
 OPT|
 OPT| Maximum step size                                             0.1633700598
 OPT| Convergence limit for maximum step size                       0.0030000000
 OPT| Maximum step size is converged                                          NO
 OPT|
 OPT| RMS step size                                                 0.0235842543
 OPT| Convergence limit for RMS step size                           0.0015000000
 OPT| RMS step size is converged                                              NO
 OPT|
 OPT| Maximum gradient                                              0.0117622096
 OPT| Convergence limit for maximum gradient                        0.0004500000
 OPT| Maximum gradient is converged                                           NO
 OPT|
 OPT| RMS gradient                                                  0.0044575788
 OPT| Convergence limit for RMS gradient                            0.0003000000
 OPT| RMS gradient is converged                                               NO
 OPT|
 OPT| Pressure deviation [bar]                                   2831.0322718535
 OPT| Pressure tolerance [bar]                                    100.0000000000
 OPT| Pressure is converged                                                   NO
 OPT| **************************************************************************
 OPT| Estimated peak process memory after this step [MiB]                    164

 --------------------------
 OPTIMIZATION STEP:      9
 --------------------------

 CELL| Volume [angstrom^3]:                                           241.428212
 CELL| Vector a [angstrom]:       9.330     0.000     0.000   |a| =     9.330189
 CELL| Vector b [angstrom]:      -0.000     5.929     0.000   |b| =     5.928782
 CELL| Vector c [angstrom]:       0.000    -0.000     4.364   |c| =     4.364476
 CELL| Angle (b,c), alpha [degree]:                                    90.000000
 CELL| Angle (a,c), beta  [degree]:                                    90.000000
 CELL| Angle (a,b), gamma [degree]:                                    90.000000
 CELL| Numerically orthorhombic:                                              NO
 CELL| Periodicity                                                           XYZ

 Extrapolation method: ASPC

 Number of electrons:                                                         60
 Number of occupied orbitals:                                                 30
 Number of molecular orbitals:                                                56

 Number of orbital functions:                                                 56
 Number of independent orbital functions:                                     56


 SCF WAVEFUNCTION OPTIMIZATION

  Step     Update method      Time    Convergence         Total energy    Change
  ------------------------------------------------------------------------------
     1 TBLite/Diag 0.40E+00    0.0     0.01725489       -32.8537561294 -3.29E+01
     2 TBLite/Diag 0.40E+00    0.0     0.00220961       -32.8537774200 -2.13E-05
     3 TBLite/Diag 0.40E+00    0.0     0.00194475       -32.8537765573  8.63E-07
     4 TBLite/Diag 0.40E+00    0.0     0.00086134       -32.8537804050 -3.85E-06
     5 TBLite/Diag 0.40E+00    0.0     0.00007349       -32.8537804177 -1.27E-08
     6 TBLite/Diag 0.40E+00    0.0     0.00001578       -32.8537804186 -9.17E-10
     7 TBLite/Diag 0.40E+00    0.0     0.00000476       -32.8537804186 -5.26E-11
     8 TBLite/Diag 0.40E+00    0.0     0.00000189       -32.8537804187 -2.24E-11
     9 TBLite/Diag 0.40E+00    0.0     0.00000026       -32.8537804187 -5.90E-13
    10 TBLite/Diag 0.40E+00    0.0     3.3377E-09       -32.8537804187  7.11E-15
    11 TBLite/Diag 0.40E+00    0.0     1.1892E-09       -32.8537804187 -3.55E-14
    12 TBLite/Diag 0.40E+00    0.0     9.2454E-10       -32.8537804187  2.84E-14

  *** SCF run converged in    12 steps ***


  Core Hamiltonian energy:                                    -33.40419019049995
  Repulsive potential energy:                                   0.51979142624063
  Electrostatic energy:                                         0.06844824469267
  Self-consistent dispersion energy:                           -0.04550141710250
  Non-self consistent dispersion energy:                        0.00767151799774
  Correction for halogen bonding:                               0.00000000000000
  Electronic entropic energy:                                  -0.00000000000000
  Fermi energy:                                                -0.32500707127492

  Total energy:                                               -32.85378041867142
  Total energy (extrapolated to T->0):                        -32.85378041867142

 ENERGY| Total FORCE_EVAL ( QS ) energy [hartree]            -32.853780418671420

 OPT| **************************************************************************
 OPT| Step number                                                              9
 OPT| Optimization method                                                   BFGS
 OPT| Total energy [hartree]                                      -32.8537804187
 OPT| Internal pressure [bar]                                   10384.4891740026
 OPT| Effective energy change [hartree]                            -0.0023322345
 OPT| Predicted energy change [hartree]                            -0.0017011619
 OPT| Scaling factor                                                0.0000000000
 OPT| Step size                                                     0.2027721238
 OPT| Trust radius                                                  0.4724315332
 OPT| Decrease in energy                                                     YES
 OPT| Used time [s]                                                        0.754
 OPT|
 OPT| Maximum step size                                             0.2027721238
 OPT| Convergence limit for maximum step size                       0.0030000000
 OPT| Maximum step size is converged                                          NO
 OPT|
 OPT| RMS step size                                                 0.0295853433
 OPT| Convergence limit for RMS step size                           0.0015000000
 OPT| RMS step size is converged                                              NO
 OPT|
 OPT| Maximum gradient                                              0.0112143736
 OPT| Convergence limit for maximum gradient                        0.0004500000
 OPT| Maximum gradient is converged                                           NO
 OPT|
 OPT| RMS gradient                                                  0.0038785065
 OPT| Convergence limit for RMS gradient                            0.0003000000
 OPT| RMS gradient is converged                                               NO
 OPT|
 OPT| Pressure deviation [bar]                                  10384.4891740026
 OPT| Pressure tolerance [bar]                                    100.0000000000
 OPT| Pressure is converged                                                   NO
 OPT| **************************************************************************
 OPT| Estimated peak process memory after this step [MiB]                    164

 --------------------------
 OPTIMIZATION STEP:     10
 --------------------------

 CELL| Volume [angstrom^3]:                                           246.156771
 CELL| Vector a [angstrom]:       9.329     0.000     0.000   |a| =     9.329438
 CELL| Vector b [angstrom]:      -0.000     5.894     0.000   |b| =     5.894000
 CELL| Vector c [angstrom]:      -0.000    -0.000     4.477   |c| =     4.476578
 CELL| Angle (b,c), alpha [degree]:                                    90.000000
 CELL| Angle (a,c), beta  [degree]:                                    90.000000
 CELL| Angle (a,b), gamma [degree]:                                    90.000000
 CELL| Numerically orthorhombic:                                              NO
 CELL| Periodicity                                                           XYZ

 Extrapolation method: ASPC

 Number of electrons:                                                         60
 Number of occupied orbitals:                                                 30
 Number of molecular orbitals:                                                56

 Number of orbital functions:                                                 56
 Number of independent orbital functions:                                     56


 SCF WAVEFUNCTION OPTIMIZATION

  Step     Update method      Time    Convergence         Total energy    Change
  ------------------------------------------------------------------------------
     1 TBLite/Diag 0.40E+00    0.0     0.01955655       -32.8556205356 -3.29E+01
     2 TBLite/Diag 0.40E+00    0.0     0.00198136       -32.8556365817 -1.60E-05
     3 TBLite/Diag 0.40E+00    0.0     0.00176832       -32.8556361168  4.65E-07
     4 TBLite/Diag 0.40E+00    0.0     0.00077603       -32.8556391021 -2.99E-06
     5 TBLite/Diag 0.40E+00    0.0     0.00003641       -32.8556391058 -3.64E-09
     6 TBLite/Diag 0.40E+00    0.0     0.00000391       -32.8556391058 -5.53E-11
     7 TBLite/Diag 0.40E+00    0.0     0.00000305       -32.8556391059 -9.24E-12
     8 TBLite/Diag 0.40E+00    0.0     0.00000152       -32.8556391059 -1.65E-11
     9 TBLite/Diag 0.40E+00    0.0     0.00000022       -32.8556391059 -2.13E-13
    10 TBLite/Diag 0.40E+00    0.0     5.5404E-09       -32.8556391059 -4.26E-14
    11 TBLite/Diag 0.40E+00    0.0     2.9325E-09       -32.8556391059  7.11E-15
    12 TBLite/Diag 0.40E+00    0.0     8.7966E-10       -32.8556391059 -7.11E-15

  *** SCF run converged in    12 steps ***


  Core Hamiltonian energy:                                    -33.40541980509251
  Repulsive potential energy:                                   0.51933775175236
  Electrostatic energy:                                         0.06738649060068
  Self-consistent dispersion energy:                           -0.04433870973653
  Non-self consistent dispersion energy:                        0.00739516660730
  Correction for halogen bonding:                               0.00000000000000
  Electronic entropic energy:                                  -0.00000000000000
  Fermi energy:                                                -0.32528912937463

  Total energy:                                               -32.85563910586871
  Total energy (extrapolated to T->0):                        -32.85563910586871

 ENERGY| Total FORCE_EVAL ( QS ) energy [hartree]            -32.855639105868711

 OPT| **************************************************************************
 OPT| Step number                                                             10
 OPT| Optimization method                                                   BFGS
 OPT| Total energy [hartree]                                      -32.8556391059
 OPT| Internal pressure [bar]                                    8932.6796986323
 OPT| Effective energy change [hartree]                            -0.0018586872
 OPT| Predicted energy change [hartree]                            -0.0012795394
 OPT| Scaling factor                                                0.0000000000
 OPT| Step size                                                     0.2118415120
 OPT| Trust radius                                                  0.4724315332
 OPT| Decrease in energy                                                     YES
 OPT| Used time [s]                                                        0.691
 OPT|
 OPT| Maximum step size                                             0.2118415120
 OPT| Convergence limit for maximum step size                       0.0030000000
 OPT| Maximum step size is converged                                          NO
 OPT|
 OPT| RMS step size                                                 0.0303341633
 OPT| Convergence limit for RMS step size                           0.0015000000
 OPT| RMS step size is converged                                              NO
 OPT|
 OPT| Maximum gradient                                              0.0064952991
 OPT| Convergence limit for maximum gradient                        0.0004500000
 OPT| Maximum gradient is converged                                           NO
 OPT|
 OPT| RMS gradient                                                  0.0027955279
 OPT| Convergence limit for RMS gradient                            0.0003000000
 OPT| RMS gradient is converged                                               NO
 OPT|
 OPT| Pressure deviation [bar]                                   8932.6796986323
 OPT| Pressure tolerance [bar]                                    100.0000000000
 OPT| Pressure is converged                                                   NO
 OPT| **************************************************************************
 OPT| Estimated peak process memory after this step [MiB]                    164

 --------------------------
 OPTIMIZATION STEP:     11
 --------------------------

 CELL| Volume [angstrom^3]:                                           250.315554
 CELL| Vector a [angstrom]:       9.330     0.000     0.000   |a| =     9.329948
 CELL| Vector b [angstrom]:      -0.000     5.872     0.000   |b| =     5.871763
 CELL| Vector c [angstrom]:       0.000    -0.000     4.569   |c| =     4.569199
 CELL| Angle (b,c), alpha [degree]:                                    90.000000
 CELL| Angle (a,c), beta  [degree]:                                    90.000000
 CELL| Angle (a,b), gamma [degree]:                                    90.000000
 CELL| Numerically orthorhombic:                                              NO
 CELL| Periodicity                                                           XYZ

 Extrapolation method: ASPC

 Number of electrons:                                                         60
 Number of occupied orbitals:                                                 30
 Number of molecular orbitals:                                                56

 Number of orbital functions:                                                 56
 Number of independent orbital functions:                                     56


 SCF WAVEFUNCTION OPTIMIZATION

  Step     Update method      Time    Convergence         Total energy    Change
  ------------------------------------------------------------------------------
     1 TBLite/Diag 0.40E+00    0.0     0.01816189       -32.8564439355 -3.29E+01
     2 TBLite/Diag 0.40E+00    0.0     0.00188405       -32.8564584031 -1.45E-05
     3 TBLite/Diag 0.40E+00    0.0     0.00150409       -32.8564578879  5.15E-07
     4 TBLite/Diag 0.40E+00    0.0     0.00068060       -32.8564603167 -2.43E-06
     5 TBLite/Diag 0.40E+00    0.0     0.00003028       -32.8564603188 -2.09E-09
     6 TBLite/Diag 0.40E+00    0.0     0.00000533       -32.8564603189 -8.57E-11
     7 TBLite/Diag 0.40E+00    0.0     0.00000269       -32.8564603189 -1.45E-11
     8 TBLite/Diag 0.40E+00    0.0     0.00000118       -32.8564603189 -9.83E-12
     9 TBLite/Diag 0.40E+00    0.0     0.00000013       -32.8564603189 -1.56E-13
    10 TBLite/Diag 0.40E+00    0.0     3.7169E-09       -32.8564603189  1.42E-14
    11 TBLite/Diag 0.40E+00    0.0     8.4881E-10       -32.8564603189 -1.42E-14

  *** SCF run converged in    11 steps ***


  Core Hamiltonian energy:                                    -33.39785755256933
  Repulsive potential energy:                                   0.51071811281907
  Electrostatic energy:                                         0.06691239208974
  Self-consistent dispersion energy:                           -0.04339307011879
  Non-self consistent dispersion energy:                        0.00715979885582
  Correction for halogen bonding:                               0.00000000000000
  Electronic entropic energy:                                  -0.00000000000000
  Fermi energy:                                                -0.32570867351158

  Total energy:                                               -32.85646031892350
  Total energy (extrapolated to T->0):                        -32.85646031892350

 ENERGY| Total FORCE_EVAL ( QS ) energy [hartree]            -32.856460318923503

 OPT| **************************************************************************
 OPT| Step number                                                             11
 OPT| Optimization method                                                   BFGS
 OPT| Total energy [hartree]                                      -32.8564603189
 OPT| Internal pressure [bar]                                    1981.0545791410
 OPT| Effective energy change [hartree]                            -0.0008212131
 OPT| Predicted energy change [hartree]                            -0.0006829468
 OPT| Scaling factor                                                0.0000000000
 OPT| Step size                                                     0.1750288085
 OPT| Trust radius                                                  0.4724315332
 OPT| Decrease in energy                                                     YES
 OPT| Used time [s]                                                        0.672
 OPT|
 OPT| Maximum step size                                             0.1750288085
 OPT| Convergence limit for maximum step size                       0.0030000000
 OPT| Maximum step size is converged                                          NO
 OPT|
 OPT| RMS step size                                                 0.0243378232
 OPT| Convergence limit for RMS step size                           0.0015000000
 OPT| RMS step size is converged                                              NO
 OPT|
 OPT| Maximum gradient                                              0.0038224035
 OPT| Convergence limit for maximum gradient                        0.0004500000
 OPT| Maximum gradient is converged                                           NO
 OPT|
 OPT| RMS gradient                                                  0.0020186397
 OPT| Convergence limit for RMS gradient                            0.0003000000
 OPT| RMS gradient is converged                                               NO
 OPT|
 OPT| Pressure deviation [bar]                                   1981.0545791410
 OPT| Pressure tolerance [bar]                                    100.0000000000
 OPT| Pressure is converged                                                   NO
 OPT| **************************************************************************
 OPT| Estimated peak process memory after this step [MiB]                    164

 --------------------------
 OPTIMIZATION STEP:     12
 --------------------------

 CELL| Volume [angstrom^3]:                                           252.665962
 CELL| Vector a [angstrom]:       9.329     0.000     0.000   |a| =     9.328517
 CELL| Vector b [angstrom]:      -0.000     5.863     0.000   |b| =     5.863288
 CELL| Vector c [angstrom]:      -0.000    -0.000     4.619   |c| =     4.619478
 CELL| Angle (b,c), alpha [degree]:                                    90.000000
 CELL| Angle (a,c), beta  [degree]:                                    90.000000
 CELL| Angle (a,b), gamma [degree]:                                    90.000000
 CELL| Numerically orthorhombic:                                              NO
 CELL| Periodicity                                                           XYZ

 Extrapolation method: ASPC

 Number of electrons:                                                         60
 Number of occupied orbitals:                                                 30
 Number of molecular orbitals:                                                56

 Number of orbital functions:                                                 56
 Number of independent orbital functions:                                     56


 SCF WAVEFUNCTION OPTIMIZATION

  Step     Update method      Time    Convergence         Total energy    Change
  ------------------------------------------------------------------------------
     1 TBLite/Diag 0.40E+00    0.0     0.01209525       -32.8567535701 -3.29E+01
     2 TBLite/Diag 0.40E+00    0.0     0.00108578       -32.8567582962 -4.73E-06
     3 TBLite/Diag 0.40E+00    0.0     0.00078716       -32.8567583080 -1.18E-08
     4 TBLite/Diag 0.40E+00    0.0     0.00032623       -32.8567589246 -6.17E-07
     5 TBLite/Diag 0.40E+00    0.0     0.00001850       -32.8567589259 -1.28E-09
     6 TBLite/Diag 0.40E+00    0.0     0.00000535       -32.8567589260 -8.19E-11
     7 TBLite/Diag 0.40E+00    0.0     0.00000146       -32.8567589260 -5.19E-12
     8 TBLite/Diag 0.40E+00    0.0     0.00000061       -32.8567589260 -2.27E-12
     9 TBLite/Diag 0.40E+00    0.0     0.00000011       -32.8567589260 -9.95E-14
    10 TBLite/Diag 0.40E+00    0.0     8.6697E-09       -32.8567589260 -7.11E-15
[...]
 OPT| Estimated peak process memory after this step [MiB]                    164

 --------------------------
 OPTIMIZATION STEP:     83
 --------------------------

 CELL| Volume [angstrom^3]:                                           200.446709
 CELL| Vector a [angstrom]:       8.879     0.000     0.000   |a| =     8.878501
 CELL| Vector b [angstrom]:       0.000     5.476     0.000   |b| =     5.476321
 CELL| Vector c [angstrom]:      -0.000    -0.000     4.123   |c| =     4.122592
 CELL| Angle (b,c), alpha [degree]:                                    90.000003
 CELL| Angle (a,c), beta  [degree]:                                    90.000000
 CELL| Angle (a,b), gamma [degree]:                                    90.000000
 CELL| Numerically orthorhombic:                                              NO
 CELL| Periodicity                                                           XYZ

 Extrapolation method: ASPC

 Number of electrons:                                                         60
 Number of occupied orbitals:                                                 30
 Number of molecular orbitals:                                                56

 Number of orbital functions:                                                 56
 Number of independent orbital functions:                                     56


 SCF WAVEFUNCTION OPTIMIZATION

  Step     Update method      Time    Convergence         Total energy    Change
  ------------------------------------------------------------------------------
     1 TBLite/Diag 0.40E+00    0.0     0.00015918       -32.8939421194 -3.29E+01
     2 TBLite/Diag 0.40E+00    0.0     0.00000869       -32.8939421198 -3.77E-10
     3 TBLite/Diag 0.40E+00    0.0     0.00000688       -32.8939421197  4.36E-11
     4 TBLite/Diag 0.40E+00    0.0     0.00000410       -32.8939421198 -1.02E-10
     5 TBLite/Diag 0.40E+00    0.0     0.00000090       -32.8939421198 -9.59E-13
     6 TBLite/Diag 0.40E+00    0.0     0.00000034       -32.8939421198 -1.07E-12
     7 TBLite/Diag 0.40E+00    0.0     0.00000006       -32.8939421198  2.13E-14
     8 TBLite/Diag 0.40E+00    0.0     0.00000003       -32.8939421198 -1.42E-14
     9 TBLite/Diag 0.40E+00    0.0     3.5269E-09       -32.8939421198 -2.84E-14
    10 TBLite/Diag 0.40E+00    0.0     4.5479E-10       -32.8939421198  2.13E-14

  *** SCF run converged in    10 steps ***


  Core Hamiltonian energy:                                    -33.42187116586131
  Repulsive potential energy:                                   0.50328983441368
  Electrostatic energy:                                         0.06943246424786
  Self-consistent dispersion energy:                           -0.05592077141371
  Non-self consistent dispersion energy:                        0.01112751878020
  Correction for halogen bonding:                               0.00000000000000
  Electronic entropic energy:                                  -0.00000000000000
  Fermi energy:                                                -0.32876515627144

  Total energy:                                               -32.89394211983329
  Total energy (extrapolated to T->0):                        -32.89394211983329

 ENERGY| Total FORCE_EVAL ( QS ) energy [hartree]            -32.893942119833291

 OPT| **************************************************************************
 OPT| Step number                                                             83
 OPT| Optimization method                                                   BFGS
 OPT| Total energy [hartree]                                      -32.8939421198
 OPT| Internal pressure [bar]                                      -4.6033028708
 OPT| Effective energy change [hartree]                            -0.0000000985
 OPT| Predicted energy change [hartree]                            -0.0000000768
 OPT| Scaling factor                                                0.5691331232
 OPT| Step size                                                     0.0007236793
 OPT| Trust radius                                                  0.4724315332
 OPT| Decrease in energy                                                      NO
 OPT| Used time [s]                                                        0.464
 OPT|
 OPT| Maximum step size                                             0.0007236793
 OPT| Convergence limit for maximum step size                       0.0030000000
 OPT| Maximum step size is converged                                         YES
 OPT|
 OPT| RMS step size                                                 0.0001810406
 OPT| Convergence limit for RMS step size                           0.0015000000
 OPT| RMS step size is converged                                             YES
 OPT|
 OPT| Maximum gradient                                              0.0000449446
 OPT| Convergence limit for maximum gradient                        0.0004500000
 OPT| Maximum gradient is converged                                          YES
 OPT|
 OPT| RMS gradient                                                  0.0000153917
 OPT| Convergence limit for RMS gradient                            0.0003000000
 OPT| RMS gradient is converged                                              YES
 OPT|
 OPT| Pressure deviation [bar]                                     -4.6033028708
 OPT| Pressure tolerance [bar]                                    100.0000000000
 OPT| Pressure is converged                                                  YES
 OPT| **************************************************************************
 OPT| Estimated peak process memory after this step [MiB]                    164

 *******************************************************************************
 ***                    GEOMETRY OPTIMIZATION COMPLETED                      ***
 *******************************************************************************

 write_final_structure: Optimization converged, writing XYZ file gladly:
  pyrazine_GFN2_gamma_cell_opt-FINAL-1_83.xyz

 write_final_structure: Optimization converged, writing CIF file gladly:
  pyrazine_GFN2_gamma_cell_opt-FINAL-1_83.cif

 write_final_structure: Done!

                    Reevaluating energy at the minimum

 CELL| Volume [angstrom^3]:                                           200.446709
 CELL| Vector a [angstrom]:       8.879     0.000     0.000   |a| =     8.878501
 CELL| Vector b [angstrom]:       0.000     5.476     0.000   |b| =     5.476321
 CELL| Vector c [angstrom]:      -0.000    -0.000     4.123   |c| =     4.122592
 CELL| Angle (b,c), alpha [degree]:                                    90.000003
 CELL| Angle (a,c), beta  [degree]:                                    90.000000
 CELL| Angle (a,b), gamma [degree]:                                    90.000000
 CELL| Numerically orthorhombic:                                              NO
 CELL| Periodicity                                                           XYZ

 Extrapolation method: ASPC

 Number of electrons:                                                         60
 Number of occupied orbitals:                                                 30
 Number of molecular orbitals:                                                56

 Number of orbital functions:                                                 56
 Number of independent orbital functions:                                     56


 SCF WAVEFUNCTION OPTIMIZATION

  Step     Update method      Time    Convergence         Total energy    Change
  ------------------------------------------------------------------------------
     1 TBLite/Diag 0.40E+00    0.0     3.9983E-10       -32.8939421198 -3.29E+01

  *** SCF run converged in     1 steps ***


  Core Hamiltonian energy:                                    -33.42187116589134
  Repulsive potential energy:                                   0.50328983441368
  Electrostatic energy:                                         0.06943246427855
  Self-consistent dispersion energy:                           -0.05592077141437
  Non-self consistent dispersion energy:                        0.01112751878020
  Correction for halogen bonding:                               0.00000000000000
  Electronic entropic energy:                                  -0.00000000000000
  Fermi energy:                                                -0.32876515626029

  Total energy:                                               -32.89394211983328
  Total energy (extrapolated to T->0):                        -32.89394211983328

 ENERGY| Total FORCE_EVAL ( QS ) energy [hartree]            -32.893942119833284

 -------------------------------------------------------------------------------
 -                                                                             -
 -                                DBCSR STATISTICS                             -
 -                                                                             -
 -------------------------------------------------------------------------------
 COUNTER                                    TOTAL       BLAS       SMM       ACC
 flops     1 x    24 x     1              1259520       0.0%    100.0%      0.0%     
 flops     1 x    32 x     1              1679360       0.0%    100.0%      0.0%     
 flops     1 x     1 x    56              4721472       0.0%    100.0%      0.0%     
 flops     1 x    24 x     4              7557120       0.0%    100.0%      0.0%     
 flops     4 x    24 x     1              7557120       0.0%    100.0%      0.0%     
 flops     1 x    32 x     4             10076160       0.0%    100.0%      0.0%     
 flops     4 x    32 x     1             10076160       0.0%    100.0%      0.0%     
 flops     1 x     4 x    56             25181184       0.0%    100.0%      0.0%     
 flops     4 x     1 x    56             25181184       0.0%    100.0%      0.0%     
 flops     4 x    24 x     4             45342720       0.0%    100.0%      0.0%     
 flops     4 x    32 x     4             60456960       0.0%    100.0%      0.0%     
 flops     4 x     4 x    56            163677696       0.0%    100.0%      0.0%     
 flops inhomo. stacks                           0       0.0%      0.0%      0.0%
 flops total                       362.766656E+06       0.0%    100.0%      0.0%
 flops max/rank                    362.766656E+06       0.0%    100.0%      0.0%
 matmuls inhomo. stacks                         0       0.0%      0.0%      0.0%
 matmuls total                             573910       0.0%    100.0%      0.0%
 number of processed stacks                  7964       0.0%    100.0%      0.0%
 average stack size                                     0.0      72.1       0.0
 marketing flops                   364.340480E+06
 -------------------------------------------------------------------------------
 # multiplications                           1581
 max memory usage/rank              13.670449E+09
 # max total images/rank                        1
 # max 3D layers                                1
 # MPI messages exchanged                       0
 -------------------------------------------------------------------------------
 -                                                                             -
 -                      DBCSR MESSAGE PASSING PERFORMANCE                      -
 -                                                                             -
 -------------------------------------------------------------------------------
 ROUTINE             CALLS      AVE VOLUME [Bytes]
 MP_Bcast               13                     12.
 MP_Allreduce         7128                      8.
 MP_Alltoall         51418                  17210.
 MP_ISend             6324                   1734.
 MP_IRecv             6324                   1734.
 -------------------------------------------------------------------------------

 -------------------------------------------------------------------------------
 -                                                                             -
 -                          OFFLOAD MEMPOOL STATISTICS                         -
 -                                                                             -
 -------------------------------------------------------------------------------
 Memory consumption                Number of allocations  Used [MiB]  Size [MiB]
 Device                                                2           0           0
 Host                                                  2           0           0
 -------------------------------------------------------------------------------

 MEMORY| Estimated peak process memory [MiB]                                 164

 -------------------------------------------------------------------------------
 -                                                                             -
 -                         MESSAGE PASSING PERFORMANCE                         -
 -                                                                             -
 -------------------------------------------------------------------------------

 ROUTINE             CALLS      AVE VOLUME [Bytes]
 MP_Group               84
 MP_Bcast             2340                    229.
 MP_Allreduce        36772                    151.
 MP_Sync              1254
 MP_comm_split        1170
 -------------------------------------------------------------------------------


 -------------------------------------------------------------------------------
 -                                                                             -
 -                           R E F E R E N C E S                               -
 -                                                                             -
 -------------------------------------------------------------------------------
 
 CP2K version 2026.1 (Development Version), the CP2K developers group (2026).
 CP2K is freely available from https://www.cp2k.org/ .
 
 M. Iannuzzi, J. Wilhelm, F. Stein, A. Bussy, H. Elgabarty, D. Golze, A. Hehn, 
 M. Graml, S. Marek, B. Sertcan Gökmen, C. Schran, H. Forbert, R. Z. 
 Khaliullin, A. Kozhevnikov, M. Taillefumier, R. Meli, V. V. Rybkin, M. Brehm, 
 R. Schade, O. Schütt, J. V. Pototschnig, H. Mirhosseini, A. Knüpfer, D. Marx, 
 M. Krack, J. Hutter, T. D. Kühne.
 J. Phys. Chem. B 130, 1237-1310 (2026).
 The CP2K Program Package Made Simple.
 https://doi.org/10.1021/acs.jpcb.5c05851

 A. Katbashev, M. Stahn, T. Rose, V. Alizadeh, M. Friede, C. Plett, P. 
 Steinbach, S. Ehlert.
 J. Phys. Chem. A 129, 2667-2682 (2025).
 Overview on Building Blocks and Applications of Efficient and Robust Extended 
 Tight Binding.
 https://doi.org/10.1021/acs.jpca.4c08263

 T. D. Kühne, M. Iannuzzi, M. Del Ben, V. V. Rybkin, P. Seewald, F. Stein, T. 
 Laino, R. Z. Khaliullin, O. Schütt, F. Schiffmann, D. Golze, J. Wilhelm, S. 
 Chulkov, M. H. Bani-Hashemian, V. Weber, U. Borstnik, M. Taillefumier, A. S. 
 Jakobovits, A. Lazzaro, H. Pabst, T. Müller, R. Schade, M. Guidon, S. 
 Andermatt, N. Holmberg, G. K. Schenter, A. Hehn, A. Bussy, F. Belleflamme, G. 
 Tabacchi, A. Glöß, M. Lass, I. Bethune, C. J. Mundy, C. Plessl, M. Watkins, 
 J. VandeVondele, M. Krack, J. Hutter.
 J. Chem. Phys. 152, 194103 (2020).
 CP2K: An electronic structure and molecular dynamics software package - 
 Quickstep: Efficient and accurate electronic structure calculations.
 https://doi.org/10.1063/5.0007045

 P. Pracht, E. Caldeweyher, S. Ehlert, S. Grimme.
 ChemRxiv, (2019).
 A Robust Non-Self-Consistent Tight-Binding Quantum Chemistry Method for large 
 Molecules.
 https://doi.org/10.26434/chemrxiv.8326202.v1

 S. Grimme, C. Bannwarth, P. Shushkov.
 J. Chem. Theory Comput. 13, 1989 (2017).
 A Robust and Accurate Tight-Binding Quantum Chemical Method for Structures, 
 Vibrational Frequencies, and Noncovalent Interactions of Large Molecular 
 Systems Parametrized for All spd-Block Elements (Z = 1-86).
 https://doi.org/10.1021/acs.jctc.7b00118

 O. Schuett, P. Messmer, J. Hutter, J. VandeVondele.
 Electronic Structure Calculations on Graphics Processing Units, 173-190 (2016).
 GPU-Accelerated Sparse Matrix-Matrix Multiplication for Linear Scaling Density 
 Functional Theory.
 https://doi.org/10.1002/9781118670712.ch8

 A. Heinecke, G. Henry, M. Hutchinson, H. Pabst.
 Proceedings of Intl. Supercomputing Conference, 981-991 (2016).
 LIBXSMM: Accelerating Small Matrix Multiplications by Runtime Code Generation.
 https://doi.org/10.1109/SC.2016.83

 U. Borstnik, J. VandeVondele, V. Weber, J. Hutter.
 Parallel Comput. 40, 47-58 (2014).
 Sparse matrix multiplication: The distributed block-compressed sparse row 
 library.
 https://doi.org/10.1016/j.parco.2014.03.012

 T. D. Kühne, M. Krack, F. R. Mohamed, M. Parrinello.
 Phys. Rev. Lett. 98, 066401 (2007).
 Efficient and accurate Car-Parrinello-like approach to Born-Oppenheimer 
 molecular dynamics.
 https://doi.org/10.1103/PhysRevLett.98.066401

 M. Frigo, S. G. Johnson.
 Proc. IEEE 93, 216-231 (2005).
 The design and implementation of FFTW3.
 https://doi.org/10.1109/JPROC.2004.840301

 J. Kolafa.
 J. Comput. Chem. 25, 335-342 (2004).
 Time-reversible always stable predictor-corrector method for molecular dynamics 
 of polarizable molecules.
 https://doi.org/10.1002/jcc.10385

 N. D. Mermin.
 Phys. Rev. 137, A1441-A1443 (1965).
 Thermal Properties of the Inhomogeneous Electron Gas.
 https://doi.org/10.1103/PhysRev.137.A1441


 -------------------------------------------------------------------------------
 -                                                                             -
 -                                T I M I N G                                  -
 -                                                                             -
 -------------------------------------------------------------------------------
 SUBROUTINE                       CALLS  ASD         SELF TIME        TOTAL TIME
                                MAXIMUM       AVERAGE  MAXIMUM  AVERAGE  MAXIMUM
 CP2K                                 1  1.0    0.002    0.002   64.424   64.424
 cp_cell_opt                          1  2.0    0.000    0.000   64.419   64.419
 geoopt_bfgs                          1  3.0    0.011    0.011   64.419   64.419
 cp_eval_at                          85  4.0    0.011    0.011   64.273   64.273
 qs_forces                           84  5.0    0.005    0.005   64.148   64.148
 build_tblite_matrices              169  7.0   53.032   53.032   54.416   54.416
 qs_energies                         85  6.0    0.003    0.003   19.442   19.442
 qs_energies_init_hamiltonians       85  7.0    0.000    0.000   15.877   15.877
 rebuild_ks_matrix                 1087  9.8    0.001    0.001    6.899    6.899
 build_tblite_ks_matrix            1087 10.8    6.873    6.873    6.898    6.898
 qs_ks_update_qs_env_forces          84  6.0    0.000    0.000    6.188    6.188
 scf_env_do_scf                      85  7.0    0.001    0.001    3.066    3.066
 scf_env_do_scf_inner_loop         1003  8.0    0.385    0.385    3.060    3.060
 qs_scf_new_mos                    1003  9.0    0.005    0.005    1.814    1.814
 tb_get_multipole                   169  8.0    1.134    1.134    1.329    1.329
 -------------------------------------------------------------------------------

 The number of warnings for this run is : 0
 
 -------------------------------------------------------------------------------
  **** **** ******  **  PROGRAM ENDED AT                 2026-05-23 22:48:48.434
 ***** ** ***  *** **   PROGRAM RAN ON                                spark-c86c
 **    ****   ******    PROGRAM RAN BY                                  kuehne88
 ***** **    ** ** **   PROGRAM PROCESS ID                               2270439
  **** **  *******  **  PROGRAM STOPPED IN /home/kuehne88/periodic-gfn2-benchmar
                                           ks/X23b/runs/cellopt_gamma/GFN2/pyraz
                                           ine_GFN2_gamma_cellopt
