 DBCSR| CPU Multiplication driver                                           XSMM (U)
 DBCSR| Multrec recursion limit                                              512 (U)
 DBCSR| Multiplication stack size                                           1000 (D)
 DBCSR| Maximum elements for images                                    UNLIMITED (U)
 DBCSR| Multiplicative factor virtual images                                   1 (U)
 DBCSR| Use multiplication densification                                       T (D)
 DBCSR| Multiplication size stacks                                             3 (U)
 DBCSR| Use memory pool for CPU allocation                                     F (U)
 DBCSR| Number of 3D layers                                               SINGLE (U)
 DBCSR| Use MPI memory allocation                                              F (U)
 DBCSR| Use RMA algorithm                                                      F (U)
 DBCSR| Use Communication thread                                               T (U)
 DBCSR| Communication thread load                                             87 (D)
 DBCSR| MPI: My process id                                                     0
 DBCSR| MPI: Number of processes                                               1
 DBCSR| OMP: Current number of threads                                         1
 DBCSR| OMP: Max number of threads                                             1
 DBCSR| Split modifier for TAS multiplication algorithm                  1.0E+00 (U)


  **** **** ******  **  PROGRAM STARTED AT               2026-05-23 22:46:57.414
 ***** ** ***  *** **   PROGRAM STARTED ON                            spark-c86c
 **    ****   ******    PROGRAM STARTED BY                              kuehne88
 ***** **    ** ** **   PROGRAM PROCESS ID                               2266311
  **** **  *******  **  PROGRAM STARTED IN /home/kuehne88/periodic-gfn2-benchmar
                                           ks/X23b/runs/cellopt_gamma/GFN1/pyraz
                                           ine_GFN1_gamma_cellopt

 CP2K| version string:                 CP2K version 2026.1 (Development Version)
 CP2K| source code revision number:                                   0622d442e4
 CP2K| cp2kflags: omp fftw3 libxc parallel scalapack mpi_f08 xsmm spglib libdftd
 CP2K|            4 dftd4_v3 mctc-lib tblite
 CP2K| is freely available from                            https://www.cp2k.org/
 CP2K| Program compiled at                                   2026-05-23 22:05:08
 CP2K| Program compiled on                                            spark-c86c
 CP2K| Program compiled for                                              aarch64
 CP2K| Data directory path    /home/kuehne88/cp2k-master-tblite-20260523/install
 CP2K| Input file name                           pyrazine_GFN1_gamma_cellopt.inp

 GLOBAL| Force Environment number                                              1
 GLOBAL| Basis set file name                                           BASIS_SET
 GLOBAL| Potential file name                                           POTENTIAL
 GLOBAL| MM Potential file name                                     MM_POTENTIAL
 GLOBAL| Coordinate file name                                      __STD_INPUT__
 GLOBAL| Method name                                                        CP2K
 GLOBAL| Project name                               pyrazine_GFN1_gamma_cell_opt
 GLOBAL| Run type                                                       CELL_OPT
 GLOBAL| FFT library                                                       FFTW3
 GLOBAL| Diagonalization library                                       ScaLAPACK
 GLOBAL| Cholesky decomposition library                                ScaLAPACK
 GLOBAL| DGEMM library                                                      BLAS
 GLOBAL| Direct generalized diagonalization requested                          F
 GLOBAL| Orthonormality check for eigenvectors                          DISABLED
 GLOBAL| Matrix multiplication library                                 ScaLAPACK
 GLOBAL| All-to-all communication in single precision                          F
 GLOBAL| FFTs using library dependent lengths                                  F
 GLOBAL| Grid backend                                                       AUTO
 GLOBAL| Global print level                                                  LOW
 GLOBAL| MPI I/O enabled                                                       T
 GLOBAL| Total number of message passing processes                             1
 GLOBAL| Number of distributed systems (nodes)                                 1
 GLOBAL| Number of threads for this process                                    1
 GLOBAL| This output is from process                                           0
 GLOBAL| OpenMP stack size per thread (OMP_STACKSIZE)                    default
 GLOBAL| CPU model name                                                  UNKNOWN
 GLOBAL| CPUID                                                              2200
 GLOBAL| Compiled for CPUID                                                 2000

 *** HINT in environment.F:970 :: The compiler target flags (arm_arch64)   ***
 *** used to build this binary cannot exploit all extensions of this CPU   ***
 *** model (arm_sve256). Consider compiler target flags as part of FCFLAGS ***
 *** and CFLAGS (ARCH file).                                               ***


 MEMORY| system memory details [Kb]
 MEMORY|                        rank 0           min           max       average
 MEMORY| MemTotal            125508532     125508532     125508532     125508532
 MEMORY| MemFree             102583952     102583952     102583952     102583952
 MEMORY| Buffers                867528        867528        867528        867528
 MEMORY| Cached               13976056      13976056      13976056      13976056
 MEMORY| Slab                  1591116       1591116       1591116       1591116
 MEMORY| SReclaimable           912872        912872        912872        912872
 MEMORY| MemLikelyFree       118340408     118340408     118340408     118340408


 GENERATE|  Preliminary Number of Bonds generated:                             0
 GENERATE|  Achieved consistency in connectivity generation.


                  #####   #####        #     #   #     #       #          
                 #     # #     #      #    ##### #     #   # #####  ####  
                 #     # #           #       #   ###   #       #   #    # 
                 #     #  #####     #        #   #  #  #   #   #   ###### 
                 #   # #       #   #         #   #   # #   #   #   #      
                 #    #  #     #  #          #   #  #  # # #   #    #   # 
                  #### #  #####  #           #   ###   ##  #   #     ###  

                                   GFN1-xTB  
                                 Version 0.0                       
                            Johann V. Pototschnig                  



 TOTAL NUMBERS AND MAXIMUM NUMBERS

  Total number of            - Atomic kinds:                                   3
                             - Atoms:                                         20
                             - Shell sets:                                    40
                             - Shells:                                        40
                             - Primitive Cartesian functions:                232
                             - Cartesian basis functions:                     64
                             - Spherical basis functions:                     64

  Maximum angular momentum of the orbital basis functions:                     1


 SCF PARAMETERS         Density guess:                                     MOPAC
                        --------------------------------------------------------
                        max_scf:                                             300
                        max_scf_history:                                       0
                        max_diis:                                              4
                        --------------------------------------------------------
                        eps_scf:                                        1.00E-09
                        eps_scf_history:                                0.00E+00
                        eps_diis:                                       1.00E-01
                        eps_eigval:                                     1.00E-05
                        --------------------------------------------------------
                        level_shift [a.u.]:                             0.000000
                        added MOs                                        34    0
                        --------------------------------------------------------
                        Mixing method:                           DIRECT_P_MIXING
                        --------------------------------------------------------
                        Smear method:                                FERMI_DIRAC
                        Electronic temperature [K]:                        300.0
                        Electronic temperature [a.u.]:                  9.50E-04
                        Accuracy threshold:                             1.00E-06
                        --------------------------------------------------------
                        No outer SCF

 CELL_OPT| Pressure tolerance [bar]:                                       100.0
 CELL_OPT| Keep volume of cell:                                               NO
 CELL_OPT| Keep angles between the cell vectors:                              NO
 CELL_OPT| Keep cell symmetry:                                                NO
 CELL_OPT| Constraint:                                                      NONE

 BFGS| Use rational function optimization for step estimation:                NO
 BFGS| Use model Hessian for initial guess:                                   NO
 BFGS| Restart Hessian:                                                       NO
 BFGS| Trust radius:                                                       0.472

 *******************************************************************************
 ***                     STARTING   CELL   OPTIMIZATION                      ***
 ***                                   BFGS                                  ***
 *******************************************************************************

 CELL| Volume [angstrom^3]:                                           203.639816
 CELL| Vector a [angstrom]:       9.325     0.000     0.000   |a| =     9.325000
 CELL| Vector b [angstrom]:       0.000     5.850     0.000   |b| =     5.850000
 CELL| Vector c [angstrom]:       0.000     0.000     3.733   |c| =     3.733000
 CELL| Angle (b,c), alpha [degree]:                                    90.000000
 CELL| Angle (a,c), beta  [degree]:                                    90.000000
 CELL| Angle (a,b), gamma [degree]:                                    90.000000
 CELL| Numerically orthorhombic:                                             YES
 CELL| Periodicity                                                           XYZ

 Extrapolation method: initial_guess

 Number of electrons:                                                         60
 Number of occupied orbitals:                                                 30
 Number of molecular orbitals:                                                64

 Number of orbital functions:                                                 64
 Number of independent orbital functions:                                     64


 SCF WAVEFUNCTION OPTIMIZATION

  Step     Update method      Time    Convergence         Total energy    Change
  ------------------------------------------------------------------------------
     1 TBLite/Diag 0.40E+00    0.0     1.41346266       -33.5163713060 -3.35E+01
     2 TBLite/Diag 0.40E+00    0.0     0.28036268       -33.7545001602 -2.38E-01
     3 TBLite/Diag 0.40E+00    0.0     0.03106501       -33.7555340854 -1.03E-03
     4 TBLite/Diag 0.40E+00    0.0     0.01547936       -33.7562363171 -7.02E-04
     5 TBLite/Diag 0.40E+00    0.0     0.00200586       -33.7562598409 -2.35E-05
     6 TBLite/Diag 0.40E+00    0.0     0.00051108       -33.7562608652 -1.02E-06
     7 TBLite/Diag 0.40E+00    0.0     0.00001510       -33.7562608656 -4.81E-10
     8 TBLite/Diag 0.40E+00    0.0     0.00000309       -33.7562608657 -3.56E-11
     9 TBLite/Diag 0.40E+00    0.0     5.4957E-09       -33.7562608657 -6.39E-14
    10 TBLite/Diag 0.40E+00    0.0     8.9373E-13       -33.7562608657  3.55E-14

  *** SCF run converged in    10 steps ***


  Core Hamiltonian energy:                                    -34.52086881132853
  Repulsive potential energy:                                   0.74849177813221
  Electrostatic energy:                                         0.05523082861926
  Self-consistent dispersion energy:                            0.00000000000000
  Non-self consistent dispersion energy:                       -0.03911466109084
  Correction for halogen bonding:                               0.00000000000000
  Electronic entropic energy:                                  -0.00000000000000
  Fermi energy:                                                -0.33903403170667

  Total energy:                                               -33.75626086566790
  Total energy (extrapolated to T->0):                        -33.75626086566790

 ENERGY| Total FORCE_EVAL ( QS ) energy [hartree]            -33.756260865667905

 OPT| **************************************************************************
 OPT| Step number                                                              0
 OPT| Optimization method                                                   BFGS
 OPT| Total energy [hartree]                                      -33.7562608657
 OPT| Internal pressure [bar]                                  180436.9964564925
 OPT| Used time [s]                                                        0.205
 OPT| **************************************************************************
 OPT| Estimated peak process memory [MiB]                                    166

 --------------------------
 OPTIMIZATION STEP:      1
 --------------------------

 CELL| Volume [angstrom^3]:                                           208.417256
 CELL| Vector a [angstrom]:       9.342     0.000     0.000   |a| =     9.342028
 CELL| Vector b [angstrom]:       0.000     5.922     0.000   |b| =     5.922057
 CELL| Vector c [angstrom]:       0.000     0.000     3.767   |c| =     3.767211
 CELL| Angle (b,c), alpha [degree]:                                    90.000000
 CELL| Angle (a,c), beta  [degree]:                                    90.000000
 CELL| Angle (a,b), gamma [degree]:                                    90.000000
 CELL| Numerically orthorhombic:                                             YES
 CELL| Periodicity                                                           XYZ

 Extrapolation method: ASPC

 Number of electrons:                                                         60
 Number of occupied orbitals:                                                 30
 Number of molecular orbitals:                                                64

 Number of orbital functions:                                                 64
 Number of independent orbital functions:                                     64


 SCF WAVEFUNCTION OPTIMIZATION

  Step     Update method      Time    Convergence         Total energy    Change
  ------------------------------------------------------------------------------
     1 TBLite/Diag 0.40E+00    0.0     0.12233157       -33.8672648113 -3.39E+01
     2 TBLite/Diag 0.40E+00    0.0     0.00980170       -33.8678789869 -6.14E-04
     3 TBLite/Diag 0.40E+00    0.0     0.00317822       -33.8679238724 -4.49E-05
     4 TBLite/Diag 0.40E+00    0.0     0.00019755       -33.8679238285  4.39E-08
     5 TBLite/Diag 0.40E+00    0.0     0.00026507       -33.8679241108 -2.82E-07
     6 TBLite/Diag 0.40E+00    0.0     0.00000154       -33.8679241108 -1.00E-11
     7 TBLite/Diag 0.40E+00    0.0     6.6844E-09       -33.8679241108  0.00E+00
     8 TBLite/Diag 0.40E+00    0.0     1.4809E-09       -33.8679241108  7.11E-15
     9 TBLite/Diag 0.40E+00    0.0     9.7866E-13       -33.8679241108 -7.11E-15

  *** SCF run converged in     9 steps ***


  Core Hamiltonian energy:                                    -34.45204098748468
  Repulsive potential energy:                                   0.56900860453267
  Electrostatic energy:                                         0.05221723835218
  Self-consistent dispersion energy:                            0.00000000000000
  Non-self consistent dispersion energy:                       -0.03710896619952
  Correction for halogen bonding:                               0.00000000000000
  Electronic entropic energy:                                  -0.00000000000000
  Fermi energy:                                                -0.34128774847597

  Total energy:                                               -33.86792411079935
  Total energy (extrapolated to T->0):                        -33.86792411079935

 ENERGY| Total FORCE_EVAL ( QS ) energy [hartree]            -33.867924110799351

 OPT| **************************************************************************
 OPT| Step number                                                              1
 OPT| Optimization method                                                   BFGS
 OPT| Total energy [hartree]                                      -33.8679241108
 OPT| Internal pressure [bar]                                  108102.1733478944
 OPT| Effective energy change [hartree]                            -0.1116632451
 OPT| Predicted energy change [hartree]                            -0.1947078948
 OPT| Scaling factor                                                0.0000000000
 OPT| Step size                                                     0.1361673681
 OPT| Trust radius                                                  0.4724315332
 OPT| Decrease in energy                                                     YES
 OPT| Used time [s]                                                        0.206
 OPT|
 OPT| Maximum step size                                             0.1361673681
 OPT| Convergence limit for maximum step size                       0.0030000000
 OPT| Maximum step size is converged                                          NO
 OPT|
 OPT| RMS step size                                                 0.0768130148
 OPT| Convergence limit for RMS step size                           0.0015000000
 OPT| RMS step size is converged                                              NO
 OPT|
 OPT| Maximum gradient                                              0.0805049145
 OPT| Convergence limit for maximum gradient                        0.0004500000
 OPT| Maximum gradient is converged                                           NO
 OPT|
 OPT| RMS gradient                                                  0.0344007587
 OPT| Convergence limit for RMS gradient                            0.0003000000
 OPT| RMS gradient is converged                                               NO
 OPT|
 OPT| Pressure deviation [bar]                                 108102.1733478944
 OPT| Pressure tolerance [bar]                                    100.0000000000
 OPT| Pressure is converged                                                   NO
 OPT| **************************************************************************
 OPT| Estimated peak process memory after this step [MiB]                    166

 --------------------------
 OPTIMIZATION STEP:      2
 --------------------------

 CELL| Volume [angstrom^3]:                                           210.945244
 CELL| Vector a [angstrom]:       9.361     0.000     0.000   |a| =     9.360581
 CELL| Vector b [angstrom]:       0.000     5.949     0.000   |b| =     5.948602
 CELL| Vector c [angstrom]:       0.000     0.000     3.788   |c| =     3.788367
 CELL| Angle (b,c), alpha [degree]:                                    90.000000
 CELL| Angle (a,c), beta  [degree]:                                    90.000000
 CELL| Angle (a,b), gamma [degree]:                                    90.000000
 CELL| Numerically orthorhombic:                                             YES
 CELL| Periodicity                                                           XYZ

 Extrapolation method: ASPC

 Number of electrons:                                                         60
 Number of occupied orbitals:                                                 30
 Number of molecular orbitals:                                                64

 Number of orbital functions:                                                 64
 Number of independent orbital functions:                                     64


 SCF WAVEFUNCTION OPTIMIZATION

  Step     Update method      Time    Convergence         Total energy    Change
  ------------------------------------------------------------------------------
     1 TBLite/Diag 0.40E+00    0.0     0.05661065       -33.9004259192 -3.39E+01
     2 TBLite/Diag 0.40E+00    0.0     0.00199665       -33.9004544409 -2.85E-05
     3 TBLite/Diag 0.40E+00    0.0     0.00060916       -33.9004561560 -1.72E-06
     4 TBLite/Diag 0.40E+00    0.0     0.00010369       -33.9004561698 -1.39E-08
     5 TBLite/Diag 0.40E+00    0.0     0.00008490       -33.9004561988 -2.90E-08
     6 TBLite/Diag 0.40E+00    0.0     0.00000009       -33.9004561988  4.26E-14
     7 TBLite/Diag 0.40E+00    0.0     3.5033E-09       -33.9004561988 -7.11E-14
     8 TBLite/Diag 0.40E+00    0.0     2.9539E-11       -33.9004561988  4.97E-14

  *** SCF run converged in     8 steps ***


  Core Hamiltonian energy:                                    -34.42570318971877
  Repulsive potential energy:                                   0.51081862772342
  Electrostatic energy:                                         0.05171278942620
  Self-consistent dispersion energy:                            0.00000000000000
  Non-self consistent dispersion energy:                       -0.03728442626310
  Correction for halogen bonding:                               0.00000000000000
  Electronic entropic energy:                                  -0.00000000000000
  Fermi energy:                                                -0.33562037126214

  Total energy:                                               -33.90045619883225
  Total energy (extrapolated to T->0):                        -33.90045619883225

 ENERGY| Total FORCE_EVAL ( QS ) energy [hartree]            -33.900456198832252

 OPT| **************************************************************************
 OPT| Step number                                                              2
 OPT| Optimization method                                                   BFGS
 OPT| Total energy [hartree]                                      -33.9004561988
 OPT| Internal pressure [bar]                                   52835.5851033428
 OPT| Effective energy change [hartree]                            -0.0325320880
 OPT| Predicted energy change [hartree]                            -0.0269329362
 OPT| Scaling factor                                                0.0000000000
 OPT| Step size                                                     0.0578739598
 OPT| Trust radius                                                  0.4724315332
 OPT| Decrease in energy                                                     YES
 OPT| Used time [s]                                                        0.205
 OPT|
 OPT| Maximum step size                                             0.0578739598
 OPT| Convergence limit for maximum step size                       0.0030000000
 OPT| Maximum step size is converged                                          NO
 OPT|
 OPT| RMS step size                                                 0.0243803685
 OPT| Convergence limit for RMS step size                           0.0015000000
 OPT| RMS step size is converged                                              NO
 OPT|
 OPT| Maximum gradient                                              0.0381438135
 OPT| Convergence limit for maximum gradient                        0.0004500000
 OPT| Maximum gradient is converged                                           NO
 OPT|
 OPT| RMS gradient                                                  0.0115812022
 OPT| Convergence limit for RMS gradient                            0.0003000000
 OPT| RMS gradient is converged                                               NO
 OPT|
 OPT| Pressure deviation [bar]                                  52835.5851033428
 OPT| Pressure tolerance [bar]                                    100.0000000000
 OPT| Pressure is converged                                                   NO
 OPT| **************************************************************************
 OPT| Estimated peak process memory after this step [MiB]                    167

 --------------------------
 OPTIMIZATION STEP:      3
 --------------------------

 CELL| Volume [angstrom^3]:                                           213.732699
 CELL| Vector a [angstrom]:       9.366     0.000     0.000   |a| =     9.366270
 CELL| Vector b [angstrom]:       0.000     5.978     0.000   |b| =     5.977623
 CELL| Vector c [angstrom]:       0.000     0.000     3.817   |c| =     3.817471
 CELL| Angle (b,c), alpha [degree]:                                    90.000000
 CELL| Angle (a,c), beta  [degree]:                                    90.000000
 CELL| Angle (a,b), gamma [degree]:                                    90.000000
 CELL| Numerically orthorhombic:                                             YES
 CELL| Periodicity                                                           XYZ

 Extrapolation method: ASPC

 Number of electrons:                                                         60
 Number of occupied orbitals:                                                 30
 Number of molecular orbitals:                                                64

 Number of orbital functions:                                                 64
 Number of independent orbital functions:                                     64


 SCF WAVEFUNCTION OPTIMIZATION

  Step     Update method      Time    Convergence         Total energy    Change
  ------------------------------------------------------------------------------
     1 TBLite/Diag 0.40E+00    0.0     0.03738929       -33.9072387281 -3.39E+01
     2 TBLite/Diag 0.40E+00    0.0     0.00160607       -33.9072565855 -1.79E-05
     3 TBLite/Diag 0.40E+00    0.0     0.00079453       -33.9072579135 -1.33E-06
     4 TBLite/Diag 0.40E+00    0.0     0.00016736       -33.9072581218 -2.08E-07
     5 TBLite/Diag 0.40E+00    0.0     0.00007644       -33.9072581470 -2.52E-08
     6 TBLite/Diag 0.40E+00    0.0     0.00000006       -33.9072581470  0.00E+00
     7 TBLite/Diag 0.40E+00    0.0     3.3983E-09       -33.9072581470 -2.84E-14
     8 TBLite/Diag 0.40E+00    0.0     4.9435E-11       -33.9072581470 -7.11E-15

  *** SCF run converged in     8 steps ***


  Core Hamiltonian energy:                                    -34.39988683080803
  Repulsive potential energy:                                   0.47705750169172
  Electrostatic energy:                                         0.05270125574200
  Self-consistent dispersion energy:                            0.00000000000000
  Non-self consistent dispersion energy:                       -0.03713007364168
  Correction for halogen bonding:                               0.00000000000000
  Electronic entropic energy:                                  -0.00000000000000
  Fermi energy:                                                -0.34111234908786

  Total energy:                                               -33.90725814701598
  Total energy (extrapolated to T->0):                        -33.90725814701598

 ENERGY| Total FORCE_EVAL ( QS ) energy [hartree]            -33.907258147015980

 OPT| **************************************************************************
 OPT| Step number                                                              3
 OPT| Optimization method                                                   BFGS
 OPT| Total energy [hartree]                                      -33.9072581470
 OPT| Internal pressure [bar]                                   14254.6676023975
 OPT| Effective energy change [hartree]                            -0.0068019482
 OPT| Predicted energy change [hartree]                            -0.0058932943
 OPT| Scaling factor                                                0.0000000000
 OPT| Step size                                                     0.0549993083
 OPT| Trust radius                                                  0.4724315332
 OPT| Decrease in energy                                                     YES
 OPT| Used time [s]                                                        0.204
 OPT|
 OPT| Maximum step size                                             0.0549993083
 OPT| Convergence limit for maximum step size                       0.0030000000
 OPT| Maximum step size is converged                                          NO
 OPT|
 OPT| RMS step size                                                 0.0156389257
 OPT| Convergence limit for RMS step size                           0.0015000000
 OPT| RMS step size is converged                                              NO
 OPT|
 OPT| Maximum gradient                                              0.0291497367
 OPT| Convergence limit for maximum gradient                        0.0004500000
 OPT| Maximum gradient is converged                                           NO
 OPT|
 OPT| RMS gradient                                                  0.0049281296
 OPT| Convergence limit for RMS gradient                            0.0003000000
 OPT| RMS gradient is converged                                               NO
 OPT|
 OPT| Pressure deviation [bar]                                  14254.6676023975
 OPT| Pressure tolerance [bar]                                    100.0000000000
 OPT| Pressure is converged                                                   NO
 OPT| **************************************************************************
 OPT| Estimated peak process memory after this step [MiB]                    167

 --------------------------
 OPTIMIZATION STEP:      4
 --------------------------

 CELL| Volume [angstrom^3]:                                           215.637918
 CELL| Vector a [angstrom]:       9.365     0.000     0.000   |a| =     9.364760
 CELL| Vector b [angstrom]:       0.000     5.992     0.000   |b| =     5.991718
 CELL| Vector c [angstrom]:       0.000     0.000     3.843   |c| =     3.843060
 CELL| Angle (b,c), alpha [degree]:                                    90.000000
 CELL| Angle (a,c), beta  [degree]:                                    90.000000
 CELL| Angle (a,b), gamma [degree]:                                    90.000000
 CELL| Numerically orthorhombic:                                             YES
 CELL| Periodicity                                                           XYZ

 Extrapolation method: ASPC

 Number of electrons:                                                         60
 Number of occupied orbitals:                                                 30
 Number of molecular orbitals:                                                64

 Number of orbital functions:                                                 64
 Number of independent orbital functions:                                     64


 SCF WAVEFUNCTION OPTIMIZATION

  Step     Update method      Time    Convergence         Total energy    Change
  ------------------------------------------------------------------------------
     1 TBLite/Diag 0.40E+00    0.0     0.00725432       -33.9092343727 -3.39E+01
     2 TBLite/Diag 0.40E+00    0.0     0.00070207       -33.9092358416 -1.47E-06
     3 TBLite/Diag 0.40E+00    0.0     0.00008310       -33.9092358672 -2.55E-08
     4 TBLite/Diag 0.40E+00    0.0     0.00004132       -33.9092358713 -4.11E-09
     5 TBLite/Diag 0.40E+00    0.0     0.00001425       -33.9092358721 -8.62E-10
     6 TBLite/Diag 0.40E+00    0.0     2.0519E-09       -33.9092358721 -4.97E-14
     7 TBLite/Diag 0.40E+00    0.0     7.1272E-10       -33.9092358721  3.55E-14

  *** SCF run converged in     7 steps ***


  Core Hamiltonian energy:                                    -34.39139271446746
  Repulsive potential energy:                                   0.46609628740938
  Electrostatic energy:                                         0.05290621952939
  Self-consistent dispersion energy:                            0.00000000000000
  Non-self consistent dispersion energy:                       -0.03684566460078
  Correction for halogen bonding:                               0.00000000000000
  Electronic entropic energy:                                  -0.00000000000000
  Fermi energy:                                                -0.34105011809579

  Total energy:                                               -33.90923587212946
  Total energy (extrapolated to T->0):                        -33.90923587212946

 ENERGY| Total FORCE_EVAL ( QS ) energy [hartree]            -33.909235872129464

 OPT| **************************************************************************
 OPT| Step number                                                              4
 OPT| Optimization method                                                   BFGS
 OPT| Total energy [hartree]                                      -33.9092358721
 OPT| Internal pressure [bar]                                    2667.1876807166
 OPT| Effective energy change [hartree]                            -0.0019777251
 OPT| Predicted energy change [hartree]                            -0.0011993924
 OPT| Scaling factor                                                0.0000000000
 OPT| Step size                                                     0.0483561899
 OPT| Trust radius                                                  0.4724315332
 OPT| Decrease in energy                                                     YES
 OPT| Used time [s]                                                        0.200
 OPT|
 OPT| Maximum step size                                             0.0483561899
 OPT| Convergence limit for maximum step size                       0.0030000000
 OPT| Maximum step size is converged                                          NO
 OPT|
 OPT| RMS step size                                                 0.0083401141
 OPT| Convergence limit for RMS step size                           0.0015000000
 OPT| RMS step size is converged                                              NO
 OPT|
 OPT| Maximum gradient                                              0.0252395472
 OPT| Convergence limit for maximum gradient                        0.0004500000
 OPT| Maximum gradient is converged                                           NO
 OPT|
 OPT| RMS gradient                                                  0.0044140135
 OPT| Convergence limit for RMS gradient                            0.0003000000
 OPT| RMS gradient is converged                                               NO
 OPT|
 OPT| Pressure deviation [bar]                                   2667.1876807166
 OPT| Pressure tolerance [bar]                                    100.0000000000
 OPT| Pressure is converged                                                   NO
 OPT| **************************************************************************
 OPT| Estimated peak process memory after this step [MiB]                    167

 --------------------------
 OPTIMIZATION STEP:      5
 --------------------------

 CELL| Volume [angstrom^3]:                                           220.067134
 CELL| Vector a [angstrom]:       9.354     0.000     0.000   |a| =     9.354444
 CELL| Vector b [angstrom]:       0.000     6.015     0.000   |b| =     6.015142
 CELL| Vector c [angstrom]:       0.000     0.000     3.911   |c| =     3.911031
 CELL| Angle (b,c), alpha [degree]:                                    90.000000
 CELL| Angle (a,c), beta  [degree]:                                    90.000000
 CELL| Angle (a,b), gamma [degree]:                                    90.000000
 CELL| Numerically orthorhombic:                                             YES
 CELL| Periodicity                                                           XYZ

 Extrapolation method: ASPC

 Number of electrons:                                                         60
 Number of occupied orbitals:                                                 30
 Number of molecular orbitals:                                                64

 Number of orbital functions:                                                 64
 Number of independent orbital functions:                                     64


 SCF WAVEFUNCTION OPTIMIZATION

  Step     Update method      Time    Convergence         Total energy    Change
  ------------------------------------------------------------------------------
     1 TBLite/Diag 0.40E+00    0.0     0.01917390       -33.9122331131 -3.39E+01
     2 TBLite/Diag 0.40E+00    0.0     0.00222470       -33.9122483211 -1.52E-05
     3 TBLite/Diag 0.40E+00    0.0     0.00027061       -33.9122484900 -1.69E-07
     4 TBLite/Diag 0.40E+00    0.0     0.00007114       -33.9122485069 -1.69E-08
     5 TBLite/Diag 0.40E+00    0.0     0.00000918       -33.9122485073 -3.52E-10
     6 TBLite/Diag 0.40E+00    0.0     0.00000005       -33.9122485073 -1.42E-14
     7 TBLite/Diag 0.40E+00    0.0     0.00000002       -33.9122485073  7.11E-15
     8 TBLite/Diag 0.40E+00    0.0     0.00000001       -33.9122485073 -3.55E-14
     9 TBLite/Diag 0.40E+00    0.0     2.3462E-12       -33.9122485073  3.55E-14

  *** SCF run converged in     9 steps ***


  Core Hamiltonian energy:                                    -34.38176605343917
  Repulsive potential energy:                                   0.45218333456608
  Electrostatic energy:                                         0.05344677339705
  Self-consistent dispersion energy:                            0.00000000000000
  Non-self consistent dispersion energy:                       -0.03611256177589
  Correction for halogen bonding:                               0.00000000000000
  Electronic entropic energy:                                  -0.00000000000000
  Fermi energy:                                                -0.34051651329364

  Total energy:                                               -33.91224850725193
  Total energy (extrapolated to T->0):                        -33.91224850725193

 ENERGY| Total FORCE_EVAL ( QS ) energy [hartree]            -33.912248507251931

 OPT| **************************************************************************
 OPT| Step number                                                              5
 OPT| Optimization method                                                   BFGS
 OPT| Total energy [hartree]                                      -33.9122485073
 OPT| Internal pressure [bar]                                  -12507.5262097970
 OPT| Effective energy change [hartree]                            -0.0030126351
 OPT| Predicted energy change [hartree]                            -0.0023034291
 OPT| Scaling factor                                                0.0000000000
 OPT| Step size                                                     0.1284475232
 OPT| Trust radius                                                  0.4724315332
 OPT| Decrease in energy                                                     YES
 OPT| Used time [s]                                                        0.203
 OPT|
 OPT| Maximum step size                                             0.1284475232
 OPT| Convergence limit for maximum step size                       0.0030000000
 OPT| Maximum step size is converged                                          NO
 OPT|
 OPT| RMS step size                                                 0.0197090025
 OPT| Convergence limit for RMS step size                           0.0015000000
 OPT| RMS step size is converged                                              NO
 OPT|
 OPT| Maximum gradient                                              0.0170721481
 OPT| Convergence limit for maximum gradient                        0.0004500000
 OPT| Maximum gradient is converged                                           NO
 OPT|
 OPT| RMS gradient                                                  0.0040247887
 OPT| Convergence limit for RMS gradient                            0.0003000000
 OPT| RMS gradient is converged                                               NO
 OPT|
 OPT| Pressure deviation [bar]                                 -12507.5262097970
 OPT| Pressure tolerance [bar]                                    100.0000000000
 OPT| Pressure is converged                                                   NO
 OPT| **************************************************************************
 OPT| Estimated peak process memory after this step [MiB]                    167

 --------------------------
 OPTIMIZATION STEP:      6
 --------------------------

 CELL| Volume [angstrom^3]:                                           222.690101
 CELL| Vector a [angstrom]:       9.343     0.000     0.000   |a| =     9.343411
 CELL| Vector b [angstrom]:       0.000     6.019     0.000   |b| =     6.018759
 CELL| Vector c [angstrom]:       0.000     0.000     3.960   |c| =     3.959939
 CELL| Angle (b,c), alpha [degree]:                                    90.000000
 CELL| Angle (a,c), beta  [degree]:                                    90.000000
 CELL| Angle (a,b), gamma [degree]:                                    90.000000
 CELL| Numerically orthorhombic:                                             YES
 CELL| Periodicity                                                           XYZ

 Extrapolation method: ASPC

 Number of electrons:                                                         60
 Number of occupied orbitals:                                                 30
 Number of molecular orbitals:                                                64

 Number of orbital functions:                                                 64
 Number of independent orbital functions:                                     64


 SCF WAVEFUNCTION OPTIMIZATION

  Step     Update method      Time    Convergence         Total energy    Change
  ------------------------------------------------------------------------------
     1 TBLite/Diag 0.40E+00    0.0     0.01184708       -33.9137651917 -3.39E+01
     2 TBLite/Diag 0.40E+00    0.0     0.00150037       -33.9137724759 -7.28E-06
     3 TBLite/Diag 0.40E+00    0.0     0.00017530       -33.9137725480 -7.21E-08
     4 TBLite/Diag 0.40E+00    0.0     0.00003237       -33.9137725525 -4.43E-09
     5 TBLite/Diag 0.40E+00    0.0     0.00000216       -33.9137725525 -1.97E-11
     6 TBLite/Diag 0.40E+00    0.0     0.00000002       -33.9137725525  2.13E-14
     7 TBLite/Diag 0.40E+00    0.0     1.9544E-10       -33.9137725525 -7.82E-14

  *** SCF run converged in     7 steps ***


  Core Hamiltonian energy:                                    -34.38514290519111
  Repulsive potential energy:                                   0.45320442609507
  Electrostatic energy:                                         0.05380834799795
  Self-consistent dispersion energy:                            0.00000000000000
  Non-self consistent dispersion energy:                       -0.03564242138121
  Correction for halogen bonding:                               0.00000000000000
  Electronic entropic energy:                                  -0.00000000000000
  Fermi energy:                                                -0.34008666539813

  Total energy:                                               -33.91377255247930
  Total energy (extrapolated to T->0):                        -33.91377255247930

 ENERGY| Total FORCE_EVAL ( QS ) energy [hartree]            -33.913772552479301

 OPT| **************************************************************************
 OPT| Step number                                                              6
 OPT| Optimization method                                                   BFGS
 OPT| Total energy [hartree]                                      -33.9137725525
 OPT| Internal pressure [bar]                                  -13145.0987423121
 OPT| Effective energy change [hartree]                            -0.0015240452
 OPT| Predicted energy change [hartree]                            -0.0009898902
 OPT| Scaling factor                                                0.0000000000
 OPT| Step size                                                     0.0924223980
 OPT| Trust radius                                                  0.4724315332
 OPT| Decrease in energy                                                     YES
 OPT| Used time [s]                                                        0.197
 OPT|
 OPT| Maximum step size                                             0.0924223980
 OPT| Convergence limit for maximum step size                       0.0030000000
 OPT| Maximum step size is converged                                          NO
 OPT|
 OPT| RMS step size                                                 0.0130216178
 OPT| Convergence limit for RMS step size                           0.0015000000
 OPT| RMS step size is converged                                              NO
 OPT|
 OPT| Maximum gradient                                              0.0180040682
 OPT| Convergence limit for maximum gradient                        0.0004500000
 OPT| Maximum gradient is converged                                           NO
 OPT|
 OPT| RMS gradient                                                  0.0037392964
 OPT| Convergence limit for RMS gradient                            0.0003000000
 OPT| RMS gradient is converged                                               NO
 OPT|
 OPT| Pressure deviation [bar]                                 -13145.0987423121
 OPT| Pressure tolerance [bar]                                    100.0000000000
 OPT| Pressure is converged                                                   NO
 OPT| **************************************************************************
 OPT| Estimated peak process memory after this step [MiB]                    167

 --------------------------
 OPTIMIZATION STEP:      7
 --------------------------

 CELL| Volume [angstrom^3]:                                           226.100859
 CELL| Vector a [angstrom]:       9.325     0.000     0.000   |a| =     9.325269
 CELL| Vector b [angstrom]:       0.000     6.009     0.000   |b| =     6.009175
 CELL| Vector c [angstrom]:       0.000     0.000     4.035   |c| =     4.034837
 CELL| Angle (b,c), alpha [degree]:                                    90.000000
 CELL| Angle (a,c), beta  [degree]:                                    90.000000
 CELL| Angle (a,b), gamma [degree]:                                    90.000000
 CELL| Numerically orthorhombic:                                             YES
 CELL| Periodicity                                                           XYZ

 Extrapolation method: ASPC

 Number of electrons:                                                         60
 Number of occupied orbitals:                                                 30
 Number of molecular orbitals:                                                64

 Number of orbital functions:                                                 64
 Number of independent orbital functions:                                     64


 SCF WAVEFUNCTION OPTIMIZATION

  Step     Update method      Time    Convergence         Total energy    Change
  ------------------------------------------------------------------------------
     1 TBLite/Diag 0.40E+00    0.0     0.01324322       -33.9157089731 -3.39E+01
     2 TBLite/Diag 0.40E+00    0.0     0.00159731       -33.9157176763 -8.70E-06
     3 TBLite/Diag 0.40E+00    0.0     0.00018573       -33.9157177449 -6.86E-08
     4 TBLite/Diag 0.40E+00    0.0     0.00003774       -33.9157177517 -6.73E-09
     5 TBLite/Diag 0.40E+00    0.0     0.00000735       -33.9157177519 -2.26E-10
     6 TBLite/Diag 0.40E+00    0.0     0.00000003       -33.9157177519 -7.11E-15
     7 TBLite/Diag 0.40E+00    0.0     1.9087E-09       -33.9157177519  6.39E-14
     8 TBLite/Diag 0.40E+00    0.0     9.6657E-11       -33.9157177519 -2.13E-14

  *** SCF run converged in     8 steps ***


  Core Hamiltonian energy:                                    -34.39847668258378
  Repulsive potential energy:                                   0.46355401612332
  Electrostatic energy:                                         0.05420541015921
  Self-consistent dispersion energy:                            0.00000000000000
  Non-self consistent dispersion energy:                       -0.03500049558559
  Correction for halogen bonding:                               0.00000000000000
  Electronic entropic energy:                                  -0.00000000000000
  Fermi energy:                                                -0.33944399115919

  Total energy:                                               -33.91571775188684
  Total energy (extrapolated to T->0):                        -33.91571775188684

 ENERGY| Total FORCE_EVAL ( QS ) energy [hartree]            -33.915717751886838

 OPT| **************************************************************************
 OPT| Step number                                                              7
 OPT| Optimization method                                                   BFGS
 OPT| Total energy [hartree]                                      -33.9157177519
 OPT| Internal pressure [bar]                                   -6404.7257258783
 OPT| Effective energy change [hartree]                            -0.0019451994
 OPT| Predicted energy change [hartree]                            -0.0013777599
 OPT| Scaling factor                                                0.0000000000
 OPT| Step size                                                     0.1415357362
 OPT| Trust radius                                                  0.4724315332
 OPT| Decrease in energy                                                     YES
 OPT| Used time [s]                                                        0.198
 OPT|
 OPT| Maximum step size                                             0.1415357362
 OPT| Convergence limit for maximum step size                       0.0030000000
 OPT| Maximum step size is converged                                          NO
 OPT|
 OPT| RMS step size                                                 0.0196178055
 OPT| Convergence limit for RMS step size                           0.0015000000
 OPT| RMS step size is converged                                              NO
 OPT|
 OPT| Maximum gradient                                              0.0169352692
 OPT| Convergence limit for maximum gradient                        0.0004500000
 OPT| Maximum gradient is converged                                           NO
 OPT|
 OPT| RMS gradient                                                  0.0037177448
 OPT| Convergence limit for RMS gradient                            0.0003000000
 OPT| RMS gradient is converged                                               NO
 OPT|
 OPT| Pressure deviation [bar]                                  -6404.7257258783
 OPT| Pressure tolerance [bar]                                    100.0000000000
 OPT| Pressure is converged                                                   NO
 OPT| **************************************************************************
 OPT| Estimated peak process memory after this step [MiB]                    167

 --------------------------
 OPTIMIZATION STEP:      8
 --------------------------

 CELL| Volume [angstrom^3]:                                           228.764813
 CELL| Vector a [angstrom]:       9.311     0.000     0.000   |a| =     9.310855
 CELL| Vector b [angstrom]:       0.000     5.989     0.000   |b| =     5.988674
 CELL| Vector c [angstrom]:       0.000     0.000     4.103   |c| =     4.102692
 CELL| Angle (b,c), alpha [degree]:                                    90.000000
 CELL| Angle (a,c), beta  [degree]:                                    90.000000
 CELL| Angle (a,b), gamma [degree]:                                    90.000000
 CELL| Numerically orthorhombic:                                             YES
 CELL| Periodicity                                                           XYZ

 Extrapolation method: ASPC

 Number of electrons:                                                         60
 Number of occupied orbitals:                                                 30
 Number of molecular orbitals:                                                64

 Number of orbital functions:                                                 64
 Number of independent orbital functions:                                     64


 SCF WAVEFUNCTION OPTIMIZATION

  Step     Update method      Time    Convergence         Total energy    Change
  ------------------------------------------------------------------------------
     1 TBLite/Diag 0.40E+00    0.0     0.01150857       -33.9173398638 -3.39E+01
     2 TBLite/Diag 0.40E+00    0.0     0.00030733       -33.9173401968 -3.33E-07
     3 TBLite/Diag 0.40E+00    0.0     0.00005846       -33.9173401958  1.05E-09
     4 TBLite/Diag 0.40E+00    0.0     0.00003057       -33.9173401994 -3.63E-09
     5 TBLite/Diag 0.40E+00    0.0     0.00000193       -33.9173401994 -1.55E-11
     6 TBLite/Diag 0.40E+00    0.0     2.5080E-09       -33.9173401994 -7.11E-15
     7 TBLite/Diag 0.40E+00    0.0     2.2486E-09       -33.9173401994  1.42E-14
     8 TBLite/Diag 0.40E+00    0.0     4.3413E-10       -33.9173401994 -7.11E-15

  *** SCF run converged in     8 steps ***


  Core Hamiltonian energy:                                    -34.41269078873663
  Repulsive potential energy:                                   0.47555750414707
  Electrostatic energy:                                         0.05427704275790
  Self-consistent dispersion energy:                            0.00000000000000
  Non-self consistent dispersion energy:                       -0.03448395758043
  Correction for halogen bonding:                               0.00000000000000
  Electronic entropic energy:                                  -0.00000000000000
  Fermi energy:                                                -0.33894417410299

  Total energy:                                               -33.91734019941209
  Total energy (extrapolated to T->0):                        -33.91734019941209

 ENERGY| Total FORCE_EVAL ( QS ) energy [hartree]            -33.917340199412088

 OPT| **************************************************************************
 OPT| Step number                                                              8
 OPT| Optimization method                                                   BFGS
 OPT| Total energy [hartree]                                      -33.9173401994
 OPT| Internal pressure [bar]                                    1948.4167072238
 OPT| Effective energy change [hartree]                            -0.0016224475
 OPT| Predicted energy change [hartree]                            -0.0010645694
 OPT| Scaling factor                                                0.0000000000
 OPT| Step size                                                     0.1282285803
 OPT| Trust radius                                                  0.4724315332
 OPT| Decrease in energy                                                     YES
 OPT| Used time [s]                                                        0.197
 OPT|
 OPT| Maximum step size                                             0.1282285803
 OPT| Convergence limit for maximum step size                       0.0030000000
 OPT| Maximum step size is converged                                          NO
 OPT|
 OPT| RMS step size                                                 0.0180226407
 OPT| Convergence limit for RMS step size                           0.0015000000
 OPT| RMS step size is converged                                              NO
 OPT|
 OPT| Maximum gradient                                              0.0114793038
 OPT| Convergence limit for maximum gradient                        0.0004500000
 OPT| Maximum gradient is converged                                           NO
 OPT|
 OPT| RMS gradient                                                  0.0039104288
 OPT| Convergence limit for RMS gradient                            0.0003000000
 OPT| RMS gradient is converged                                               NO
 OPT|
 OPT| Pressure deviation [bar]                                   1948.4167072238
 OPT| Pressure tolerance [bar]                                    100.0000000000
 OPT| Pressure is converged                                                   NO
 OPT| **************************************************************************
 OPT| Estimated peak process memory after this step [MiB]                    167

 --------------------------
 OPTIMIZATION STEP:      9
 --------------------------

 CELL| Volume [angstrom^3]:                                           232.207590
 CELL| Vector a [angstrom]:       9.296     0.000     0.000   |a| =     9.296318
 CELL| Vector b [angstrom]:       0.000     5.954     0.000   |b| =     5.953795
 CELL| Vector c [angstrom]:       0.000     0.000     4.195   |c| =     4.195383
 CELL| Angle (b,c), alpha [degree]:                                    90.000000
 CELL| Angle (a,c), beta  [degree]:                                    90.000000
 CELL| Angle (a,b), gamma [degree]:                                    90.000000
 CELL| Numerically orthorhombic:                                             YES
 CELL| Periodicity                                                           XYZ

 Extrapolation method: ASPC

 Number of electrons:                                                         60
 Number of occupied orbitals:                                                 30
 Number of molecular orbitals:                                                64

 Number of orbital functions:                                                 64
 Number of independent orbital functions:                                     64


 SCF WAVEFUNCTION OPTIMIZATION

  Step     Update method      Time    Convergence         Total energy    Change
  ------------------------------------------------------------------------------
     1 TBLite/Diag 0.40E+00    0.0     0.01574599       -33.9193209151 -3.39E+01
     2 TBLite/Diag 0.40E+00    0.0     0.00119608       -33.9193259752 -5.06E-06
     3 TBLite/Diag 0.40E+00    0.0     0.00012369       -33.9193260101 -3.49E-08
     4 TBLite/Diag 0.40E+00    0.0     0.00001976       -33.9193260123 -2.13E-09
     5 TBLite/Diag 0.40E+00    0.0     0.00000666       -33.9193260125 -1.84E-10
     6 TBLite/Diag 0.40E+00    0.0     9.7450E-09       -33.9193260125 -8.53E-14
     7 TBLite/Diag 0.40E+00    0.0     6.9390E-10       -33.9193260125  1.42E-14

  *** SCF run converged in     7 steps ***


  Core Hamiltonian energy:                                    -34.42643086327804
  Repulsive potential energy:                                   0.48696671864541
  Electrostatic energy:                                         0.05396773899012
  Self-consistent dispersion energy:                            0.00000000000000
  Non-self consistent dispersion energy:                       -0.03382960681107
  Correction for halogen bonding:                               0.00000000000000
  Electronic entropic energy:                                  -0.00000000000000
  Fermi energy:                                                -0.33857562348334

  Total energy:                                               -33.91932601245357
  Total energy (extrapolated to T->0):                        -33.91932601245357

 ENERGY| Total FORCE_EVAL ( QS ) energy [hartree]            -33.919326012453574

 OPT| **************************************************************************
 OPT| Step number                                                              9
 OPT| Optimization method                                                   BFGS
 OPT| Total energy [hartree]                                      -33.9193260125
 OPT| Internal pressure [bar]                                    9531.4326683705
 OPT| Effective energy change [hartree]                            -0.0019858130
 OPT| Predicted energy change [hartree]                            -0.0013607266
 OPT| Scaling factor                                                0.0000000000
 OPT| Step size                                                     0.1751591245
 OPT| Trust radius                                                  0.4724315332
 OPT| Decrease in energy                                                     YES
 OPT| Used time [s]                                                        0.193
 OPT|
 OPT| Maximum step size                                             0.1751591245
 OPT| Convergence limit for maximum step size                       0.0030000000
 OPT| Maximum step size is converged                                          NO
 OPT|
 OPT| RMS step size                                                 0.0250142700
 OPT| Convergence limit for RMS step size                           0.0015000000
 OPT| RMS step size is converged                                              NO
 OPT|
 OPT| Maximum gradient                                              0.0109412286
 OPT| Convergence limit for maximum gradient                        0.0004500000
 OPT| Maximum gradient is converged                                           NO
 OPT|
 OPT| RMS gradient                                                  0.0037287423
 OPT| Convergence limit for RMS gradient                            0.0003000000
 OPT| RMS gradient is converged                                               NO
 OPT|
 OPT| Pressure deviation [bar]                                   9531.4326683705
 OPT| Pressure tolerance [bar]                                    100.0000000000
 OPT| Pressure is converged                                                   NO
 OPT| **************************************************************************
 OPT| Estimated peak process memory after this step [MiB]                    167

 --------------------------
 OPTIMIZATION STEP:     10
 --------------------------

 CELL| Volume [angstrom^3]:                                           236.421687
 CELL| Vector a [angstrom]:       9.285     0.000     0.000   |a| =     9.284743
 CELL| Vector b [angstrom]:       0.000     5.915     0.000   |b| =     5.915162
 CELL| Vector c [angstrom]:       0.000     0.000     4.305   |c| =     4.304778
 CELL| Angle (b,c), alpha [degree]:                                    90.000000
 CELL| Angle (a,c), beta  [degree]:                                    90.000000
 CELL| Angle (a,b), gamma [degree]:                                    90.000000
 CELL| Numerically orthorhombic:                                             YES
 CELL| Periodicity                                                           XYZ

 Extrapolation method: ASPC

 Number of electrons:                                                         60
 Number of occupied orbitals:                                                 30
 Number of molecular orbitals:                                                64

 Number of orbital functions:                                                 64
 Number of independent orbital functions:                                     64


 SCF WAVEFUNCTION OPTIMIZATION

  Step     Update method      Time    Convergence         Total energy    Change
  ------------------------------------------------------------------------------
     1 TBLite/Diag 0.40E+00    0.0     0.01781479       -33.9211932218 -3.39E+01
     2 TBLite/Diag 0.40E+00    0.0     0.00210486       -33.9212086745 -1.55E-05
     3 TBLite/Diag 0.40E+00    0.0     0.00020234       -33.9212087885 -1.14E-07
     4 TBLite/Diag 0.40E+00    0.0     0.00002241       -33.9212087914 -2.96E-09
     5 TBLite/Diag 0.40E+00    0.0     0.00000780       -33.9212087917 -2.49E-10
     6 TBLite/Diag 0.40E+00    0.0     0.00000003       -33.9212087917  1.42E-14
     7 TBLite/Diag 0.40E+00    0.0     1.5218E-09       -33.9212087917  0.00E+00
     8 TBLite/Diag 0.40E+00    0.0     8.7760E-10       -33.9212087917 -1.42E-14

  *** SCF run converged in     8 steps ***


  Core Hamiltonian energy:                                    -34.43031472594011
  Repulsive potential energy:                                   0.48877769878439
  Electrostatic energy:                                         0.05340667549762
  Self-consistent dispersion energy:                            0.00000000000000
  Non-self consistent dispersion energy:                       -0.03307844000515
  Correction for halogen bonding:                               0.00000000000000
  Electronic entropic energy:                                  -0.00000000000000
  Fermi energy:                                                -0.33872812118760

  Total energy:                                               -33.92120879166325
  Total energy (extrapolated to T->0):                        -33.92120879166325

 ENERGY| Total FORCE_EVAL ( QS ) energy [hartree]            -33.921208791663254

 OPT| **************************************************************************
 OPT| Step number                                                             10
 OPT| Optimization method                                                   BFGS
 OPT| Total energy [hartree]                                      -33.9212087917
 OPT| Internal pressure [bar]                                   10141.0966370718
 OPT| Effective energy change [hartree]                            -0.0018827792
 OPT| Predicted energy change [hartree]                            -0.0012671131
 OPT| Scaling factor                                                0.0000000000
 OPT| Step size                                                     0.2067273328
 OPT| Trust radius                                                  0.4724315332
 OPT| Decrease in energy                                                     YES
 OPT| Used time [s]                                                        0.199
 OPT|
 OPT| Maximum step size                                             0.2067273328
 OPT| Convergence limit for maximum step size                       0.0030000000
 OPT| Maximum step size is converged                                          NO
 OPT|
 OPT| RMS step size                                                 0.0292659595
 OPT| Convergence limit for RMS step size                           0.0015000000
 OPT| RMS step size is converged                                              NO
 OPT|
 OPT| Maximum gradient                                              0.0074450744
 OPT| Convergence limit for maximum gradient                        0.0004500000
 OPT| Maximum gradient is converged                                           NO
 OPT|
 OPT| RMS gradient                                                  0.0030158463
 OPT| Convergence limit for RMS gradient                            0.0003000000
 OPT| RMS gradient is converged                                               NO
 OPT|
 OPT| Pressure deviation [bar]                                  10141.0966370718
 OPT| Pressure tolerance [bar]                                    100.0000000000
 OPT| Pressure is converged                                                   NO
 OPT| **************************************************************************
 OPT| Estimated peak process memory after this step [MiB]                    167

 --------------------------
 OPTIMIZATION STEP:     11
 --------------------------

 CELL| Volume [angstrom^3]:                                           242.935719
 CELL| Vector a [angstrom]:       9.269     0.000     0.000   |a| =     9.269046
 CELL| Vector b [angstrom]:       0.000     5.871     0.000   |b| =     5.870758
 CELL| Vector c [angstrom]:       0.000     0.000     4.464   |c| =     4.464391
 CELL| Angle (b,c), alpha [degree]:                                    90.000000
 CELL| Angle (a,c), beta  [degree]:                                    90.000000
 CELL| Angle (a,b), gamma [degree]:                                    90.000000
 CELL| Numerically orthorhombic:                                             YES
 CELL| Periodicity                                                           XYZ

 Extrapolation method: ASPC

 Number of electrons:                                                         60
 Number of occupied orbitals:                                                 30
 Number of molecular orbitals:                                                64

 Number of orbital functions:                                                 64
 Number of independent orbital functions:                                     64


 SCF WAVEFUNCTION OPTIMIZATION

  Step     Update method      Time    Convergence         Total energy    Change
  ------------------------------------------------------------------------------
     1 TBLite/Diag 0.40E+00    0.0     0.02509742       -33.9228723168 -3.39E+01
     2 TBLite/Diag 0.40E+00    0.0     0.00141686       -33.9228791631 -6.85E-06
     3 TBLite/Diag 0.40E+00    0.0     0.00015671       -33.9228792052 -4.21E-08
     4 TBLite/Diag 0.40E+00    0.0     0.00004685       -33.9228792140 -8.75E-09
     5 TBLite/Diag 0.40E+00    0.0     0.00000109       -33.9228792140 -5.90E-12
     6 TBLite/Diag 0.40E+00    0.0     0.00000013       -33.9228792140 -4.97E-14
     7 TBLite/Diag 0.40E+00    0.0     8.6077E-10       -33.9228792140  0.00E+00

  *** SCF run converged in     7 steps ***


  Core Hamiltonian energy:                                    -34.42371485035412
  Repulsive potential energy:                                   0.47992185361140
  Electrostatic energy:                                         0.05291413578933
  Self-consistent dispersion energy:                            0.00000000000000
  Non-self consistent dispersion energy:                       -0.03200035302600
  Correction for halogen bonding:                               0.00000000000000
  Electronic entropic energy:                                  -0.00000000000000
  Fermi energy:                                                -0.33949347333296

  Total energy:                                               -33.92287921397939
  Total energy (extrapolated to T->0):                        -33.92287921397939

 ENERGY| Total FORCE_EVAL ( QS ) energy [hartree]            -33.922879213979385

 OPT| **************************************************************************
 OPT| Step number                                                             11
 OPT| Optimization method                                                   BFGS
 OPT| Total energy [hartree]                                      -33.9228792140
 OPT| Internal pressure [bar]                                    2663.9290982342
 OPT| Effective energy change [hartree]                            -0.0016704223
 OPT| Predicted energy change [hartree]                            -0.0012072350
 OPT| Scaling factor                                                0.0000000000
 OPT| Step size                                                     0.3016245367
 OPT| Trust radius                                                  0.4724315332
 OPT| Decrease in energy                                                     YES
 OPT| Used time [s]                                                        0.187
 OPT|
 OPT| Maximum step size                                             0.3016245367
 OPT| Convergence limit for maximum step size                       0.0030000000
 OPT| Maximum step size is converged                                          NO
 OPT|
 OPT| RMS step size                                                 0.0412335251
 OPT| Convergence limit for RMS step size                           0.0015000000
 OPT| RMS step size is converged                                              NO
 OPT|
 OPT| Maximum gradient                                              0.0041839166
 OPT| Convergence limit for maximum gradient                        0.0004500000
 OPT| Maximum gradient is converged                                           NO
 OPT|
 OPT| RMS gradient                                                  0.0021508262
 OPT| Convergence limit for RMS gradient                            0.0003000000
 OPT| RMS gradient is converged                                               NO
 OPT|
 OPT| Pressure deviation [bar]                                   2663.9290982342
 OPT| Pressure tolerance [bar]                                    100.0000000000
 OPT| Pressure is converged                                                   NO
 OPT| **************************************************************************
 OPT| Estimated peak process memory after this step [MiB]                    167

 --------------------------
 OPTIMIZATION STEP:     12
 --------------------------

 CELL| Volume [angstrom^3]:                                           247.604087
 CELL| Vector a [angstrom]:       9.255     0.000     0.000   |a| =     9.255456
 CELL| Vector b [angstrom]:       0.000     5.845     0.000   |b| =     5.844853
 CELL| Vector c [angstrom]:       0.000     0.000     4.577   |c| =     4.577057
 CELL| Angle (b,c), alpha [degree]:                                    90.000000
 CELL| Angle (a,c), beta  [degree]:                                    90.000000
 CELL| Angle (a,b), gamma [degree]:                                    90.000000
 CELL| Numerically orthorhombic:                                             YES
 CELL| Periodicity                                                           XYZ

 Extrapolation method: ASPC

 Number of electrons:                                                         60
 Number of occupied orbitals:                                                 30
 Number of molecular orbitals:                                                64

 Number of orbital functions:                                                 64
 Number of independent orbital functions:                                     64


 SCF WAVEFUNCTION OPTIMIZATION

  Step     Update method      Time    Convergence         Total energy    Change
  ------------------------------------------------------------------------------
     1 TBLite/Diag 0.40E+00    0.0     0.01918279       -33.9234703311 -3.39E+01
     2 TBLite/Diag 0.40E+00    0.0     0.00069441       -33.9234719748 -1.64E-06
     3 TBLite/Diag 0.40E+00    0.0     0.00008296       -33.9234719839 -9.10E-09
     4 TBLite/Diag 0.40E+00    0.0     0.00002987       -33.9234719874 -3.55E-09
     5 TBLite/Diag 0.40E+00    0.0     0.00000146       -33.9234719874 -8.72E-12
     6 TBLite/Diag 0.40E+00    0.0     0.00000002       -33.9234719874  1.42E-14
     7 TBLite/Diag 0.40E+00    0.0     1.3307E-09       -33.9234719874 -4.26E-14
     8 TBLite/Diag 0.40E+00    0.0     2.8234E-11       -33.9234719874 -2.84E-14

  *** SCF run converged in     8 steps ***


  Core Hamiltonian energy:                                    -34.41570762357207
  Repulsive potential energy:                                   0.47084861593389
  Electrostatic energy:                                         0.05266065734988
  Self-consistent dispersion energy:                            0.00000000000000
  Non-self consistent dispersion energy:                       -0.03127363713152
  Correction for halogen bonding:                               0.00000000000000
  Electronic entropic energy:                                  -0.00000000000000
  Fermi energy:                                                -0.34003388520965

  Total energy:                                               -33.92347198741982
  Total energy (extrapolated to T->0):                        -33.92347198741982

 ENERGY| Total FORCE_EVAL ( QS ) energy [hartree]            -33.923471987419816

 OPT| **************************************************************************
 OPT| Step number                                                             12
 OPT| Optimization method                                                   BFGS
 OPT| Total energy [hartree]                                      -33.9234719874
 OPT| Internal pressure [bar]                                   -4910.3926920790
 OPT| Effective energy change [hartree]                            -0.0005927734
 OPT| Predicted energy change [hartree]                            -0.0004504918
 OPT| Scaling factor                                                0.0000000000
 OPT| Step size                                                     0.2129087063
 OPT| Trust radius                                                  0.4724315332
 OPT| Decrease in energy                                                     YES
 OPT| Used time [s]                                                        0.213
 OPT|
 OPT| Maximum step size                                             0.2129087063
 OPT| Convergence limit for maximum step size                       0.0030000000
 OPT| Maximum step size is converged                                          NO
 OPT|
 OPT| RMS step size                                                 0.0284320488
 OPT| Convergence limit for RMS step size                           0.0015000000
 OPT| RMS step size is converged                                              NO
 OPT|
 OPT| Maximum gradient                                              0.0056463024
 OPT| Convergence limit for maximum gradient                        0.0004500000
 OPT| Maximum gradient is converged                                           NO
 OPT|
 OPT| RMS gradient                                                  0.0018842930
 OPT| Convergence limit for RMS gradient                            0.0003000000
 OPT| RMS gradient is converged                                               NO
 OPT|
 OPT| Pressure deviation [bar]                                  -4910.3926920790
 OPT| Pressure tolerance [bar]                                    100.0000000000
 OPT| Pressure is converged                                                   NO
 OPT| **************************************************************************
 OPT| Estimated peak process memory after this step [MiB]                    167

 --------------------------
 OPTIMIZATION STEP:     13
 --------------------------

 CELL| Volume [angstrom^3]:                                           249.015481
 CELL| Vector a [angstrom]:       9.248     0.000     0.000   |a| =     9.248038
 CELL| Vector b [angstrom]:       0.000     5.838     0.000   |b| =     5.837576
 CELL| Vector c [angstrom]:       0.000     0.000     4.613   |c| =     4.612583
 CELL| Angle (b,c), alpha [degree]:                                    90.000000
 CELL| Angle (a,c), beta  [degree]:                                    90.000000
 CELL| Angle (a,b), gamma [degree]:                                    90.000000
 CELL| Numerically orthorhombic:                                             YES
 CELL| Periodicity                                                           XYZ

 Extrapolation method: ASPC

 Number of electrons:                                                         60
[...]
 OPTIMIZATION STEP:    153
 --------------------------

 CELL| Volume [angstrom^3]:                                           201.611279
 CELL| Vector a [angstrom]:       8.753     0.000     0.000   |a| =     8.753017
 CELL| Vector b [angstrom]:      -0.000     5.578     0.000   |b| =     5.577826
 CELL| Vector c [angstrom]:       0.000    -0.000     4.129   |c| =     4.129449
 CELL| Angle (b,c), alpha [degree]:                                    90.000000
 CELL| Angle (a,c), beta  [degree]:                                    90.000000
 CELL| Angle (a,b), gamma [degree]:                                    90.000000
 CELL| Numerically orthorhombic:                                              NO
 CELL| Periodicity                                                           XYZ

 Extrapolation method: ASPC

 Number of electrons:                                                         60
 Number of occupied orbitals:                                                 30
 Number of molecular orbitals:                                                64

 Number of orbital functions:                                                 64
 Number of independent orbital functions:                                     64


 SCF WAVEFUNCTION OPTIMIZATION

  Step     Update method      Time    Convergence         Total energy    Change
  ------------------------------------------------------------------------------
     1 TBLite/Diag 0.40E+00    0.0     0.00004675       -33.9558757647 -3.40E+01
     2 TBLite/Diag 0.40E+00    0.0     0.00001276       -33.9558757653 -6.51E-10
     3 TBLite/Diag 0.40E+00    0.0     0.00000084       -33.9558757653 -3.90E-12
     4 TBLite/Diag 0.40E+00    0.0     0.00000012       -33.9558757653 -7.11E-14
     5 TBLite/Diag 0.40E+00    0.0     0.00000004       -33.9558757653  3.55E-14
     6 TBLite/Diag 0.40E+00    0.0     2.4718E-10       -33.9558757653  0.00E+00

  *** SCF run converged in     6 steps ***


  Core Hamiltonian energy:                                    -34.45169377884999
  Repulsive potential energy:                                   0.47432171283528
  Electrostatic energy:                                         0.06024680848126
  Self-consistent dispersion energy:                            0.00000000000000
  Non-self consistent dispersion energy:                       -0.03875050778417
  Correction for halogen bonding:                               0.00000000000000
  Electronic entropic energy:                                  -0.00000000000000
  Fermi energy:                                                -0.33375834732527

  Total energy:                                               -33.95587576531762
  Total energy (extrapolated to T->0):                        -33.95587576531762

 ENERGY| Total FORCE_EVAL ( QS ) energy [hartree]            -33.955875765317622

 OPT| **************************************************************************
 OPT| Step number                                                            153
 OPT| Optimization method                                                   BFGS
 OPT| Total energy [hartree]                                      -33.9558757653
 OPT| Internal pressure [bar]                                     -12.6799786113
 OPT| Effective energy change [hartree]                             0.0000000015
 OPT| Predicted energy change [hartree]                            -0.0000000122
 OPT| Scaling factor                                                0.5966364247
 OPT| Step size                                                     0.0019588759
 OPT| Trust radius                                                  0.4724315332
 OPT| Decrease in energy                                                      NO
 OPT| Used time [s]                                                        0.108
 OPT|
 OPT| Maximum step size                                             0.0019588759
 OPT| Convergence limit for maximum step size                       0.0030000000
 OPT| Maximum step size is converged                                         YES
 OPT|
 OPT| RMS step size                                                 0.0003165175
 OPT| Convergence limit for RMS step size                           0.0015000000
 OPT| RMS step size is converged                                             YES
 OPT|
 OPT| Maximum gradient                                              0.0000072683
 OPT| Convergence limit for maximum gradient                        0.0004500000
 OPT| Maximum gradient is converged                                          YES
 OPT|
 OPT| RMS gradient                                                  0.0000028024
 OPT| Convergence limit for RMS gradient                            0.0003000000
 OPT| RMS gradient is converged                                              YES
 OPT|
 OPT| Pressure deviation [bar]                                    -12.6799786113
 OPT| Pressure tolerance [bar]                                    100.0000000000
 OPT| Pressure is converged                                                  YES
 OPT| **************************************************************************
 OPT| Estimated peak process memory after this step [MiB]                    167

 *******************************************************************************
 ***                    GEOMETRY OPTIMIZATION COMPLETED                      ***
 *******************************************************************************

 write_final_structure: Optimization converged, writing XYZ file gladly:
  pyrazine_GFN1_gamma_cell_opt-FINAL-1_153.xyz

 write_final_structure: Optimization converged, writing CIF file gladly:
  pyrazine_GFN1_gamma_cell_opt-FINAL-1_153.cif

 write_final_structure: Done!

                    Reevaluating energy at the minimum

 CELL| Volume [angstrom^3]:                                           201.611279
 CELL| Vector a [angstrom]:       8.753     0.000     0.000   |a| =     8.753017
 CELL| Vector b [angstrom]:      -0.000     5.578     0.000   |b| =     5.577826
 CELL| Vector c [angstrom]:       0.000    -0.000     4.129   |c| =     4.129449
 CELL| Angle (b,c), alpha [degree]:                                    90.000000
 CELL| Angle (a,c), beta  [degree]:                                    90.000000
 CELL| Angle (a,b), gamma [degree]:                                    90.000000
 CELL| Numerically orthorhombic:                                              NO
 CELL| Periodicity                                                           XYZ

 Extrapolation method: ASPC

 Number of electrons:                                                         60
 Number of occupied orbitals:                                                 30
 Number of molecular orbitals:                                                64

 Number of orbital functions:                                                 64
 Number of independent orbital functions:                                     64


 SCF WAVEFUNCTION OPTIMIZATION

  Step     Update method      Time    Convergence         Total energy    Change
  ------------------------------------------------------------------------------
     1 TBLite/Diag 0.40E+00    0.0     3.9139E-12       -33.9558757653 -3.40E+01

  *** SCF run converged in     1 steps ***


  Core Hamiltonian energy:                                    -34.45169377884747
  Repulsive potential energy:                                   0.47432171283528
  Electrostatic energy:                                         0.06024680847874
  Self-consistent dispersion energy:                            0.00000000000000
  Non-self consistent dispersion energy:                       -0.03875050778417
  Correction for halogen bonding:                               0.00000000000000
  Electronic entropic energy:                                  -0.00000000000000
  Fermi energy:                                                -0.33375834732579

  Total energy:                                               -33.95587576531763
  Total energy (extrapolated to T->0):                        -33.95587576531763

 ENERGY| Total FORCE_EVAL ( QS ) energy [hartree]            -33.955875765317629

 -------------------------------------------------------------------------------
 -                                                                             -
 -                                DBCSR STATISTICS                             -
 -                                                                             -
 -------------------------------------------------------------------------------
 COUNTER                                    TOTAL       BLAS       SMM       ACC
 flops     2 x    32 x     2             24903680       0.0%    100.0%      0.0%     
 flops     2 x     2 x    64             29270016       0.0%    100.0%      0.0%     
 flops     2 x    32 x     4             74711040       0.0%    100.0%      0.0%     
 flops     4 x    32 x     2             74711040       0.0%    100.0%      0.0%     
 flops     2 x     4 x    64             78053376       0.0%    100.0%      0.0%     
 flops     4 x     2 x    64             78053376       0.0%    100.0%      0.0%     
 flops     4 x    32 x     4            224133120       0.0%    100.0%      0.0%     
 flops     4 x     4 x    64            253673472       0.0%    100.0%      0.0%     
 flops inhomo. stacks                           0       0.0%      0.0%      0.0%
 flops total                       837.509120E+06       0.0%    100.0%      0.0%
 flops max/rank                    837.509120E+06       0.0%    100.0%      0.0%
 matmuls inhomo. stacks                         0       0.0%      0.0%      0.0%
 matmuls total                             941480       0.0%    100.0%      0.0%
 number of processed stacks                  9392       0.0%    100.0%      0.0%
 average stack size                                     0.0     100.2       0.0
 marketing flops                   789.217280E+06
 -------------------------------------------------------------------------------
 # multiplications                           2348
 max memory usage/rank              13.671715E+09
 # max total images/rank                        1
 # max 3D layers                                1
 # MPI messages exchanged                       0
 -------------------------------------------------------------------------------
 -                                                                             -
 -                      DBCSR MESSAGE PASSING PERFORMANCE                      -
 -                                                                             -
 -------------------------------------------------------------------------------
 ROUTINE             CALLS      AVE VOLUME [Bytes]
 MP_Bcast                9                     12.
 MP_Allreduce        10255                      8.
 MP_Alltoall         72088                  21467.
 MP_ISend             9392                   1965.
 MP_IRecv             9392                   1965.
 -------------------------------------------------------------------------------

 -------------------------------------------------------------------------------
 -                                                                             -
 -                          OFFLOAD MEMPOOL STATISTICS                         -
 -                                                                             -
 -------------------------------------------------------------------------------
 Memory consumption                Number of allocations  Used [MiB]  Size [MiB]
 Device                                                2           0           0
 Host                                                  2           0           0
 -------------------------------------------------------------------------------

 MEMORY| Estimated peak process memory [MiB]                                 167

 -------------------------------------------------------------------------------
 -                                                                             -
 -                         MESSAGE PASSING PERFORMANCE                         -
 -                                                                             -
 -------------------------------------------------------------------------------

 ROUTINE             CALLS      AVE VOLUME [Bytes]
 MP_Group              154
 MP_Bcast             3174                    259.
 MP_Allreduce        27875                    142.
 MP_Sync              1741
 MP_comm_split        1587
 -------------------------------------------------------------------------------


 -------------------------------------------------------------------------------
 -                                                                             -
 -                           R E F E R E N C E S                               -
 -                                                                             -
 -------------------------------------------------------------------------------
 
 CP2K version 2026.1 (Development Version), the CP2K developers group (2026).
 CP2K is freely available from https://www.cp2k.org/ .
 
 M. Iannuzzi, J. Wilhelm, F. Stein, A. Bussy, H. Elgabarty, D. Golze, A. Hehn, 
 M. Graml, S. Marek, B. Sertcan Gökmen, C. Schran, H. Forbert, R. Z. 
 Khaliullin, A. Kozhevnikov, M. Taillefumier, R. Meli, V. V. Rybkin, M. Brehm, 
 R. Schade, O. Schütt, J. V. Pototschnig, H. Mirhosseini, A. Knüpfer, D. Marx, 
 M. Krack, J. Hutter, T. D. Kühne.
 J. Phys. Chem. B 130, 1237-1310 (2026).
 The CP2K Program Package Made Simple.
 https://doi.org/10.1021/acs.jpcb.5c05851

 A. Katbashev, M. Stahn, T. Rose, V. Alizadeh, M. Friede, C. Plett, P. 
 Steinbach, S. Ehlert.
 J. Phys. Chem. A 129, 2667-2682 (2025).
 Overview on Building Blocks and Applications of Efficient and Robust Extended 
 Tight Binding.
 https://doi.org/10.1021/acs.jpca.4c08263

 T. D. Kühne, M. Iannuzzi, M. Del Ben, V. V. Rybkin, P. Seewald, F. Stein, T. 
 Laino, R. Z. Khaliullin, O. Schütt, F. Schiffmann, D. Golze, J. Wilhelm, S. 
 Chulkov, M. H. Bani-Hashemian, V. Weber, U. Borstnik, M. Taillefumier, A. S. 
 Jakobovits, A. Lazzaro, H. Pabst, T. Müller, R. Schade, M. Guidon, S. 
 Andermatt, N. Holmberg, G. K. Schenter, A. Hehn, A. Bussy, F. Belleflamme, G. 
 Tabacchi, A. Glöß, M. Lass, I. Bethune, C. J. Mundy, C. Plessl, M. Watkins, 
 J. VandeVondele, M. Krack, J. Hutter.
 J. Chem. Phys. 152, 194103 (2020).
 CP2K: An electronic structure and molecular dynamics software package - 
 Quickstep: Efficient and accurate electronic structure calculations.
 https://doi.org/10.1063/5.0007045

 P. Pracht, E. Caldeweyher, S. Ehlert, S. Grimme.
 ChemRxiv, (2019).
 A Robust Non-Self-Consistent Tight-Binding Quantum Chemistry Method for large 
 Molecules.
 https://doi.org/10.26434/chemrxiv.8326202.v1

 S. Grimme, C. Bannwarth, P. Shushkov.
 J. Chem. Theory Comput. 13, 1989 (2017).
 A Robust and Accurate Tight-Binding Quantum Chemical Method for Structures, 
 Vibrational Frequencies, and Noncovalent Interactions of Large Molecular 
 Systems Parametrized for All spd-Block Elements (Z = 1-86).
 https://doi.org/10.1021/acs.jctc.7b00118

 O. Schuett, P. Messmer, J. Hutter, J. VandeVondele.
 Electronic Structure Calculations on Graphics Processing Units, 173-190 (2016).
 GPU-Accelerated Sparse Matrix-Matrix Multiplication for Linear Scaling Density 
 Functional Theory.
 https://doi.org/10.1002/9781118670712.ch8

 A. Heinecke, G. Henry, M. Hutchinson, H. Pabst.
 Proceedings of Intl. Supercomputing Conference, 981-991 (2016).
 LIBXSMM: Accelerating Small Matrix Multiplications by Runtime Code Generation.
 https://doi.org/10.1109/SC.2016.83

 U. Borstnik, J. VandeVondele, V. Weber, J. Hutter.
 Parallel Comput. 40, 47-58 (2014).
 Sparse matrix multiplication: The distributed block-compressed sparse row 
 library.
 https://doi.org/10.1016/j.parco.2014.03.012

 T. D. Kühne, M. Krack, F. R. Mohamed, M. Parrinello.
 Phys. Rev. Lett. 98, 066401 (2007).
 Efficient and accurate Car-Parrinello-like approach to Born-Oppenheimer 
 molecular dynamics.
 https://doi.org/10.1103/PhysRevLett.98.066401

 M. Frigo, S. G. Johnson.
 Proc. IEEE 93, 216-231 (2005).
 The design and implementation of FFTW3.
 https://doi.org/10.1109/JPROC.2004.840301

 J. Kolafa.
 J. Comput. Chem. 25, 335-342 (2004).
 Time-reversible always stable predictor-corrector method for molecular dynamics 
 of polarizable molecules.
 https://doi.org/10.1002/jcc.10385

 N. D. Mermin.
 Phys. Rev. 137, A1441-A1443 (1965).
 Thermal Properties of the Inhomogeneous Electron Gas.
 https://doi.org/10.1103/PhysRev.137.A1441


 -------------------------------------------------------------------------------
 -                                                                             -
 -                                T I M I N G                                  -
 -                                                                             -
 -------------------------------------------------------------------------------
 SUBROUTINE                       CALLS  ASD         SELF TIME        TOTAL TIME
                                MAXIMUM       AVERAGE  MAXIMUM  AVERAGE  MAXIMUM
 CP2K                                 1  1.0    0.002    0.002   19.265   19.265
 cp_cell_opt                          1  2.0    0.000    0.000   19.258   19.258
 geoopt_bfgs                          1  3.0    0.013    0.013   19.258   19.258
 cp_eval_at                         155  4.0    0.013    0.013   19.099   19.099
 qs_forces                          154  5.0    0.007    0.007   19.060   19.060
 build_tblite_matrices              309  7.0    8.572    8.572    8.678    8.678
 rebuild_ks_matrix                 1434  9.7    0.001    0.001    7.958    7.958
 build_tblite_ks_matrix            1434 10.7    7.949    7.949    7.957    7.957
 qs_ks_update_qs_env_forces         154  6.0    0.000    0.000    7.858    7.858
 qs_energies                        155  6.0    0.004    0.004    5.916    5.916
 qs_energies_init_hamiltonians      155  7.0    0.001    0.001    3.581    3.581
 scf_env_do_scf                     155  7.0    0.002    0.002    1.745    1.745
 scf_env_do_scf_inner_loop         1280  8.0    0.059    0.059    1.737    1.737
 qs_scf_new_mos                    1280  9.0    0.004    0.004    1.462    1.462
 cp_dbcsr_plus_fm_fm_t             1588 10.8    0.006    0.006    0.647    0.647
 dbcsr_multiply_generic            2348 12.0    0.031    0.031    0.608    0.608
 calculate_dm_sparse               1434 10.0    0.004    0.004    0.591    0.591
 init_scf_run                       155  7.0    0.001    0.001    0.482    0.482
 eigensolver                       1280 10.0    0.014    0.014    0.458    0.458
 cp_fm_syevd                       1587 10.5    0.002    0.002    0.452    0.452
 scf_env_initial_rho_setup          155  8.0    0.001    0.001    0.449    0.449
 wfi_extrapolate                    155  9.0    0.004    0.004    0.448    0.448
 copy_dbcsr_to_fm                  3320 10.6    0.012    0.012    0.433    0.433
 dbcsr_complete_redistribute       7256 12.2    0.281    0.281    0.431    0.431
 cp_fm_syevd_base                  1587 11.5    0.386    0.386    0.386    0.386
 -------------------------------------------------------------------------------

 The number of warnings for this run is : 0
 
 -------------------------------------------------------------------------------
  **** **** ******  **  PROGRAM ENDED AT                 2026-05-23 22:47:17.026
 ***** ** ***  *** **   PROGRAM RAN ON                                spark-c86c
 **    ****   ******    PROGRAM RAN BY                                  kuehne88
 ***** **    ** ** **   PROGRAM PROCESS ID                               2266311
  **** **  *******  **  PROGRAM STOPPED IN /home/kuehne88/periodic-gfn2-benchmar
                                           ks/X23b/runs/cellopt_gamma/GFN1/pyraz
                                           ine_GFN1_gamma_cellopt
