 DBCSR| CPU Multiplication driver                                           XSMM (U)
 DBCSR| Multrec recursion limit                                              512 (U)
 DBCSR| Multiplication stack size                                           1000 (D)
 DBCSR| Maximum elements for images                                    UNLIMITED (U)
 DBCSR| Multiplicative factor virtual images                                   1 (U)
 DBCSR| Use multiplication densification                                       T (D)
 DBCSR| Multiplication size stacks                                             3 (U)
 DBCSR| Use memory pool for CPU allocation                                     F (U)
 DBCSR| Number of 3D layers                                               SINGLE (U)
 DBCSR| Use MPI memory allocation                                              F (U)
 DBCSR| Use RMA algorithm                                                      F (U)
 DBCSR| Use Communication thread                                               T (U)
 DBCSR| Communication thread load                                             87 (D)
 DBCSR| MPI: My process id                                                     0
 DBCSR| MPI: Number of processes                                               1
 DBCSR| OMP: Current number of threads                                         1
 DBCSR| OMP: Max number of threads                                             1
 DBCSR| Split modifier for TAS multiplication algorithm                  1.0E+00 (U)


  **** **** ******  **  PROGRAM STARTED AT               2026-05-23 22:46:18.303
 ***** ** ***  *** **   PROGRAM STARTED ON                            spark-c86c
 **    ****   ******    PROGRAM STARTED BY                              kuehne88
 ***** **    ** ** **   PROGRAM PROCESS ID                               2222438
  **** **  *******  **  PROGRAM STARTED IN /home/kuehne88/periodic-gfn2-benchmar
                                           ks/X23b/runs/molecule_geoopt/GFN1/hex
                                           amine_GFN1_mol_geoopt

 CP2K| version string:                 CP2K version 2026.1 (Development Version)
 CP2K| source code revision number:                                   0622d442e4
 CP2K| cp2kflags: omp fftw3 libxc parallel scalapack mpi_f08 xsmm spglib libdftd
 CP2K|            4 dftd4_v3 mctc-lib tblite
 CP2K| is freely available from                            https://www.cp2k.org/
 CP2K| Program compiled at                                   2026-05-23 22:05:08
 CP2K| Program compiled on                                            spark-c86c
 CP2K| Program compiled for                                              aarch64
 CP2K| Data directory path    /home/kuehne88/cp2k-master-tblite-20260523/install
 CP2K| Input file name                              hexamine_GFN1_mol_geoopt.inp

 GLOBAL| Force Environment number                                              1
 GLOBAL| Basis set file name                                           BASIS_SET
 GLOBAL| Potential file name                                           POTENTIAL
 GLOBAL| MM Potential file name                                     MM_POTENTIAL
 GLOBAL| Coordinate file name                                      __STD_INPUT__
 GLOBAL| Method name                                                        CP2K
 GLOBAL| Project name                                   hexamine_GFN1_mol_geoopt
 GLOBAL| Run type                                                        GEO_OPT
 GLOBAL| FFT library                                                       FFTW3
 GLOBAL| Diagonalization library                                       ScaLAPACK
 GLOBAL| Cholesky decomposition library                                ScaLAPACK
 GLOBAL| DGEMM library                                                      BLAS
 GLOBAL| Direct generalized diagonalization requested                          F
 GLOBAL| Orthonormality check for eigenvectors                          DISABLED
 GLOBAL| Matrix multiplication library                                 ScaLAPACK
 GLOBAL| All-to-all communication in single precision                          F
 GLOBAL| FFTs using library dependent lengths                                  F
 GLOBAL| Grid backend                                                       AUTO
 GLOBAL| Global print level                                                  LOW
 GLOBAL| MPI I/O enabled                                                       T
 GLOBAL| Total number of message passing processes                             1
 GLOBAL| Number of distributed systems (nodes)                                 1
 GLOBAL| Number of threads for this process                                    1
 GLOBAL| This output is from process                                           0
 GLOBAL| OpenMP stack size per thread (OMP_STACKSIZE)                    default
 GLOBAL| CPU model name                                                  UNKNOWN
 GLOBAL| CPUID                                                              2200
 GLOBAL| Compiled for CPUID                                                 2000

 *** HINT in environment.F:970 :: The compiler target flags (arm_arch64)   ***
 *** used to build this binary cannot exploit all extensions of this CPU   ***
 *** model (arm_sve256). Consider compiler target flags as part of FCFLAGS ***
 *** and CFLAGS (ARCH file).                                               ***


 MEMORY| system memory details [Kb]
 MEMORY|                        rank 0           min           max       average
 MEMORY| MemTotal            125508532     125508532     125508532     125508532
 MEMORY| MemFree             106720132     106720132     106720132     106720132
 MEMORY| Buffers                865972        865972        865972        865972
 MEMORY| Cached               13214800      13214800      13214800      13214800
 MEMORY| Slab                  1565140       1565140       1565140       1565140
 MEMORY| SReclaimable           888284        888284        888284        888284
 MEMORY| MemLikelyFree       121689188     121689188     121689188     121689188


 GENERATE|  Preliminary Number of Bonds generated:                             0
 GENERATE|  Achieved consistency in connectivity generation.


                  #####   #####        #     #   #     #       #          
                 #     # #     #      #    ##### #     #   # #####  ####  
                 #     # #           #       #   ###   #       #   #    # 
                 #     #  #####     #        #   #  #  #   #   #   ###### 
                 #   # #       #   #         #   #   # #   #   #   #      
                 #    #  #     #  #          #   #  #  # # #   #    #   # 
                  #### #  #####  #           #   ###   ##  #   #     ###  

                                   GFN1-xTB  
                                 Version 0.0                       
                            Johann V. Pototschnig                  



 TOTAL NUMBERS AND MAXIMUM NUMBERS

  Total number of            - Atomic kinds:                                   3
                             - Atoms:                                         22
                             - Shell sets:                                    44
                             - Shells:                                        44
                             - Primitive Cartesian functions:                252
                             - Cartesian basis functions:                     64
                             - Spherical basis functions:                     64

  Maximum angular momentum of the orbital basis functions:                     1


 SCF PARAMETERS         Density guess:                                     MOPAC
                        --------------------------------------------------------
                        max_scf:                                             300
                        max_scf_history:                                       0
                        max_diis:                                              4
                        --------------------------------------------------------
                        eps_scf:                                        1.00E-09
                        eps_scf_history:                                0.00E+00
                        eps_diis:                                       1.00E-01
                        eps_eigval:                                     1.00E-05
                        --------------------------------------------------------
                        level_shift [a.u.]:                             0.000000
                        added MOs                                        36    0
                        --------------------------------------------------------
                        Mixing method:                           DIRECT_P_MIXING
                        --------------------------------------------------------
                        Smear method:                                FERMI_DIRAC
                        Electronic temperature [K]:                        300.0
                        Electronic temperature [a.u.]:                  9.50E-04
                        Accuracy threshold:                             1.00E-06
                        --------------------------------------------------------
                        No outer SCF

 BFGS| Use rational function optimization for step estimation:                NO
 BFGS| Use model Hessian for initial guess:                                  YES
 BFGS| Restart Hessian:                                                       NO
 BFGS| Trust radius:                                                       0.472

 *******************************************************************************
 ***                     STARTING GEOMETRY OPTIMIZATION                      ***
 ***                                   BFGS                                  ***
 *******************************************************************************

 Extrapolation method: initial_guess

 Number of electrons:                                                         56
 Number of occupied orbitals:                                                 28
 Number of molecular orbitals:                                                64

 Number of orbital functions:                                                 64
 Number of independent orbital functions:                                     64


 SCF WAVEFUNCTION OPTIMIZATION

  Step     Update method      Time    Convergence         Total energy    Change
  ------------------------------------------------------------------------------
     1 TBLite/Diag 0.40E+00    0.0     1.43882969       -31.7541713231 -3.18E+01
     2 TBLite/Diag 0.40E+00    0.0     0.15136241       -31.9259658829 -1.72E-01
     3 TBLite/Diag 0.40E+00    0.0     0.03304527       -31.9278678227 -1.90E-03
     4 TBLite/Diag 0.40E+00    0.0     0.01289494       -31.9286969717 -8.29E-04
     5 TBLite/Diag 0.40E+00    0.0     0.00268363       -31.9287291764 -3.22E-05
     6 TBLite/Diag 0.40E+00    0.0     0.00080051       -31.9287344680 -5.29E-06
     7 TBLite/Diag 0.40E+00    0.0     0.00002446       -31.9287344729 -4.90E-09
     8 TBLite/Diag 0.40E+00    0.0     0.00000131       -31.9287344729 -1.40E-11
     9 TBLite/Diag 0.40E+00    0.0     0.00000004       -31.9287344729 -2.84E-14
    10 TBLite/Diag 0.40E+00    0.0     5.2132E-10       -31.9287344729  1.42E-14

  *** SCF run converged in    10 steps ***


  Core Hamiltonian energy:                                    -32.26624895614855
  Repulsive potential energy:                                   0.28698005055304
  Electrostatic energy:                                         0.06272902589678
  Self-consistent dispersion energy:                            0.00000000000000
  Non-self consistent dispersion energy:                       -0.01219459321146
  Correction for halogen bonding:                               0.00000000000000
  Electronic entropic energy:                                  -0.00000000000000
  Fermi energy:                                                -0.14900950708346

  Total energy:                                               -31.92873447291018
  Total energy (extrapolated to T->0):                        -31.92873447291018

 ENERGY| Total FORCE_EVAL ( QS ) energy [hartree]            -31.928734472910183

 OPT| **************************************************************************
 OPT| Step number                                                              0
 OPT| Optimization method                                                   BFGS
 OPT| Total energy [hartree]                                      -31.9287344729
 OPT| Used time [s]                                                        0.023
 OPT| **************************************************************************
 OPT| Estimated peak process memory [MiB]                                    167

 --------------------------
 OPTIMIZATION STEP:      1
 --------------------------

 Extrapolation method: ASPC

 Number of electrons:                                                         56
 Number of occupied orbitals:                                                 28
 Number of molecular orbitals:                                                64

 Number of orbital functions:                                                 64
 Number of independent orbital functions:                                     64


 SCF WAVEFUNCTION OPTIMIZATION

  Step     Update method      Time    Convergence         Total energy    Change
  ------------------------------------------------------------------------------
     1 TBLite/Diag 0.40E+00    0.0     0.07904108       -31.9263752306 -3.19E+01
     2 TBLite/Diag 0.40E+00    0.0     0.00379743       -31.9264863318 -1.11E-04
     3 TBLite/Diag 0.40E+00    0.0     0.00040381       -31.9264867921 -4.60E-07
     4 TBLite/Diag 0.40E+00    0.0     0.00010129       -31.9264868720 -7.99E-08
     5 TBLite/Diag 0.40E+00    0.0     0.00002713       -31.9264868782 -6.14E-09
     6 TBLite/Diag 0.40E+00    0.0     0.00000021       -31.9264868782 -3.06E-13
     7 TBLite/Diag 0.40E+00    0.0     0.00000002       -31.9264868782  2.13E-14
     8 TBLite/Diag 0.40E+00    0.0     7.0463E-10       -31.9264868782  3.55E-14

  *** SCF run converged in     8 steps ***


  Core Hamiltonian energy:                                    -32.27828089880995
  Repulsive potential energy:                                   0.29745438095788
  Electrostatic energy:                                         0.06652358050287
  Self-consistent dispersion energy:                            0.00000000000000
  Non-self consistent dispersion energy:                       -0.01218394081572
  Correction for halogen bonding:                               0.00000000000000
  Electronic entropic energy:                                  -0.00000000000000
  Fermi energy:                                                -0.14824367823432

  Total energy:                                               -31.92648687816492
  Total energy (extrapolated to T->0):                        -31.92648687816492

 ENERGY| Total FORCE_EVAL ( QS ) energy [hartree]            -31.926486878164919

 OPT| **************************************************************************
 OPT| Step number                                                              1
 OPT| Optimization method                                                   BFGS
 OPT| Total energy [hartree]                                      -31.9264868782
 OPT| Effective energy change [hartree]                             0.0022475947
 OPT| Predicted energy change [hartree]                            -0.0034242975
 OPT| Scaling factor                                                0.0000000000
 OPT| Step size                                                     0.0887978894
 OPT| Trust radius                                                  0.4724315332
 OPT| Decrease in energy                                                      NO
 OPT| Used time [s]                                                        0.020
 OPT|
 OPT| Maximum step size                                             0.0887978894
 OPT| Convergence limit for maximum step size                       0.0030000000
 OPT| Maximum step size is converged                                          NO
 OPT|
 OPT| RMS step size                                                 0.0252622411
 OPT| Convergence limit for RMS step size                           0.0015000000
 OPT| RMS step size is converged                                              NO
 OPT|
 OPT| Maximum gradient                                              0.0222772652
 OPT| Convergence limit for maximum gradient                        0.0004500000
 OPT| Maximum gradient is converged                                           NO
 OPT|
 OPT| RMS gradient                                                  0.0076597960
 OPT| Convergence limit for RMS gradient                            0.0003000000
 OPT| RMS gradient is converged                                               NO
 OPT| **************************************************************************
 OPT| Estimated peak process memory after this step [MiB]                    167

 --------------------------
 OPTIMIZATION STEP:      2
 --------------------------

 Extrapolation method: ASPC

 Number of electrons:                                                         56
 Number of occupied orbitals:                                                 28
 Number of molecular orbitals:                                                64

 Number of orbital functions:                                                 64
 Number of independent orbital functions:                                     64


 SCF WAVEFUNCTION OPTIMIZATION

  Step     Update method      Time    Convergence         Total energy    Change
  ------------------------------------------------------------------------------
     1 TBLite/Diag 0.40E+00    0.0     0.04957445       -31.9306659731 -3.19E+01
     2 TBLite/Diag 0.40E+00    0.0     0.00209295       -31.9306978912 -3.19E-05
     3 TBLite/Diag 0.40E+00    0.0     0.00028291       -31.9306982421 -3.51E-07
     4 TBLite/Diag 0.40E+00    0.0     0.00005557       -31.9306982749 -3.28E-08
     5 TBLite/Diag 0.40E+00    0.0     0.00002765       -31.9306982817 -6.76E-09
     6 TBLite/Diag 0.40E+00    0.0     0.00000005       -31.9306982817 -2.13E-14
     7 TBLite/Diag 0.40E+00    0.0     0.00000002       -31.9306982817  1.78E-14
     8 TBLite/Diag 0.40E+00    0.0     3.7843E-09       -31.9306982817  7.11E-15
     9 TBLite/Diag 0.40E+00    0.0     3.4251E-10       -31.9306982817 -1.42E-14

  *** SCF run converged in     9 steps ***


  Core Hamiltonian energy:                                    -32.28408472039373
  Repulsive potential energy:                                   0.30181640257710
  Electrostatic energy:                                         0.06377858381539
  Self-consistent dispersion energy:                            0.00000000000000
  Non-self consistent dispersion energy:                       -0.01220854768338
  Correction for halogen bonding:                               0.00000000000000
  Electronic entropic energy:                                  -0.00000000000000
  Fermi energy:                                                -0.14851533887389

  Total energy:                                               -31.93069828168462
  Total energy (extrapolated to T->0):                        -31.93069828168462

 ENERGY| Total FORCE_EVAL ( QS ) energy [hartree]            -31.930698281684620

 OPT| **************************************************************************
 OPT| Step number                                                              2
 OPT| Optimization method                                                   BFGS
 OPT| Total energy [hartree]                                      -31.9306982817
 OPT| Effective energy change [hartree]                            -0.0042114035
 OPT| Predicted energy change [hartree]                            -0.0042740391
 OPT| Scaling factor                                                0.0000000000
 OPT| Step size                                                     0.0466747577
 OPT| Trust radius                                                  0.4724315332
 OPT| Decrease in energy                                                     YES
 OPT| Used time [s]                                                        0.022
 OPT|
 OPT| Maximum step size                                             0.0466747577
 OPT| Convergence limit for maximum step size                       0.0030000000
 OPT| Maximum step size is converged                                          NO
 OPT|
 OPT| RMS step size                                                 0.0188481957
 OPT| Convergence limit for RMS step size                           0.0015000000
 OPT| RMS step size is converged                                              NO
 OPT|
 OPT| Maximum gradient                                              0.0008522651
 OPT| Convergence limit for maximum gradient                        0.0004500000
 OPT| Maximum gradient is converged                                           NO
 OPT|
 OPT| RMS gradient                                                  0.0003904502
 OPT| Convergence limit for RMS gradient                            0.0003000000
 OPT| RMS gradient is converged                                               NO
 OPT| **************************************************************************
 OPT| Estimated peak process memory after this step [MiB]                    168

 --------------------------
 OPTIMIZATION STEP:      3
 --------------------------

 Extrapolation method: ASPC

 Number of electrons:                                                         56
 Number of occupied orbitals:                                                 28
 Number of molecular orbitals:                                                64

 Number of orbital functions:                                                 64
 Number of independent orbital functions:                                     64


 SCF WAVEFUNCTION OPTIMIZATION

  Step     Update method      Time    Convergence         Total energy    Change
  ------------------------------------------------------------------------------
     1 TBLite/Diag 0.40E+00    0.0     0.00149145       -31.9307288820 -3.19E+01
     2 TBLite/Diag 0.40E+00    0.0     0.00008902       -31.9307289357 -5.37E-08
     3 TBLite/Diag 0.40E+00    0.0     0.00001008       -31.9307289361 -3.97E-10
     4 TBLite/Diag 0.40E+00    0.0     0.00000186       -31.9307289361 -2.44E-11
     5 TBLite/Diag 0.40E+00    0.0     0.00000114       -31.9307289361 -7.08E-12
     6 TBLite/Diag 0.40E+00    0.0     0.00000011       -31.9307289361 -4.97E-14
     7 TBLite/Diag 0.40E+00    0.0     0.00000002       -31.9307289361  4.26E-14
     8 TBLite/Diag 0.40E+00    0.0     2.3547E-09       -31.9307289361 -5.33E-14
     9 TBLite/Diag 0.40E+00    0.0     5.0796E-11       -31.9307289361  1.07E-14

  *** SCF run converged in     9 steps ***


  Core Hamiltonian energy:                                    -32.28409383931931
  Repulsive potential energy:                                   0.30176806009018
  Electrostatic energy:                                         0.06381003806747
  Self-consistent dispersion energy:                            0.00000000000000
  Non-self consistent dispersion energy:                       -0.01221319497921
  Correction for halogen bonding:                               0.00000000000000
  Electronic entropic energy:                                  -0.00000000000000
  Fermi energy:                                                -0.14852439176373

  Total energy:                                               -31.93072893614087
  Total energy (extrapolated to T->0):                        -31.93072893614087

 ENERGY| Total FORCE_EVAL ( QS ) energy [hartree]            -31.930728936140873

 OPT| **************************************************************************
 OPT| Step number                                                              3
 OPT| Optimization method                                                   BFGS
 OPT| Total energy [hartree]                                      -31.9307289361
 OPT| Effective energy change [hartree]                            -0.0000306545
 OPT| Predicted energy change [hartree]                            -0.0000228642
 OPT| Scaling factor                                                0.0000000000
 OPT| Step size                                                     0.0056461961
 OPT| Trust radius                                                  0.4724315332
 OPT| Decrease in energy                                                     YES
 OPT| Used time [s]                                                        0.022
 OPT|
 OPT| Maximum step size                                             0.0056461961
 OPT| Convergence limit for maximum step size                       0.0030000000
 OPT| Maximum step size is converged                                          NO
 OPT|
 OPT| RMS step size                                                 0.0024383325
 OPT| Convergence limit for RMS step size                           0.0015000000
 OPT| RMS step size is converged                                              NO
 OPT|
 OPT| Maximum gradient                                              0.0005252666
 OPT| Convergence limit for maximum gradient                        0.0004500000
 OPT| Maximum gradient is converged                                           NO
 OPT|
 OPT| RMS gradient                                                  0.0002087452
 OPT| Convergence limit for RMS gradient                            0.0003000000
 OPT| RMS gradient is converged                                              YES
 OPT| **************************************************************************
 OPT| Estimated peak process memory after this step [MiB]                    168

 --------------------------
 OPTIMIZATION STEP:      4
 --------------------------

 Extrapolation method: ASPC

 Number of electrons:                                                         56
 Number of occupied orbitals:                                                 28
 Number of molecular orbitals:                                                64

 Number of orbital functions:                                                 64
 Number of independent orbital functions:                                     64


 SCF WAVEFUNCTION OPTIMIZATION

  Step     Update method      Time    Convergence         Total energy    Change
  ------------------------------------------------------------------------------
     1 TBLite/Diag 0.40E+00    0.0     0.00158271       -31.9307357710 -3.19E+01
     2 TBLite/Diag 0.40E+00    0.0     0.00009230       -31.9307358392 -6.82E-08
     3 TBLite/Diag 0.40E+00    0.0     0.00000742       -31.9307358394 -1.42E-10
     4 TBLite/Diag 0.40E+00    0.0     0.00000232       -31.9307358394 -2.79E-11
     5 TBLite/Diag 0.40E+00    0.0     0.00000057       -31.9307358394 -8.21E-13
     6 TBLite/Diag 0.40E+00    0.0     0.00000014       -31.9307358394 -1.42E-14
     7 TBLite/Diag 0.40E+00    0.0     0.00000002       -31.9307358394 -1.07E-14
     8 TBLite/Diag 0.40E+00    0.0     2.3154E-09       -31.9307358394  7.11E-15
     9 TBLite/Diag 0.40E+00    0.0     2.6622E-11       -31.9307358394 -2.13E-14

  *** SCF run converged in     9 steps ***


  Core Hamiltonian energy:                                    -32.28469631684547
  Repulsive potential energy:                                   0.30236275803966
  Electrostatic energy:                                         0.06381518934531
  Self-consistent dispersion energy:                            0.00000000000000
  Non-self consistent dispersion energy:                       -0.01221746992373
  Correction for halogen bonding:                               0.00000000000000
  Electronic entropic energy:                                  -0.00000000000000
  Fermi energy:                                                -0.14852190508021

  Total energy:                                               -31.93073583938423
  Total energy (extrapolated to T->0):                        -31.93073583938423

 ENERGY| Total FORCE_EVAL ( QS ) energy [hartree]            -31.930735839384230

 OPT| **************************************************************************
 OPT| Step number                                                              4
 OPT| Optimization method                                                   BFGS
 OPT| Total energy [hartree]                                      -31.9307358394
 OPT| Effective energy change [hartree]                            -0.0000069032
 OPT| Predicted energy change [hartree]                            -0.0000067392
 OPT| Scaling factor                                                0.0000000000
 OPT| Step size                                                     0.0028950098
 OPT| Trust radius                                                  0.4724315332
 OPT| Decrease in energy                                                     YES
 OPT| Used time [s]                                                        0.022
 OPT|
 OPT| Maximum step size                                             0.0028950098
 OPT| Convergence limit for maximum step size                       0.0030000000
 OPT| Maximum step size is converged                                         YES
 OPT|
 OPT| RMS step size                                                 0.0014578425
 OPT| Convergence limit for RMS step size                           0.0015000000
 OPT| RMS step size is converged                                             YES
 OPT|
 OPT| Maximum gradient                                              0.0000995645
 OPT| Convergence limit for maximum gradient                        0.0004500000
 OPT| Maximum gradient is converged                                          YES
 OPT|
 OPT| RMS gradient                                                  0.0000348002
 OPT| Convergence limit for RMS gradient                            0.0003000000
 OPT| RMS gradient is converged                                              YES
 OPT| **************************************************************************
 OPT| Estimated peak process memory after this step [MiB]                    168

 *******************************************************************************
 ***                    GEOMETRY OPTIMIZATION COMPLETED                      ***
 *******************************************************************************

 write_final_structure: Optimization converged, writing XYZ file gladly:
  hexamine_GFN1_mol_geoopt-FINAL-1_4.xyz

 write_final_structure: Optimization converged, writing CIF file gladly:
  hexamine_GFN1_mol_geoopt-FINAL-1_4.cif

 write_final_structure: Done!

                    Reevaluating energy at the minimum

 Extrapolation method: ASPC

 Number of electrons:                                                         56
 Number of occupied orbitals:                                                 28
 Number of molecular orbitals:                                                64

 Number of orbital functions:                                                 64
 Number of independent orbital functions:                                     64


 SCF WAVEFUNCTION OPTIMIZATION

  Step     Update method      Time    Convergence         Total energy    Change
  ------------------------------------------------------------------------------
     1 TBLite/Diag 0.40E+00    0.0     1.7334E-11       -31.9307358394 -3.19E+01

  *** SCF run converged in     1 steps ***


  Core Hamiltonian energy:                                    -32.28469631684756
  Repulsive potential energy:                                   0.30236275803966
  Electrostatic energy:                                         0.06381518934740
  Self-consistent dispersion energy:                            0.00000000000000
  Non-self consistent dispersion energy:                       -0.01221746992373
  Correction for halogen bonding:                               0.00000000000000
  Electronic entropic energy:                                  -0.00000000000000
  Fermi energy:                                                -0.14852190508007

  Total energy:                                               -31.93073583938423
  Total energy (extrapolated to T->0):                        -31.93073583938423

 ENERGY| Total FORCE_EVAL ( QS ) energy [hartree]            -31.930735839384230

 -------------------------------------------------------------------------------
 -                                                                             -
 -                                DBCSR STATISTICS                             -
 -                                                                             -
 -------------------------------------------------------------------------------
 COUNTER                                    TOTAL       BLAS       SMM       ACC
 flops     2 x    32 x     2              1105920       0.0%    100.0%      0.0%     
 flops     4 x    32 x     2              1843200       0.0%    100.0%      0.0%     
 flops     2 x    32 x     4              1843200       0.0%    100.0%      0.0%     
 flops     2 x     2 x    64              2236416       0.0%    100.0%      0.0%     
 flops     4 x    32 x     4              3072000       0.0%    100.0%      0.0%     
 flops     2 x     4 x    64              3383296       0.0%    100.0%      0.0%     
 flops     4 x     2 x    64              3497984       0.0%    100.0%      0.0%     
 flops     4 x     4 x    64              6307840       0.0%    100.0%      0.0%     
 flops inhomo. stacks                           0       0.0%      0.0%      0.0%
 flops total                        23.289856E+06       0.0%    100.0%      0.0%
 flops max/rank                     23.289856E+06       0.0%    100.0%      0.0%
 matmuls inhomo. stacks                         0       0.0%      0.0%      0.0%
 matmuls total                              28688       0.0%    100.0%      0.0%
 number of processed stacks                   284       0.0%    100.0%      0.0%
 average stack size                                     0.0     101.0       0.0
 marketing flops                    20.709376E+06
 -------------------------------------------------------------------------------
 # multiplications                             71
 max memory usage/rank              13.672374E+09
 # max total images/rank                        1
 # max 3D layers                                1
 # MPI messages exchanged                       0
 -------------------------------------------------------------------------------
 -                                                                             -
 -                      DBCSR MESSAGE PASSING PERFORMANCE                      -
 -                                                                             -
 -------------------------------------------------------------------------------
 ROUTINE             CALLS      AVE VOLUME [Bytes]
 MP_Bcast                9                     12.
 MP_Allreduce          360                     10.
 MP_Alltoall          2315                  22235.
 MP_ISend              284                   1810.
 MP_IRecv              284                   1810.
 -------------------------------------------------------------------------------

 -------------------------------------------------------------------------------
 -                                                                             -
 -                          OFFLOAD MEMPOOL STATISTICS                         -
 -                                                                             -
 -------------------------------------------------------------------------------
 Memory consumption                Number of allocations  Used [MiB]  Size [MiB]
 Device                                                1           0           0
 Host                                                  1           0           0
 -------------------------------------------------------------------------------

 MEMORY| Estimated peak process memory [MiB]                                 168

 -------------------------------------------------------------------------------
 -                                                                             -
 -                         MESSAGE PASSING PERFORMANCE                         -
 -                                                                             -
 -------------------------------------------------------------------------------

 ROUTINE             CALLS      AVE VOLUME [Bytes]
 MP_Group                1
 MP_Bcast              106                    273.
 MP_Allreduce          893                    156.
 MP_Sync                57
 MP_comm_split          56
 -------------------------------------------------------------------------------


 -------------------------------------------------------------------------------
 -                                                                             -
 -                           R E F E R E N C E S                               -
 -                                                                             -
 -------------------------------------------------------------------------------
 
 CP2K version 2026.1 (Development Version), the CP2K developers group (2026).
 CP2K is freely available from https://www.cp2k.org/ .
 
 M. Iannuzzi, J. Wilhelm, F. Stein, A. Bussy, H. Elgabarty, D. Golze, A. Hehn, 
 M. Graml, S. Marek, B. Sertcan Gökmen, C. Schran, H. Forbert, R. Z. 
 Khaliullin, A. Kozhevnikov, M. Taillefumier, R. Meli, V. V. Rybkin, M. Brehm, 
 R. Schade, O. Schütt, J. V. Pototschnig, H. Mirhosseini, A. Knüpfer, D. Marx, 
 M. Krack, J. Hutter, T. D. Kühne.
 J. Phys. Chem. B 130, 1237-1310 (2026).
 The CP2K Program Package Made Simple.
 https://doi.org/10.1021/acs.jpcb.5c05851

 A. Katbashev, M. Stahn, T. Rose, V. Alizadeh, M. Friede, C. Plett, P. 
 Steinbach, S. Ehlert.
 J. Phys. Chem. A 129, 2667-2682 (2025).
 Overview on Building Blocks and Applications of Efficient and Robust Extended 
 Tight Binding.
 https://doi.org/10.1021/acs.jpca.4c08263

 T. D. Kühne, M. Iannuzzi, M. Del Ben, V. V. Rybkin, P. Seewald, F. Stein, T. 
 Laino, R. Z. Khaliullin, O. Schütt, F. Schiffmann, D. Golze, J. Wilhelm, S. 
 Chulkov, M. H. Bani-Hashemian, V. Weber, U. Borstnik, M. Taillefumier, A. S. 
 Jakobovits, A. Lazzaro, H. Pabst, T. Müller, R. Schade, M. Guidon, S. 
 Andermatt, N. Holmberg, G. K. Schenter, A. Hehn, A. Bussy, F. Belleflamme, G. 
 Tabacchi, A. Glöß, M. Lass, I. Bethune, C. J. Mundy, C. Plessl, M. Watkins, 
 J. VandeVondele, M. Krack, J. Hutter.
 J. Chem. Phys. 152, 194103 (2020).
 CP2K: An electronic structure and molecular dynamics software package - 
 Quickstep: Efficient and accurate electronic structure calculations.
 https://doi.org/10.1063/5.0007045

 P. Pracht, E. Caldeweyher, S. Ehlert, S. Grimme.
 ChemRxiv, (2019).
 A Robust Non-Self-Consistent Tight-Binding Quantum Chemistry Method for large 
 Molecules.
 https://doi.org/10.26434/chemrxiv.8326202.v1

 S. Grimme, C. Bannwarth, P. Shushkov.
 J. Chem. Theory Comput. 13, 1989 (2017).
 A Robust and Accurate Tight-Binding Quantum Chemical Method for Structures, 
 Vibrational Frequencies, and Noncovalent Interactions of Large Molecular 
 Systems Parametrized for All spd-Block Elements (Z = 1-86).
 https://doi.org/10.1021/acs.jctc.7b00118

 O. Schuett, P. Messmer, J. Hutter, J. VandeVondele.
 Electronic Structure Calculations on Graphics Processing Units, 173-190 (2016).
 GPU-Accelerated Sparse Matrix-Matrix Multiplication for Linear Scaling Density 
 Functional Theory.
 https://doi.org/10.1002/9781118670712.ch8

 A. Heinecke, G. Henry, M. Hutchinson, H. Pabst.
 Proceedings of Intl. Supercomputing Conference, 981-991 (2016).
 LIBXSMM: Accelerating Small Matrix Multiplications by Runtime Code Generation.
 https://doi.org/10.1109/SC.2016.83

 U. Borstnik, J. VandeVondele, V. Weber, J. Hutter.
 Parallel Comput. 40, 47-58 (2014).
 Sparse matrix multiplication: The distributed block-compressed sparse row 
 library.
 https://doi.org/10.1016/j.parco.2014.03.012

 T. D. Kühne, M. Krack, F. R. Mohamed, M. Parrinello.
 Phys. Rev. Lett. 98, 066401 (2007).
 Efficient and accurate Car-Parrinello-like approach to Born-Oppenheimer 
 molecular dynamics.
 https://doi.org/10.1103/PhysRevLett.98.066401

 M. Frigo, S. G. Johnson.
 Proc. IEEE 93, 216-231 (2005).
 The design and implementation of FFTW3.
 https://doi.org/10.1109/JPROC.2004.840301

 J. Kolafa.
 J. Comput. Chem. 25, 335-342 (2004).
 Time-reversible always stable predictor-corrector method for molecular dynamics 
 of polarizable molecules.
 https://doi.org/10.1002/jcc.10385

 N. D. Mermin.
 Phys. Rev. 137, A1441-A1443 (1965).
 Thermal Properties of the Inhomogeneous Electron Gas.
 https://doi.org/10.1103/PhysRev.137.A1441


 -------------------------------------------------------------------------------
 -                                                                             -
 -                                T I M I N G                                  -
 -                                                                             -
 -------------------------------------------------------------------------------
 SUBROUTINE                       CALLS  ASD         SELF TIME        TOTAL TIME
                                MAXIMUM       AVERAGE  MAXIMUM  AVERAGE  MAXIMUM
 CP2K                                 1  1.0    0.002    0.002    0.122    0.122
 cp_geo_opt                           1  2.0    0.000    0.000    0.115    0.115
 geoopt_bfgs                          1  3.0    0.001    0.001    0.115    0.115
 cp_eval_at                           6  4.0    0.000    0.000    0.111    0.111
 qs_forces                            5  5.0    0.000    0.000    0.104    0.104
 qs_energies                          6  5.8    0.000    0.000    0.081    0.081
 scf_env_do_scf                       6  6.8    0.000    0.000    0.057    0.057
 scf_env_do_scf_inner_loop           46  8.0    0.002    0.002    0.056    0.056
 qs_scf_new_mos                      46  9.0    0.000    0.000    0.047    0.047
 rebuild_ks_matrix                   51  9.7    0.000    0.000    0.023    0.023
 build_tblite_ks_matrix              51 10.7    0.022    0.022    0.023    0.023
 cp_dbcsr_plus_fm_fm_t               56 10.8    0.000    0.000    0.021    0.021
 build_tblite_matrices               11  7.0    0.019    0.019    0.020    0.020
 calculate_dm_sparse                 51 10.0    0.000    0.000    0.019    0.019
 qs_ks_update_qs_env_forces           5  6.0    0.000    0.000    0.019    0.019
 dbcsr_multiply_generic              71 11.9    0.001    0.001    0.018    0.018
 copy_dbcsr_to_fm                   107 10.4    0.000    0.000    0.014    0.014
 cp_fm_syevd                         56 10.5    0.000    0.000    0.014    0.014
 eigensolver                         46 10.0    0.000    0.000    0.014    0.014
 dbcsr_complete_redistribute        234 12.1    0.009    0.009    0.014    0.014
 cp_fm_syevd_base                    56 11.5    0.012    0.012    0.012    0.012
 init_scf_run                         6  6.8    0.000    0.000    0.011    0.011
 qs_energies_init_hamiltonians        6  6.8    0.000    0.000    0.010    0.010
 scf_env_initial_rho_setup            6  7.8    0.000    0.000    0.010    0.010
 wfi_extrapolate                      6  8.8    0.000    0.000    0.010    0.010
 make_m2s                           142 12.9    0.000    0.000    0.009    0.009
 qs_diis_b_step                      40 10.0    0.000    0.000    0.008    0.008
 copy_fm_to_dbcsr                   127 11.7    0.000    0.000    0.006    0.006
 cp_dbcsr_sm_fm_multiply             15 10.3    0.000    0.000    0.005    0.005
 multiply_cannon                     71 12.9    0.001    0.001    0.005    0.005
 qs_ks_update_qs_env                 46  9.0    0.000    0.000    0.005    0.005
 qs_init_subsys                       1  2.0    0.001    0.001    0.004    0.004
 make_images                        142 13.9    0.001    0.001    0.004    0.004
 dbcsr_desymmetrize_deep            107 11.4    0.002    0.002    0.004    0.004
 reorthogonalize_vectors              5  9.8    0.000    0.000    0.004    0.004
 make_basis_lowdin                    5 10.8    0.000    0.000    0.004    0.004
 dbcsr_finalize                     895 13.2    0.001    0.001    0.004    0.004
 cp_dbcsr_sm_fm_multiply_core        15 11.3    0.000    0.000    0.003    0.003
 -------------------------------------------------------------------------------

 The number of warnings for this run is : 0
 
 -------------------------------------------------------------------------------
  **** **** ******  **  PROGRAM ENDED AT                 2026-05-23 22:46:19.590
 ***** ** ***  *** **   PROGRAM RAN ON                                spark-c86c
 **    ****   ******    PROGRAM RAN BY                                  kuehne88
 ***** **    ** ** **   PROGRAM PROCESS ID                               2222438
  **** **  *******  **  PROGRAM STOPPED IN /home/kuehne88/periodic-gfn2-benchmar
                                           ks/X23b/runs/molecule_geoopt/GFN1/hex
                                           amine_GFN1_mol_geoopt
