 DBCSR| CPU Multiplication driver                                           XSMM (U)
 DBCSR| Multrec recursion limit                                              512 (U)
 DBCSR| Multiplication stack size                                           1000 (D)
 DBCSR| Maximum elements for images                                    UNLIMITED (U)
 DBCSR| Multiplicative factor virtual images                                   1 (U)
 DBCSR| Use multiplication densification                                       T (D)
 DBCSR| Multiplication size stacks                                             3 (U)
 DBCSR| Use memory pool for CPU allocation                                     F (U)
 DBCSR| Number of 3D layers                                               SINGLE (U)
 DBCSR| Use MPI memory allocation                                              F (U)
 DBCSR| Use RMA algorithm                                                      F (U)
 DBCSR| Use Communication thread                                               T (U)
 DBCSR| Communication thread load                                             87 (D)
 DBCSR| MPI: My process id                                                     0
 DBCSR| MPI: Number of processes                                               1
 DBCSR| OMP: Current number of threads                                         1
 DBCSR| OMP: Max number of threads                                             1
 DBCSR| Split modifier for TAS multiplication algorithm                  1.0E+00 (U)


  **** **** ******  **  PROGRAM STARTED AT               2026-05-23 22:46:19.877
 ***** ** ***  *** **   PROGRAM STARTED ON                            spark-c86c
 **    ****   ******    PROGRAM STARTED BY                              kuehne88
 ***** **    ** ** **   PROGRAM PROCESS ID                               2226367
  **** **  *******  **  PROGRAM STARTED IN /home/kuehne88/periodic-gfn2-benchmar
                                           ks/X23b/runs/molecule_geoopt/GFN2/ant
                                           hracene_GFN2_mol_geoopt

 CP2K| version string:                 CP2K version 2026.1 (Development Version)
 CP2K| source code revision number:                                   0622d442e4
 CP2K| cp2kflags: omp fftw3 libxc parallel scalapack mpi_f08 xsmm spglib libdftd
 CP2K|            4 dftd4_v3 mctc-lib tblite
 CP2K| is freely available from                            https://www.cp2k.org/
 CP2K| Program compiled at                                   2026-05-23 22:05:08
 CP2K| Program compiled on                                            spark-c86c
 CP2K| Program compiled for                                              aarch64
 CP2K| Data directory path    /home/kuehne88/cp2k-master-tblite-20260523/install
 CP2K| Input file name                            anthracene_GFN2_mol_geoopt.inp

 GLOBAL| Force Environment number                                              1
 GLOBAL| Basis set file name                                           BASIS_SET
 GLOBAL| Potential file name                                           POTENTIAL
 GLOBAL| MM Potential file name                                     MM_POTENTIAL
 GLOBAL| Coordinate file name                                      __STD_INPUT__
 GLOBAL| Method name                                                        CP2K
 GLOBAL| Project name                                 anthracene_GFN2_mol_geoopt
 GLOBAL| Run type                                                        GEO_OPT
 GLOBAL| FFT library                                                       FFTW3
 GLOBAL| Diagonalization library                                       ScaLAPACK
 GLOBAL| Cholesky decomposition library                                ScaLAPACK
 GLOBAL| DGEMM library                                                      BLAS
 GLOBAL| Direct generalized diagonalization requested                          F
 GLOBAL| Orthonormality check for eigenvectors                          DISABLED
 GLOBAL| Matrix multiplication library                                 ScaLAPACK
 GLOBAL| All-to-all communication in single precision                          F
 GLOBAL| FFTs using library dependent lengths                                  F
 GLOBAL| Grid backend                                                       AUTO
 GLOBAL| Global print level                                                  LOW
 GLOBAL| MPI I/O enabled                                                       T
 GLOBAL| Total number of message passing processes                             1
 GLOBAL| Number of distributed systems (nodes)                                 1
 GLOBAL| Number of threads for this process                                    1
 GLOBAL| This output is from process                                           0
 GLOBAL| OpenMP stack size per thread (OMP_STACKSIZE)                    default
 GLOBAL| CPU model name                                                  UNKNOWN
 GLOBAL| CPUID                                                              2200
 GLOBAL| Compiled for CPUID                                                 2000

 *** HINT in environment.F:970 :: The compiler target flags (arm_arch64)   ***
 *** used to build this binary cannot exploit all extensions of this CPU   ***
 *** model (arm_sve256). Consider compiler target flags as part of FCFLAGS ***
 *** and CFLAGS (ARCH file).                                               ***


 MEMORY| system memory details [Kb]
 MEMORY|                        rank 0           min           max       average
 MEMORY| MemTotal            125508532     125508532     125508532     125508532
 MEMORY| MemFree             106152748     106152748     106152748     106152748
 MEMORY| Buffers                866104        866104        866104        866104
 MEMORY| Cached               13217092      13217092      13217092      13217092
 MEMORY| Slab                  1564676       1564676       1564676       1564676
 MEMORY| SReclaimable           888664        888664        888664        888664
 MEMORY| MemLikelyFree       121124608     121124608     121124608     121124608


 GENERATE|  Preliminary Number of Bonds generated:                             0
 GENERATE|  Achieved consistency in connectivity generation.


                  #####   #####        #     #   #     #       #          
                 #     # #     #      #    ##### #     #   # #####  ####  
                 #     # #           #       #   ###   #       #   #    # 
                 #     #  #####     #        #   #  #  #   #   #   ###### 
                 #   # #       #   #         #   #   # #   #   #   #      
                 #    #  #     #  #          #   #  #  # # #   #    #   # 
                  #### #  #####  #           #   ###   ##  #   #     ###  

                                   GFN2-xTB  
                                 Version 0.0                       
                            Johann V. Pototschnig                  



 TOTAL NUMBERS AND MAXIMUM NUMBERS

  Total number of            - Atomic kinds:                                   2
                             - Atoms:                                         24
                             - Shell sets:                                    38
                             - Shells:                                        38
                             - Primitive Cartesian functions:                142
                             - Cartesian basis functions:                     66
                             - Spherical basis functions:                     66

  Maximum angular momentum of the orbital basis functions:                     1


 SCF PARAMETERS         Density guess:                                     MOPAC
                        --------------------------------------------------------
                        max_scf:                                             300
                        max_scf_history:                                       0
                        max_diis:                                              4
                        --------------------------------------------------------
                        eps_scf:                                        1.00E-09
                        eps_scf_history:                                0.00E+00
                        eps_diis:                                       1.00E-01
                        eps_eigval:                                     1.00E-05
                        --------------------------------------------------------
                        level_shift [a.u.]:                             0.000000
                        added MOs                                        33    0
                        --------------------------------------------------------
                        Mixing method:                           DIRECT_P_MIXING
                        --------------------------------------------------------
                        Smear method:                                FERMI_DIRAC
                        Electronic temperature [K]:                        300.0
                        Electronic temperature [a.u.]:                  9.50E-04
                        Accuracy threshold:                             1.00E-06
                        --------------------------------------------------------
                        No outer SCF

 BFGS| Use rational function optimization for step estimation:                NO
 BFGS| Use model Hessian for initial guess:                                  YES
 BFGS| Restart Hessian:                                                       NO
 BFGS| Trust radius:                                                       0.472

 *******************************************************************************
 ***                     STARTING GEOMETRY OPTIMIZATION                      ***
 ***                                   BFGS                                  ***
 *******************************************************************************

 Extrapolation method: initial_guess

 Number of electrons:                                                         66
 Number of occupied orbitals:                                                 33
 Number of molecular orbitals:                                                66

 Number of orbital functions:                                                 66
 Number of independent orbital functions:                                     66


 SCF WAVEFUNCTION OPTIMIZATION

  Step     Update method      Time    Convergence         Total energy    Change
  ------------------------------------------------------------------------------
     1 TBLite/Diag 0.40E+00    0.0     0.62024706       -35.0554062683 -3.51E+01
     2 TBLite/Diag 0.40E+00    0.0     0.02867538       -35.0611773257 -5.77E-03
     3 TBLite/Diag 0.40E+00    0.0     0.01705330       -35.0609176548  2.60E-04
     4 TBLite/Diag 0.40E+00    0.0     0.01958404       -35.0616008200 -6.83E-04
     5 TBLite/Diag 0.40E+00    0.0     0.00706304       -35.0618865536 -2.86E-04
     6 TBLite/Diag 0.40E+00    0.0     0.00228913       -35.0618878019 -1.25E-06
     7 TBLite/Diag 0.40E+00    0.0     0.00125705       -35.0618921953 -4.39E-06
     8 TBLite/Diag 0.40E+00    0.0     0.00028933       -35.0618923968 -2.01E-07
     9 TBLite/Diag 0.40E+00    0.0     0.00002489       -35.0618924020 -5.23E-09
    10 TBLite/Diag 0.40E+00    0.0     0.00000782       -35.0618924022 -1.76E-10
    11 TBLite/Diag 0.40E+00    0.0     0.00000093       -35.0618924022 -1.23E-12
    12 TBLite/Diag 0.40E+00    0.0     0.00000112       -35.0618924022 -3.62E-13
    13 TBLite/Diag 0.40E+00    0.0     0.00000053       -35.0618924022 -2.77E-13
    14 TBLite/Diag 0.40E+00    0.0     0.00000009       -35.0618924022 -2.13E-14
    15 TBLite/Diag 0.40E+00    0.0     0.00000005       -35.0618924022 -1.42E-14
    16 TBLite/Diag 0.40E+00    0.0     2.6269E-09       -35.0618924022  7.11E-15
    17 TBLite/Diag 0.40E+00    0.0     1.7349E-09       -35.0618924022  1.42E-14
    18 TBLite/Diag 0.40E+00    0.0     2.2138E-10       -35.0618924022 -2.13E-14

  *** SCF run converged in    18 steps ***


  Core Hamiltonian energy:                                    -35.71573613405225
  Repulsive potential energy:                                   0.64988676453358
  Electrostatic energy:                                         0.02935283609437
  Self-consistent dispersion energy:                           -0.02534194196829
  Non-self consistent dispersion energy:                       -0.00005392680418
  Correction for halogen bonding:                               0.00000000000000
  Electronic entropic energy:                                  -0.00000000000000
  Fermi energy:                                                -0.31050839113950

  Total energy:                                               -35.06189240219678
  Total energy (extrapolated to T->0):                        -35.06189240219678

 ENERGY| Total FORCE_EVAL ( QS ) energy [hartree]            -35.061892402196776

 OPT| **************************************************************************
 OPT| Step number                                                              0
 OPT| Optimization method                                                   BFGS
 OPT| Total energy [hartree]                                      -35.0618924022
 OPT| Used time [s]                                                        0.047
 OPT| **************************************************************************
 OPT| Estimated peak process memory [MiB]                                    164

 --------------------------
 OPTIMIZATION STEP:      1
 --------------------------

 Extrapolation method: ASPC

 Number of electrons:                                                         66
 Number of occupied orbitals:                                                 33
 Number of molecular orbitals:                                                66

 Number of orbital functions:                                                 66
 Number of independent orbital functions:                                     66


 SCF WAVEFUNCTION OPTIMIZATION

  Step     Update method      Time    Convergence         Total energy    Change
  ------------------------------------------------------------------------------
     1 TBLite/Diag 0.40E+00    0.0     0.00933347       -35.0641729625 -3.51E+01
     2 TBLite/Diag 0.40E+00    0.0     0.00151457       -35.0641766391 -3.68E-06
     3 TBLite/Diag 0.40E+00    0.0     0.00206037       -35.0641699962  6.64E-06
     4 TBLite/Diag 0.40E+00    0.0     0.00162113       -35.0641779348 -7.94E-06
     5 TBLite/Diag 0.40E+00    0.0     0.00027366       -35.0641779669 -3.22E-08
     6 TBLite/Diag 0.40E+00    0.0     0.00013483       -35.0641780264 -5.95E-08
     7 TBLite/Diag 0.40E+00    0.0     0.00003567       -35.0641780260  4.09E-10
     8 TBLite/Diag 0.40E+00    0.0     0.00003215       -35.0641780269 -9.13E-10
     9 TBLite/Diag 0.40E+00    0.0     0.00000751       -35.0641780269 -4.44E-11
    10 TBLite/Diag 0.40E+00    0.0     0.00000214       -35.0641780269 -5.48E-12
    11 TBLite/Diag 0.40E+00    0.0     0.00000023       -35.0641780269 -1.35E-13
    12 TBLite/Diag 0.40E+00    0.0     0.00000013       -35.0641780269  4.26E-14
    13 TBLite/Diag 0.40E+00    0.0     0.00000010       -35.0641780269 -8.53E-14
    14 TBLite/Diag 0.40E+00    0.0     6.9353E-09       -35.0641780269  5.68E-14
    15 TBLite/Diag 0.40E+00    0.0     4.1348E-09       -35.0641780269  2.84E-14
    16 TBLite/Diag 0.40E+00    0.0     4.2403E-10       -35.0641780269 -2.13E-14

  *** SCF run converged in    16 steps ***


  Core Hamiltonian energy:                                    -35.75107615112007
  Repulsive potential energy:                                   0.68429183492478
  Electrostatic energy:                                         0.02815272334513
  Self-consistent dispersion energy:                           -0.02549069989708
  Non-self consistent dispersion energy:                       -0.00005573418530
  Correction for halogen bonding:                               0.00000000000000
  Electronic entropic energy:                                  -0.00000000000000
  Fermi energy:                                                -0.31024117830434

  Total energy:                                               -35.06417802693253
  Total energy (extrapolated to T->0):                        -35.06417802693253

 ENERGY| Total FORCE_EVAL ( QS ) energy [hartree]            -35.064178026932531

 OPT| **************************************************************************
 OPT| Step number                                                              1
 OPT| Optimization method                                                   BFGS
 OPT| Total energy [hartree]                                      -35.0641780269
 OPT| Effective energy change [hartree]                            -0.0022856247
 OPT| Predicted energy change [hartree]                            -0.0019079900
 OPT| Scaling factor                                                0.0000000000
 OPT| Step size                                                     0.0359662964
 OPT| Trust radius                                                  0.4724315332
 OPT| Decrease in energy                                                     YES
 OPT| Used time [s]                                                        0.042
 OPT|
 OPT| Maximum step size                                             0.0359662964
 OPT| Convergence limit for maximum step size                       0.0030000000
 OPT| Maximum step size is converged                                          NO
 OPT|
 OPT| RMS step size                                                 0.0177368855
 OPT| Convergence limit for RMS step size                           0.0015000000
 OPT| RMS step size is converged                                              NO
 OPT|
 OPT| Maximum gradient                                              0.0031710875
 OPT| Convergence limit for maximum gradient                        0.0004500000
 OPT| Maximum gradient is converged                                           NO
 OPT|
 OPT| RMS gradient                                                  0.0010177329
 OPT| Convergence limit for RMS gradient                            0.0003000000
 OPT| RMS gradient is converged                                               NO
 OPT| **************************************************************************
 OPT| Estimated peak process memory after this step [MiB]                    165

 --------------------------
 OPTIMIZATION STEP:      2
 --------------------------

 Extrapolation method: ASPC

 Number of electrons:                                                         66
 Number of occupied orbitals:                                                 33
 Number of molecular orbitals:                                                66

 Number of orbital functions:                                                 66
 Number of independent orbital functions:                                     66


 SCF WAVEFUNCTION OPTIMIZATION

  Step     Update method      Time    Convergence         Total energy    Change
  ------------------------------------------------------------------------------
     1 TBLite/Diag 0.40E+00    0.0     0.00307816       -35.0644487406 -3.51E+01
     2 TBLite/Diag 0.40E+00    0.0     0.00057166       -35.0644490544 -3.14E-07
     3 TBLite/Diag 0.40E+00    0.0     0.00081618       -35.0644481762  8.78E-07
     4 TBLite/Diag 0.40E+00    0.0     0.00063399       -35.0644492053 -1.03E-06
     5 TBLite/Diag 0.40E+00    0.0     0.00008623       -35.0644492131 -7.78E-09
     6 TBLite/Diag 0.40E+00    0.0     0.00004199       -35.0644492156 -2.51E-09
     7 TBLite/Diag 0.40E+00    0.0     0.00003200       -35.0644492157 -9.08E-12
     8 TBLite/Diag 0.40E+00    0.0     0.00001614       -35.0644492161 -4.23E-10
     9 TBLite/Diag 0.40E+00    0.0     0.00000054       -35.0644492161 -4.41E-13
    10 TBLite/Diag 0.40E+00    0.0     0.00000043       -35.0644492161 -9.95E-14
    11 TBLite/Diag 0.40E+00    0.0     0.00000021       -35.0644492161 -4.97E-14
    12 TBLite/Diag 0.40E+00    0.0     0.00000010       -35.0644492161 -7.11E-15
    13 TBLite/Diag 0.40E+00    0.0     0.00000003       -35.0644492161  7.11E-15
    14 TBLite/Diag 0.40E+00    0.0     5.1634E-09       -35.0644492161 -1.42E-14
    15 TBLite/Diag 0.40E+00    0.0     2.9889E-09       -35.0644492161  0.00E+00
    16 TBLite/Diag 0.40E+00    0.0     5.5176E-10       -35.0644492161  3.55E-14

  *** SCF run converged in    16 steps ***


  Core Hamiltonian energy:                                    -35.76118098588962
  Repulsive potential energy:                                   0.69449800042455
  Electrostatic energy:                                         0.02783461478898
  Self-consistent dispersion energy:                           -0.02554610490726
  Non-self consistent dispersion energy:                       -0.00005474049301
  Correction for halogen bonding:                               0.00000000000000
  Electronic entropic energy:                                  -0.00000000000000
  Fermi energy:                                                -0.31012329374682

  Total energy:                                               -35.06444921607635
  Total energy (extrapolated to T->0):                        -35.06444921607635

 ENERGY| Total FORCE_EVAL ( QS ) energy [hartree]            -35.064449216076348

 OPT| **************************************************************************
 OPT| Step number                                                              2
 OPT| Optimization method                                                   BFGS
 OPT| Total energy [hartree]                                      -35.0644492161
 OPT| Effective energy change [hartree]                            -0.0002711891
 OPT| Predicted energy change [hartree]                            -0.0002112193
 OPT| Scaling factor                                                0.0000000000
 OPT| Step size                                                     0.0201852400
 OPT| Trust radius                                                  0.4724315332
 OPT| Decrease in energy                                                     YES
 OPT| Used time [s]                                                        0.043
 OPT|
 OPT| Maximum step size                                             0.0201852400
 OPT| Convergence limit for maximum step size                       0.0030000000
 OPT| Maximum step size is converged                                          NO
 OPT|
 OPT| RMS step size                                                 0.0079516883
 OPT| Convergence limit for RMS step size                           0.0015000000
 OPT| RMS step size is converged                                              NO
 OPT|
 OPT| Maximum gradient                                              0.0010127831
 OPT| Convergence limit for maximum gradient                        0.0004500000
 OPT| Maximum gradient is converged                                           NO
 OPT|
 OPT| RMS gradient                                                  0.0003760820
 OPT| Convergence limit for RMS gradient                            0.0003000000
 OPT| RMS gradient is converged                                               NO
 OPT| **************************************************************************
 OPT| Estimated peak process memory after this step [MiB]                    165

 --------------------------
 OPTIMIZATION STEP:      3
 --------------------------

 Extrapolation method: ASPC

 Number of electrons:                                                         66
 Number of occupied orbitals:                                                 33
 Number of molecular orbitals:                                                66

 Number of orbital functions:                                                 66
 Number of independent orbital functions:                                     66


 SCF WAVEFUNCTION OPTIMIZATION

  Step     Update method      Time    Convergence         Total energy    Change
  ------------------------------------------------------------------------------
     1 TBLite/Diag 0.40E+00    0.0     0.00209783       -35.0645325858 -3.51E+01
     2 TBLite/Diag 0.40E+00    0.0     0.00018293       -35.0645326639 -7.81E-08
     3 TBLite/Diag 0.40E+00    0.0     0.00034406       -35.0645324423  2.22E-07
     4 TBLite/Diag 0.40E+00    0.0     0.00028377       -35.0645327110 -2.69E-07
     5 TBLite/Diag 0.40E+00    0.0     0.00004301       -35.0645327120 -1.01E-09
     6 TBLite/Diag 0.40E+00    0.0     0.00003024       -35.0645327126 -5.20E-10
     7 TBLite/Diag 0.40E+00    0.0     0.00001574       -35.0645327128 -2.02E-10
     8 TBLite/Diag 0.40E+00    0.0     0.00000557       -35.0645327128 -1.95E-11
     9 TBLite/Diag 0.40E+00    0.0     0.00000205       -35.0645327128 -3.87E-12
    10 TBLite/Diag 0.40E+00    0.0     0.00000028       -35.0645327128 -1.85E-13
    11 TBLite/Diag 0.40E+00    0.0     0.00000011       -35.0645327128  7.11E-15
    12 TBLite/Diag 0.40E+00    0.0     0.00000008       -35.0645327128  0.00E+00
    13 TBLite/Diag 0.40E+00    0.0     0.00000002       -35.0645327128  1.42E-14
    14 TBLite/Diag 0.40E+00    0.0     1.7990E-09       -35.0645327128  7.11E-15
    15 TBLite/Diag 0.40E+00    0.0     1.1755E-09       -35.0645327128 -7.11E-15
    16 TBLite/Diag 0.40E+00    0.0     1.2819E-10       -35.0645327128 -1.42E-14

  *** SCF run converged in    16 steps ***


  Core Hamiltonian energy:                                    -35.76395382904805
  Repulsive potential energy:                                   0.69727462847125
  Electrostatic energy:                                         0.02777236919706
  Self-consistent dispersion energy:                           -0.02557235390554
  Non-self consistent dispersion energy:                       -0.00005352749791
  Correction for halogen bonding:                               0.00000000000000
  Electronic entropic energy:                                  -0.00000000000000
  Fermi energy:                                                -0.31004519668892

  Total energy:                                               -35.06453271278318
  Total energy (extrapolated to T->0):                        -35.06453271278318

 ENERGY| Total FORCE_EVAL ( QS ) energy [hartree]            -35.064532712783183

 OPT| **************************************************************************
 OPT| Step number                                                              3
 OPT| Optimization method                                                   BFGS
 OPT| Total energy [hartree]                                      -35.0645327128
 OPT| Effective energy change [hartree]                            -0.0000834967
 OPT| Predicted energy change [hartree]                            -0.0000636202
 OPT| Scaling factor                                                0.0000000000
 OPT| Step size                                                     0.0150901790
 OPT| Trust radius                                                  0.4724315332
 OPT| Decrease in energy                                                     YES
 OPT| Used time [s]                                                        0.044
 OPT|
 OPT| Maximum step size                                             0.0150901790
 OPT| Convergence limit for maximum step size                       0.0030000000
 OPT| Maximum step size is converged                                          NO
 OPT|
 OPT| RMS step size                                                 0.0058200024
 OPT| Convergence limit for RMS step size                           0.0015000000
 OPT| RMS step size is converged                                              NO
 OPT|
 OPT| Maximum gradient                                              0.0008547096
 OPT| Convergence limit for maximum gradient                        0.0004500000
 OPT| Maximum gradient is converged                                           NO
 OPT|
 OPT| RMS gradient                                                  0.0003470055
 OPT| Convergence limit for RMS gradient                            0.0003000000
 OPT| RMS gradient is converged                                               NO
 OPT| **************************************************************************
 OPT| Estimated peak process memory after this step [MiB]                    165

 --------------------------
 OPTIMIZATION STEP:      4
 --------------------------

 Extrapolation method: ASPC

 Number of electrons:                                                         66
 Number of occupied orbitals:                                                 33
 Number of molecular orbitals:                                                66

 Number of orbital functions:                                                 66
 Number of independent orbital functions:                                     66


 SCF WAVEFUNCTION OPTIMIZATION

  Step     Update method      Time    Convergence         Total energy    Change
  ------------------------------------------------------------------------------
     1 TBLite/Diag 0.40E+00    0.0     0.00189994       -35.0645555535 -3.51E+01
     2 TBLite/Diag 0.40E+00    0.0     0.00032464       -35.0645556205 -6.70E-08
     3 TBLite/Diag 0.40E+00    0.0     0.00059123       -35.0645550063  6.14E-07
     4 TBLite/Diag 0.40E+00    0.0     0.00046084       -35.0645557002 -6.94E-07
     5 TBLite/Diag 0.40E+00    0.0     0.00003445       -35.0645557007 -5.19E-10
     6 TBLite/Diag 0.40E+00    0.0     0.00002834       -35.0645557008 -5.04E-11
     7 TBLite/Diag 0.40E+00    0.0     0.00001445       -35.0645557010 -2.34E-10
     8 TBLite/Diag 0.40E+00    0.0     0.00000126       -35.0645557010 -2.27E-13
     9 TBLite/Diag 0.40E+00    0.0     0.00000049       -35.0645557010 -8.60E-13
    10 TBLite/Diag 0.40E+00    0.0     0.00000013       -35.0645557010 -3.55E-14
    11 TBLite/Diag 0.40E+00    0.0     0.00000008       -35.0645557010  1.42E-14
    12 TBLite/Diag 0.40E+00    0.0     0.00000005       -35.0645557010 -7.11E-15
    13 TBLite/Diag 0.40E+00    0.0     4.7720E-09       -35.0645557010  7.11E-15
    14 TBLite/Diag 0.40E+00    0.0     1.5259E-09       -35.0645557010  1.42E-14
    15 TBLite/Diag 0.40E+00    0.0     7.4892E-10       -35.0645557010 -2.13E-14

  *** SCF run converged in    15 steps ***


  Core Hamiltonian energy:                                    -35.76390404763551
  Repulsive potential energy:                                   0.69718659762885
  Electrostatic energy:                                         0.02779663143609
  Self-consistent dispersion energy:                           -0.02558206273449
  Non-self consistent dispersion energy:                       -0.00005281972276
  Correction for halogen bonding:                               0.00000000000000
  Electronic entropic energy:                                  -0.00000000000000
  Fermi energy:                                                -0.30999151466503

  Total energy:                                               -35.06455570102782
  Total energy (extrapolated to T->0):                        -35.06455570102782

 ENERGY| Total FORCE_EVAL ( QS ) energy [hartree]            -35.064555701027821

 OPT| **************************************************************************
 OPT| Step number                                                              4
 OPT| Optimization method                                                   BFGS
 OPT| Total energy [hartree]                                      -35.0645557010
 OPT| Effective energy change [hartree]                            -0.0000229882
 OPT| Predicted energy change [hartree]                            -0.0000192845
 OPT| Scaling factor                                                0.0000000000
 OPT| Step size                                                     0.0109972678
 OPT| Trust radius                                                  0.4724315332
 OPT| Decrease in energy                                                     YES
 OPT| Used time [s]                                                        0.042
 OPT|
 OPT| Maximum step size                                             0.0109972678
 OPT| Convergence limit for maximum step size                       0.0030000000
 OPT| Maximum step size is converged                                          NO
 OPT|
 OPT| RMS step size                                                 0.0033880869
 OPT| Convergence limit for RMS step size                           0.0015000000
 OPT| RMS step size is converged                                              NO
 OPT|
 OPT| Maximum gradient                                              0.0005164563
 OPT| Convergence limit for maximum gradient                        0.0004500000
 OPT| Maximum gradient is converged                                           NO
 OPT|
 OPT| RMS gradient                                                  0.0001974573
 OPT| Convergence limit for RMS gradient                            0.0003000000
 OPT| RMS gradient is converged                                              YES
 OPT| **************************************************************************
 OPT| Estimated peak process memory after this step [MiB]                    165

 --------------------------
 OPTIMIZATION STEP:      5
 --------------------------

 Extrapolation method: ASPC

 Number of electrons:                                                         66
 Number of occupied orbitals:                                                 33
 Number of molecular orbitals:                                                66

 Number of orbital functions:                                                 66
 Number of independent orbital functions:                                     66


 SCF WAVEFUNCTION OPTIMIZATION

  Step     Update method      Time    Convergence         Total energy    Change
  ------------------------------------------------------------------------------
     1 TBLite/Diag 0.40E+00    0.0     0.00066200       -35.0645581218 -3.51E+01
     2 TBLite/Diag 0.40E+00    0.0     0.00017037       -35.0645581346 -1.28E-08
     3 TBLite/Diag 0.40E+00    0.0     0.00025264       -35.0645580564  7.82E-08
     4 TBLite/Diag 0.40E+00    0.0     0.00019017       -35.0645581527 -9.63E-08
     5 TBLite/Diag 0.40E+00    0.0     0.00002759       -35.0645581531 -4.17E-10
     6 TBLite/Diag 0.40E+00    0.0     0.00000995       -35.0645581532 -4.42E-11
     7 TBLite/Diag 0.40E+00    0.0     0.00000606       -35.0645581532 -2.89E-11
     8 TBLite/Diag 0.40E+00    0.0     0.00000042       -35.0645581532 -2.84E-13
     9 TBLite/Diag 0.40E+00    0.0     0.00000020       -35.0645581532 -1.99E-13
    10 TBLite/Diag 0.40E+00    0.0     0.00000010       -35.0645581532 -3.55E-14
    11 TBLite/Diag 0.40E+00    0.0     0.00000006       -35.0645581532  1.42E-14
    12 TBLite/Diag 0.40E+00    0.0     5.3137E-09       -35.0645581532  2.13E-14
    13 TBLite/Diag 0.40E+00    0.0     2.1381E-09       -35.0645581532 -4.97E-14
    14 TBLite/Diag 0.40E+00    0.0     1.0338E-09       -35.0645581532  6.39E-14
    15 TBLite/Diag 0.40E+00    0.0     5.6828E-10       -35.0645581532 -2.84E-14

  *** SCF run converged in    15 steps ***


  Core Hamiltonian energy:                                    -35.76350062104567
  Repulsive potential energy:                                   0.69676194928509
  Electrostatic energy:                                         0.02781588387109
  Self-consistent dispersion energy:                           -0.02558265087663
  Non-self consistent dispersion energy:                       -0.00005271442687
  Correction for halogen bonding:                               0.00000000000000
  Electronic entropic energy:                                  -0.00000000000000
  Fermi energy:                                                -0.30996986399528

  Total energy:                                               -35.06455815319299
  Total energy (extrapolated to T->0):                        -35.06455815319299

 ENERGY| Total FORCE_EVAL ( QS ) energy [hartree]            -35.064558153192991

 OPT| **************************************************************************
 OPT| Step number                                                              5
 OPT| Optimization method                                                   BFGS
 OPT| Total energy [hartree]                                      -35.0645581532
 OPT| Effective energy change [hartree]                            -0.0000024522
 OPT| Predicted energy change [hartree]                            -0.0000022629
 OPT| Scaling factor                                                0.0000000000
 OPT| Step size                                                     0.0028885415
 OPT| Trust radius                                                  0.4724315332
 OPT| Decrease in energy                                                     YES
 OPT| Used time [s]                                                        0.042
 OPT|
 OPT| Maximum step size                                             0.0028885415
 OPT| Convergence limit for maximum step size                       0.0030000000
 OPT| Maximum step size is converged                                         YES
 OPT|
 OPT| RMS step size                                                 0.0007860605
 OPT| Convergence limit for RMS step size                           0.0015000000
 OPT| RMS step size is converged                                             YES
 OPT|
 OPT| Maximum gradient                                              0.0001875106
 OPT| Convergence limit for maximum gradient                        0.0004500000
 OPT| Maximum gradient is converged                                          YES
 OPT|
 OPT| RMS gradient                                                  0.0000597330
 OPT| Convergence limit for RMS gradient                            0.0003000000
 OPT| RMS gradient is converged                                              YES
 OPT| **************************************************************************
 OPT| Estimated peak process memory after this step [MiB]                    166

 *******************************************************************************
 ***                    GEOMETRY OPTIMIZATION COMPLETED                      ***
 *******************************************************************************

 write_final_structure: Optimization converged, writing XYZ file gladly:
  anthracene_GFN2_mol_geoopt-FINAL-1_5.xyz

 write_final_structure: Optimization converged, writing CIF file gladly:
  anthracene_GFN2_mol_geoopt-FINAL-1_5.cif

 write_final_structure: Done!

                    Reevaluating energy at the minimum

 Extrapolation method: ASPC

 Number of electrons:                                                         66
 Number of occupied orbitals:                                                 33
 Number of molecular orbitals:                                                66

 Number of orbital functions:                                                 66
 Number of independent orbital functions:                                     66


 SCF WAVEFUNCTION OPTIMIZATION

  Step     Update method      Time    Convergence         Total energy    Change
  ------------------------------------------------------------------------------
     1 TBLite/Diag 0.40E+00    0.0     9.4027E-10       -35.0645581532 -3.51E+01

  *** SCF run converged in     1 steps ***


  Core Hamiltonian energy:                                    -35.76350062104676
  Repulsive potential energy:                                   0.69676194928509
  Electrostatic energy:                                         0.02781588387205
  Self-consistent dispersion energy:                           -0.02558265087651
  Non-self consistent dispersion energy:                       -0.00005271442687
  Correction for halogen bonding:                               0.00000000000000
  Electronic entropic energy:                                  -0.00000000000000
  Fermi energy:                                                -0.30996986399350

  Total energy:                                               -35.06455815319300
  Total energy (extrapolated to T->0):                        -35.06455815319300

 ENERGY| Total FORCE_EVAL ( QS ) energy [hartree]            -35.064558153192998

 -------------------------------------------------------------------------------
 -                                                                             -
 -                                DBCSR STATISTICS                             -
 -                                                                             -
 -------------------------------------------------------------------------------
 COUNTER                                    TOTAL       BLAS       SMM       ACC
 flops     1 x     2 x     1                 7360       0.0%    100.0%      0.0%     
 flops     1 x     2 x     4                44800       0.0%    100.0%      0.0%     
 flops     4 x     2 x     1                44800       0.0%    100.0%      0.0%     
 flops     1 x    32 x     1               235520       0.0%    100.0%      0.0%     
 flops     4 x     2 x     4               250880       0.0%    100.0%      0.0%     
 flops     1 x     1 x    66               733788       0.0%    100.0%      0.0%     
 flops     1 x    32 x     4              1433600       0.0%    100.0%      0.0%     
 flops     4 x    32 x     1              1433600       0.0%    100.0%      0.0%     
 flops     4 x     1 x    66              3971088       0.0%    100.0%      0.0%     
 flops     1 x     4 x    66              4086192       0.0%    100.0%      0.0%     
 flops     4 x    32 x     4              8028160       0.0%    100.0%      0.0%     
 flops     4 x     4 x    66             24171840       0.0%    100.0%      0.0%     
 flops inhomo. stacks                           0       0.0%      0.0%      0.0%
 flops total                        44.441628E+06       0.0%    100.0%      0.0%
 flops max/rank                     44.441628E+06       0.0%    100.0%      0.0%
 matmuls inhomo. stacks                         0       0.0%      0.0%      0.0%
 matmuls total                              66344       0.0%    100.0%      0.0%
 number of processed stacks                   596       0.0%    100.0%      0.0%
 average stack size                                     0.0     111.3       0.0
 marketing flops                    42.836904E+06
 -------------------------------------------------------------------------------
 # multiplications                            129
 max memory usage/rank              13.672161E+09
 # max total images/rank                        1
 # max 3D layers                                1
 # MPI messages exchanged                       0
 -------------------------------------------------------------------------------
 -                                                                             -
 -                      DBCSR MESSAGE PASSING PERFORMANCE                      -
 -                                                                             -
 -------------------------------------------------------------------------------
 ROUTINE             CALLS      AVE VOLUME [Bytes]
 MP_Bcast               13                     12.
 MP_Allreduce          648                      9.
 MP_Alltoall          4492                  24455.
 MP_ISend              516                   2209.
 MP_IRecv              516                   2209.
 -------------------------------------------------------------------------------

 -------------------------------------------------------------------------------
 -                                                                             -
 -                          OFFLOAD MEMPOOL STATISTICS                         -
 -                                                                             -
 -------------------------------------------------------------------------------
 Memory consumption                Number of allocations  Used [MiB]  Size [MiB]
 Device                                                1           0           0
 Host                                                  1           0           0
 -------------------------------------------------------------------------------

 MEMORY| Estimated peak process memory [MiB]                                 166

 -------------------------------------------------------------------------------
 -                                                                             -
 -                         MESSAGE PASSING PERFORMANCE                         -
 -                                                                             -
 -------------------------------------------------------------------------------

 ROUTINE             CALLS      AVE VOLUME [Bytes]
 MP_Group                1
 MP_Bcast              211                    276.
 MP_Allreduce         3114                    191.
 MP_Sync               110
 MP_comm_split         109
 -------------------------------------------------------------------------------


 -------------------------------------------------------------------------------
 -                                                                             -
 -                           R E F E R E N C E S                               -
 -                                                                             -
 -------------------------------------------------------------------------------
 
 CP2K version 2026.1 (Development Version), the CP2K developers group (2026).
 CP2K is freely available from https://www.cp2k.org/ .
 
 M. Iannuzzi, J. Wilhelm, F. Stein, A. Bussy, H. Elgabarty, D. Golze, A. Hehn, 
 M. Graml, S. Marek, B. Sertcan Gökmen, C. Schran, H. Forbert, R. Z. 
 Khaliullin, A. Kozhevnikov, M. Taillefumier, R. Meli, V. V. Rybkin, M. Brehm, 
 R. Schade, O. Schütt, J. V. Pototschnig, H. Mirhosseini, A. Knüpfer, D. Marx, 
 M. Krack, J. Hutter, T. D. Kühne.
 J. Phys. Chem. B 130, 1237-1310 (2026).
 The CP2K Program Package Made Simple.
 https://doi.org/10.1021/acs.jpcb.5c05851

 A. Katbashev, M. Stahn, T. Rose, V. Alizadeh, M. Friede, C. Plett, P. 
 Steinbach, S. Ehlert.
 J. Phys. Chem. A 129, 2667-2682 (2025).
 Overview on Building Blocks and Applications of Efficient and Robust Extended 
 Tight Binding.
 https://doi.org/10.1021/acs.jpca.4c08263

 T. D. Kühne, M. Iannuzzi, M. Del Ben, V. V. Rybkin, P. Seewald, F. Stein, T. 
 Laino, R. Z. Khaliullin, O. Schütt, F. Schiffmann, D. Golze, J. Wilhelm, S. 
 Chulkov, M. H. Bani-Hashemian, V. Weber, U. Borstnik, M. Taillefumier, A. S. 
 Jakobovits, A. Lazzaro, H. Pabst, T. Müller, R. Schade, M. Guidon, S. 
 Andermatt, N. Holmberg, G. K. Schenter, A. Hehn, A. Bussy, F. Belleflamme, G. 
 Tabacchi, A. Glöß, M. Lass, I. Bethune, C. J. Mundy, C. Plessl, M. Watkins, 
 J. VandeVondele, M. Krack, J. Hutter.
 J. Chem. Phys. 152, 194103 (2020).
 CP2K: An electronic structure and molecular dynamics software package - 
 Quickstep: Efficient and accurate electronic structure calculations.
 https://doi.org/10.1063/5.0007045

 P. Pracht, E. Caldeweyher, S. Ehlert, S. Grimme.
 ChemRxiv, (2019).
 A Robust Non-Self-Consistent Tight-Binding Quantum Chemistry Method for large 
 Molecules.
 https://doi.org/10.26434/chemrxiv.8326202.v1

 S. Grimme, C. Bannwarth, P. Shushkov.
 J. Chem. Theory Comput. 13, 1989 (2017).
 A Robust and Accurate Tight-Binding Quantum Chemical Method for Structures, 
 Vibrational Frequencies, and Noncovalent Interactions of Large Molecular 
 Systems Parametrized for All spd-Block Elements (Z = 1-86).
 https://doi.org/10.1021/acs.jctc.7b00118

 O. Schuett, P. Messmer, J. Hutter, J. VandeVondele.
 Electronic Structure Calculations on Graphics Processing Units, 173-190 (2016).
 GPU-Accelerated Sparse Matrix-Matrix Multiplication for Linear Scaling Density 
 Functional Theory.
 https://doi.org/10.1002/9781118670712.ch8

 A. Heinecke, G. Henry, M. Hutchinson, H. Pabst.
 Proceedings of Intl. Supercomputing Conference, 981-991 (2016).
 LIBXSMM: Accelerating Small Matrix Multiplications by Runtime Code Generation.
 https://doi.org/10.1109/SC.2016.83

 U. Borstnik, J. VandeVondele, V. Weber, J. Hutter.
 Parallel Comput. 40, 47-58 (2014).
 Sparse matrix multiplication: The distributed block-compressed sparse row 
 library.
 https://doi.org/10.1016/j.parco.2014.03.012

 T. D. Kühne, M. Krack, F. R. Mohamed, M. Parrinello.
 Phys. Rev. Lett. 98, 066401 (2007).
 Efficient and accurate Car-Parrinello-like approach to Born-Oppenheimer 
 molecular dynamics.
 https://doi.org/10.1103/PhysRevLett.98.066401

 M. Frigo, S. G. Johnson.
 Proc. IEEE 93, 216-231 (2005).
 The design and implementation of FFTW3.
 https://doi.org/10.1109/JPROC.2004.840301

 J. Kolafa.
 J. Comput. Chem. 25, 335-342 (2004).
 Time-reversible always stable predictor-corrector method for molecular dynamics 
 of polarizable molecules.
 https://doi.org/10.1002/jcc.10385

 N. D. Mermin.
 Phys. Rev. 137, A1441-A1443 (1965).
 Thermal Properties of the Inhomogeneous Electron Gas.
 https://doi.org/10.1103/PhysRev.137.A1441


 -------------------------------------------------------------------------------
 -                                                                             -
 -                                T I M I N G                                  -
 -                                                                             -
 -------------------------------------------------------------------------------
 SUBROUTINE                       CALLS  ASD         SELF TIME        TOTAL TIME
                                MAXIMUM       AVERAGE  MAXIMUM  AVERAGE  MAXIMUM
 CP2K                                 1  1.0    0.001    0.001    0.273    0.273
 cp_geo_opt                           1  2.0    0.000    0.000    0.268    0.268
 geoopt_bfgs                          1  3.0    0.001    0.001    0.268    0.268
 cp_eval_at                           7  4.0    0.000    0.000    0.263    0.263
 qs_forces                            6  5.0    0.000    0.000    0.255    0.255
 qs_energies                          7  5.9    0.000    0.000    0.231    0.231
 scf_env_do_scf                       7  6.9    0.000    0.000    0.196    0.196
 scf_env_do_scf_inner_loop           97  8.0    0.026    0.026    0.196    0.196
 qs_scf_new_mos                      97  9.0    0.000    0.000    0.111    0.111
 rebuild_ks_matrix                  103  9.8    0.000    0.000    0.065    0.065
 build_tblite_ks_matrix             103 10.8    0.063    0.063    0.065    0.065
 qs_ks_update_qs_env                 97  9.0    0.000    0.000    0.051    0.051
 cp_dbcsr_plus_fm_fm_t              109 10.9    0.000    0.000    0.045    0.045
 calculate_dm_sparse                103 10.0    0.000    0.000    0.043    0.043
 dbcsr_multiply_generic             129 11.9    0.002    0.002    0.036    0.036
 eigensolver                         97 10.0    0.001    0.001    0.033    0.033
 copy_dbcsr_to_fm                   214 10.5    0.001    0.001    0.031    0.031
 build_tblite_matrices               13  7.0    0.014    0.014    0.031    0.031
 dbcsr_complete_redistribute        452 12.2    0.022    0.022    0.031    0.031
 cp_fm_syevd                        109 10.7    0.000    0.000    0.030    0.030
 cp_fm_syevd_base                   109 11.7    0.026    0.026    0.026    0.026
 qs_diis_b_step                      90 10.0    0.000    0.000    0.020    0.020
 make_m2s                           258 12.9    0.001    0.001    0.018    0.018
 qs_energies_init_hamiltonians        7  6.9    0.000    0.000    0.016    0.016
 tb_get_multipole                    13  8.0    0.012    0.012    0.016    0.016
 init_scf_run                         7  6.9    0.000    0.000    0.015    0.015
 qs_ks_update_qs_env_forces           6  6.0    0.000    0.000    0.015    0.015
 copy_fm_to_dbcsr                   238 11.8    0.000    0.000    0.014    0.014
 scf_env_initial_rho_setup            7  7.9    0.000    0.000    0.014    0.014
 wfi_extrapolate                      7  8.9    0.000    0.000    0.014    0.014
 multiply_cannon                    129 12.9    0.002    0.002    0.009    0.009
 dbcsr_desymmetrize_deep            214 11.5    0.005    0.005    0.008    0.008
 cp_dbcsr_sm_fm_multiply             20 10.3    0.000    0.000    0.008    0.008
 make_images                        258 13.9    0.002    0.002    0.008    0.008
 dbcsr_finalize                    2325 12.4    0.001    0.001    0.008    0.008
 -------------------------------------------------------------------------------

 The number of warnings for this run is : 0
 
 -------------------------------------------------------------------------------
  **** **** ******  **  PROGRAM ENDED AT                 2026-05-23 22:46:20.902
 ***** ** ***  *** **   PROGRAM RAN ON                                spark-c86c
 **    ****   ******    PROGRAM RAN BY                                  kuehne88
 ***** **    ** ** **   PROGRAM PROCESS ID                               2226367
  **** **  *******  **  PROGRAM STOPPED IN /home/kuehne88/periodic-gfn2-benchmar
                                           ks/X23b/runs/molecule_geoopt/GFN2/ant
                                           hracene_GFN2_mol_geoopt
