 DBCSR| CPU Multiplication driver                                           BLAS (U)
 DBCSR| Multrec recursion limit                                              512 (U)
 DBCSR| Multiplication stack size                                           1000 (D)
 DBCSR| Maximum elements for images                                    UNLIMITED (U)
 DBCSR| Multiplicative factor virtual images                                   1 (U)
 DBCSR| Use multiplication densification                                       T (D)
 DBCSR| Multiplication size stacks                                             3 (U)
 DBCSR| Use memory pool for CPU allocation                                     F (U)
 DBCSR| Number of 3D layers                                               SINGLE (U)
 DBCSR| Use MPI memory allocation                                              F (U)
 DBCSR| Use RMA algorithm                                                      F (U)
 DBCSR| Use Communication thread                                               T (U)
 DBCSR| Communication thread load                                             87 (D)
 DBCSR| MPI: My process id                                                     0
 DBCSR| MPI: Number of processes                                               2
 DBCSR| OMP: Current number of threads                                         1
 DBCSR| OMP: Max number of threads                                             1
 DBCSR| Split modifier for TAS multiplication algorithm                  1.0E+00 (U)


  **** **** ******  **  PROGRAM STARTED AT               2026-07-16 22:08:28.891
 ***** ** ***  *** **   PROGRAM STARTED ON                                 terok
 **    ****   ******    PROGRAM STARTED BY                              kuehne88
 ***** **    ** ** **   PROGRAM PROCESS ID                                518992
  **** **  *******  **  PROGRAM STARTED IN /home/kuehne88/work/cp2k-crossmesh-in
                                           dependent-review-mpi2

 CP2K| version string:                 CP2K version 2026.1 (Development Version)
 CP2K| source code revision number:                                   28df9380ab
 CP2K| cp2kflags: omp fftw3 libxc parallel scalapack spglib s_dftd3 mctc-lib tbl
 CP2K|            ite tblite_gxtb
 CP2K| is freely available from                            https://www.cp2k.org/
 CP2K| Program compiled at                                   2026-07-16 22:01:14
 CP2K| Program compiled on                                                 terok
 CP2K| Program compiled for                                               x86_64
 CP2K| Data directory path    /home/kuehne88/work/cp2k-crossmesh-independent-rev
 CP2K| Input file name        /home/kuehne88/work/cp2k-crossmesh-independent-rev

 GLOBAL| Force Environment number                                              1
 GLOBAL| Basis set file name                                    BASIS_MOLOPT_UZH
 GLOBAL| Potential file name                                       POTENTIAL_UZH
 GLOBAL| MM Potential file name                                     MM_POTENTIAL
 GLOBAL| Coordinate file name                                      __STD_INPUT__
 GLOBAL| Method name                                                        CP2K
 GLOBAL| Project name                                        HE_KPOINT_RESTART_5
 GLOBAL| Run type                                                         ENERGY
 GLOBAL| FFT library                                                       FFTW3
 GLOBAL| Diagonalization library                                       ScaLAPACK
 GLOBAL| Cholesky decomposition library                                ScaLAPACK
 GLOBAL| DGEMM library                                                      BLAS
 GLOBAL| Direct generalized diagonalization requested                          F
 GLOBAL| Orthonormality check for eigenvectors                          DISABLED
 GLOBAL| Matrix multiplication library                                 ScaLAPACK
 GLOBAL| All-to-all communication in single precision                          F
 GLOBAL| FFTs using library dependent lengths                                  F
 GLOBAL| Grid backend                                                       AUTO
 GLOBAL| Global print level                                                  LOW
 GLOBAL| MPI I/O enabled                                                       T
 GLOBAL| Total number of message passing processes                             2
 GLOBAL| Number of distributed systems (nodes)                                 1
 GLOBAL| Number of threads for this process                                    1
 GLOBAL| This output is from process                                           0
 GLOBAL| OpenMP stack size per thread (OMP_STACKSIZE)                    default
 GLOBAL| CPU model name                                       AMD EPYC Processor
 GLOBAL| CPUID                                                              1002

 MEMORY| system memory details [Kb]
 MEMORY|                        rank 0           min           max       average
 MEMORY| MemTotal            528104804     528104804     528104804     528104804
 MEMORY| MemFree             383446664     383446664     383446664     383446664
 MEMORY| Buffers                    20            20            20            20
 MEMORY| Cached              131355780     131355780     131355780     131355780
 MEMORY| Slab                  9815292       9815292       9815292       9815292
 MEMORY| SReclaimable          7382692       7382692       7382692       7382692
 MEMORY| MemLikelyFree       522185156     522185156     522185156     522185156


 GENERATE|  Preliminary Number of Bonds generated:                             0
 GENERATE|  Achieved consistency in connectivity generation.

 *******************************************************************************
 *******************************************************************************
 **                                                                           **
 **     #####                         ##              ##                      **
 **    ##   ##            ##          ##              ##                      **
 **   ##     ##                       ##            ######                    **
 **   ##     ##  ##   ##  ##   #####  ##  ##   ####   ##    #####    #####    **
 **   ##     ##  ##   ##  ##  ##      ## ##   ##      ##   ##   ##  ##   ##   **
 **   ##  ## ##  ##   ##  ##  ##      ####     ###    ##   ######   ######    **
 **    ##  ###   ##   ##  ##  ##      ## ##      ##   ##   ##       ##        **
 **     #######   #####   ##   #####  ##  ##  ####    ##    #####   ##        **
 **           ##                                                    ##        **
 **                                                                           **
 **                                                ... make the atoms dance   **
 **                                                                           **
 **            Copyright (C) by CP2K developers group (2000-2026)             **
 **                      J. Chem. Phys. 152, 194103 (2020)                    **
 **                                                                           **
 *******************************************************************************


 TOTAL NUMBERS AND MAXIMUM NUMBERS

  Total number of            - Atomic kinds:                                   1
                             - Atoms:                                          1
                             - Shell sets:                                     2
                             - Shells:                                         3
                             - Primitive Cartesian functions:                 12
                             - Cartesian basis functions:                      5
                             - Spherical basis functions:                      5

  Maximum angular momentum of- Orbital basis functions:                        1
                             - Local part of the GTH pseudopotential:          2


 SCF PARAMETERS         Density guess:                                    ATOMIC
                        --------------------------------------------------------
                        max_scf:                                             100
                        max_scf_history:                                       0
                        max_diis:                                              4
                        --------------------------------------------------------
                        eps_scf:                                        1.00E-09
                        eps_scf_history:                                0.00E+00
                        eps_diis:                                       1.00E-01
                        eps_eigval:                                     1.00E-08
                        --------------------------------------------------------
                        level_shift [a.u.]:                             0.000000
                        --------------------------------------------------------
                        Mixing method:                            BROYDEN_MIXING
                                                charge density mixing in g-space
                        --------------------------------------------------------
                        No outer SCF

 Extrapolation method: initial_guess

 Number of electrons:                                                          2
 Number of occupied orbitals:                                                  1
 Number of molecular orbitals:                                                 1

 Number of orbital functions:                                                  5
 Number of independent orbital functions:                                      5


 SCF WAVEFUNCTION OPTIMIZATION

  Step     Update method      Time    Convergence         Total energy    Change
  ------------------------------------------------------------------------------
     1 NoMix/Diag. 0.50E+00    0.4     0.00330896        -2.9514535508 -2.95E+00
     2 Broy./Diag. 0.50E+00    0.0     0.00064227        -2.9486089618  2.84E-03
     3 Broy./Diag. 0.50E+00    0.0     0.00031634        -2.9509182262 -2.31E-03
     4 Broy./Diag. 0.50E+00    0.0     0.00000367        -2.9514450838 -5.27E-04
     5 Broy./Diag. 0.50E+00    0.0     0.00000264        -2.9514479384 -2.85E-06
     6 Broy./Diag. 0.50E+00    0.0     0.00000015        -2.9514534000 -5.46E-06
     7 Broy./Diag. 0.50E+00    0.0     0.00000003        -2.9514535110 -1.11E-07
     8 Broy./Diag. 0.50E+00    0.0     4.2558E-09        -2.9514534282  8.27E-08
     9 Broy./Diag. 0.50E+00    0.0     1.9698E-09        -2.9514534361 -7.85E-09
    10 Broy./Diag. 0.50E+00    0.1     5.5617E-10        -2.9514534409 -4.79E-09

  *** SCF run converged in    10 steps ***


  Electronic density on regular grids:         -1.9988960149        0.0011039851
  Core density on regular grids:                1.9979120788       -0.0020879212
  Total charge density on r-space grids:       -0.0009839361
  Total charge density g-space grids:          -0.0009839361

  Overlap energy of the core charge distribution:               0.00000000000000
  Self energy of the core charge distribution:                 -5.63558259017305
  Core Hamiltonian energy:                                      1.93366785511007
  Hartree energy:                                               1.78402915657895
  Exchange-correlation energy:                                 -1.03356786237591

  Total energy:                                                -2.95145344085994

 ENERGY| Total FORCE_EVAL ( QS ) energy [hartree]             -2.951453440859939

 -------------------------------------------------------------------------------
 -                                                                             -
 -                                DBCSR STATISTICS                             -
 -                                                                             -
 -------------------------------------------------------------------------------
 COUNTER                                    TOTAL       BLAS       SMM       ACC
 flops inhomo. stacks                           0       0.0%      0.0%      0.0%
 flops total                         0.000000E+00       0.0%      0.0%      0.0%
 flops max/rank                      0.000000E+00       0.0%      0.0%      0.0%
 matmuls inhomo. stacks                         0       0.0%      0.0%      0.0%
 matmuls total                                  0       0.0%      0.0%      0.0%
 number of processed stacks                     0       0.0%      0.0%      0.0%
 average stack size                                     0.0       0.0       0.0
 marketing flops                     0.000000E+00
 -------------------------------------------------------------------------------
 -                                                                             -
 -                      DBCSR MESSAGE PASSING PERFORMANCE                      -
 -                                                                             -
 -------------------------------------------------------------------------------
 ROUTINE             CALLS      AVE VOLUME [Bytes]
 MP_Bcast                1                     12.
 MP_Allreduce           19                     21.
 MP_Alltoall          8540                    275.
 -------------------------------------------------------------------------------

 -------------------------------------------------------------------------------
 -                                                                             -
 -                                GRID STATISTICS                              -
 -                                                                             -
 -------------------------------------------------------------------------------
 LP    KERNEL             BACKEND                              COUNT     PERCENT
 1     collocate ortho    CPU                                  10120      26.68%
 1     integrate ortho    CPU                                   9200      24.26%
 0     collocate ortho    CPU                                   5896      15.55%
 0     integrate ortho    CPU                                   5360      14.13%
 2     collocate ortho    CPU                                   3850      10.15%
 2     integrate ortho    CPU                                   3500       9.23%
 -------------------------------------------------------------------------------

 -------------------------------------------------------------------------------
 -                                                                             -
 -                          OFFLOAD MEMPOOL STATISTICS                         -
 -                                                                             -
 -------------------------------------------------------------------------------
 Memory consumption                Number of allocations  Used [MiB]  Size [MiB]
 Host                                                  6           0   133276486
 -------------------------------------------------------------------------------

 MEMORY| Estimated peak process memory [MiB]                                 203

 -------------------------------------------------------------------------------
 -                                                                             -
 -                         MESSAGE PASSING PERFORMANCE                         -
 -                                                                             -
 -------------------------------------------------------------------------------

 ROUTINE             CALLS      AVE VOLUME [Bytes]
 MP_Group                5
 MP_Bcast             3742                   1104.
 MP_Allreduce        18526                     10.
 MP_Sync                 4
 MP_Alltoall           185                 352880.
 MP_SendRecv            45                  21857.
 MP_ISendRecv           40                  20876.
 MP_Wait              2830
 MP_comm_split           2
 MP_ISend             3410                     27.
 MP_IRecv             4340                     21.
 -------------------------------------------------------------------------------


 -------------------------------------------------------------------------------
 -                                                                             -
 -                           R E F E R E N C E S                               -
 -                                                                             -
 -------------------------------------------------------------------------------
 
 CP2K version 2026.1 (Development Version), the CP2K developers group (2026).
 CP2K is freely available from https://www.cp2k.org/ .
 
 M. Iannuzzi, J. Wilhelm, F. Stein, A. Bussy, H. Elgabarty, D. Golze, A. Hehn, 
 M. Graml, S. Marek, B. Sertcan Gökmen, C. Schran, H. Forbert, R. Z. 
 Khaliullin, A. Kozhevnikov, M. Taillefumier, R. Meli, V. V. Rybkin, M. Brehm, 
 R. Schade, O. Schütt, J. V. Pototschnig, H. Mirhosseini, A. Knüpfer, D. Marx, 
 M. Krack, J. Hutter, T. D. Kühne.
 J. Phys. Chem. B 130, 1237-1310 (2026).
 The CP2K Program Package Made Simple.
 https://doi.org/10.1021/acs.jpcb.5c05851

 T. D. Kühne, M. Iannuzzi, M. Del Ben, V. V. Rybkin, P. Seewald, F. Stein, T. 
 Laino, R. Z. Khaliullin, O. Schütt, F. Schiffmann, D. Golze, J. Wilhelm, S. 
 Chulkov, M. H. Bani-Hashemian, V. Weber, U. Borstnik, M. Taillefumier, A. S. 
 Jakobovits, A. Lazzaro, H. Pabst, T. Müller, R. Schade, M. Guidon, S. 
 Andermatt, N. Holmberg, G. K. Schenter, A. Hehn, A. Bussy, F. Belleflamme, G. 
 Tabacchi, A. Glöß, M. Lass, I. Bethune, C. J. Mundy, C. Plessl, M. Watkins, 
 J. VandeVondele, M. Krack, J. Hutter.
 J. Chem. Phys. 152, 194103 (2020).
 CP2K: An electronic structure and molecular dynamics software package - 
 Quickstep: Efficient and accurate electronic structure calculations.
 https://doi.org/10.1063/5.0007045

 A. Togo, I. Tanaka.
 arXiv, 1808.01590 (2018).
 Spglib : a software library for crystal symmetry search.

 O. Schuett, P. Messmer, J. Hutter, J. VandeVondele.
 Electronic Structure Calculations on Graphics Processing Units, 173-190 (2016).
 GPU-Accelerated Sparse Matrix-Matrix Multiplication for Linear Scaling Density 
 Functional Theory.
 https://doi.org/10.1002/9781118670712.ch8

 U. Borstnik, J. VandeVondele, V. Weber, J. Hutter.
 Parallel Comput. 40, 47-58 (2014).
 Sparse matrix multiplication: The distributed block-compressed sparse row 
 library.
 https://doi.org/10.1016/j.parco.2014.03.012

 J. VandeVondele, J. Hutter.
 J. Chem. Phys. 127, 114105 (2007).
 Gaussian basis sets for accurate calculations on molecular systems in gas and 
 condensed phases.
 https://doi.org/10.1063/1.2770708

 J. VandeVondele, M. Krack, F. Mohamed, M. Parrinello, T. Chassaing, J. Hutter.
 Comput. Phys. Commun. 167, 103-128 (2005).
 QUICKSTEP: Fast and accurate density functional calculations using a mixed 
 Gaussian and plane waves approach.
 https://doi.org/10.1016/j.cpc.2004.12.014

 M. Krack.
 Theor. Chem. Acc. 114, 145-152 (2005).
 Pseudopotentials for H to Kr optimized for gradient-corrected 
 exchange-correlation functionals.
 https://doi.org/10.1007/s00214-005-0655-y

 M. Frigo, S. G. Johnson.
 Proc. IEEE 93, 216-231 (2005).
 The design and implementation of FFTW3.
 https://doi.org/10.1109/JPROC.2004.840301

 C. Hartwigsen, S. Goedecker, J. Hutter.
 Phys. Rev. B 58, 3641-3662 (1998).
 Relativistic separable dual-space Gaussian pseudopotentials from H to Rn.
 https://doi.org/10.1103/PhysRevB.58.3641

 G. Lippert, J. Hutter, M. Parrinello.
 Mol. Phys. 92, 477-487 (1997).
 A hybrid Gaussian and plane wave density functional scheme.
 https://doi.org/10.1080/002689797170220

 S. Goedecker, M. Teter, J. Hutter.
 Phys. Rev. B 54, 1703-1710 (1996).
 Separable dual-space Gaussian pseudopotentials.
 https://doi.org/10.1103/PhysRevB.54.1703

 J. P. Perdew, K. Burke, M. Ernzerhof.
 Phys. Rev. Lett. 77, 3865-3868 (1996).
 Generalized gradient approximation made simple.
 https://doi.org/10.1103/PhysRevLett.77.3865

 C.-L. Fu, K.-M. Ho.
 Phys. Rev. B 28, 5480-5486 (1983).
 First-principles calculation of the equilibrium ground-state properties of 
 transition metals: Applications to Nb and Mo.
 https://doi.org/10.1103/PhysRevB.28.5480

 T. G. Worlton, J. L. Warren.
 Comput. Phys. Commun. 3, 88-117 (1972).
 Group-theoretical analysis of lattice vibrations.
 https://doi.org/10.1016/0010-4655(72)90058-6

 C. G. Broyden.
 Math. Comput. 19, 577-593 (1965).
 A class of methods for solving nonlinear simultaneous equations.
 https://doi.org/10.1090/S0025-5718-1965-0198670-6


 -------------------------------------------------------------------------------
 -                                                                             -
 -                                T I M I N G                                  -
 -                                                                             -
 -------------------------------------------------------------------------------
 SUBROUTINE                       CALLS  ASD         SELF TIME        TOTAL TIME
                                MAXIMUM       AVERAGE  MAXIMUM  AVERAGE  MAXIMUM
 CP2K                                 1  1.0    0.004    0.005    0.932    0.932
 qs_energies                          1  2.0    0.000    0.000    0.899    0.900
 scf_env_do_scf                       1  3.0    0.000    0.000    0.872    0.872
 scf_env_do_scf_inner_loop           10  4.0    0.001    0.001    0.872    0.872
 qs_scf_new_mos_kp                   10  5.0    0.000    0.000    0.668    0.701
 do_general_diag_kp                  10  6.0    0.001    0.001    0.668    0.701
 kpoint_density_transform            10  7.0    0.010    0.010    0.545    0.545
 symtrans_phase                    4696  8.0    0.018    0.019    0.392    0.408
 dbcsr_replicate                   8500  9.0    0.070    0.072    0.242    0.260
 qs_ks_update_qs_env                 10  5.0    0.000    0.000    0.093    0.126
 dbcsr_distribute                  8500  9.0    0.035    0.036    0.120    0.120
 rebuild_ks_matrix                   10  6.0    0.000    0.000    0.083    0.116
 qs_ks_build_kohn_sham_matrix        10  7.0    0.001    0.001    0.083    0.116
 dbcsr_dot                        17413  8.0    0.035    0.035    0.101    0.114
 qs_rho_update_rho_low               11  5.0    0.000    0.000    0.106    0.106
 calculate_rho_elec                  11  6.0    0.000    0.001    0.106    0.106
 density_rs2pw                       11  7.0    0.000    0.000    0.058    0.105
 dbcsr_finalize                   20084  9.6    0.025    0.026    0.102    0.102
 transfer_rs2pw                      45  8.0    0.000    0.000    0.052    0.100
 transfer_rs2pw_50                   12  8.8    0.001    0.001    0.050    0.099
 mp_sendrecv_dv                      45 10.0    0.050    0.098    0.050    0.098
 grid_collocate_task_list            11  7.0    0.047    0.094    0.047    0.094
 dbcsr_desymmetrize_deep            840  7.4    0.006    0.006    0.058    0.094
 mp_alltoall_i22                   1460  8.7    0.041    0.078    0.041    0.078
 sum_up_and_integrate                10  8.0    0.000    0.000    0.040    0.073
 integrate_v_rspace                  10  9.0    0.000    0.000    0.039    0.073
 grid_integrate_task_list            10 10.0    0.033    0.067    0.033    0.067
 copy_dbcsr_to_fm                   420  6.9    0.002    0.002    0.057    0.057
 mp_sum_d                         17902  8.8    0.043    0.056    0.043    0.056
 dbcsr_merge_all                   9120 10.9    0.031    0.032    0.044    0.046
 dbcsr_complete_redistribute        620  8.2    0.012    0.012    0.045    0.046
 dbcsr_iterator_start             61041  9.5    0.031    0.032    0.039    0.040
 mp_allgather_i12                  8500 10.0    0.029    0.040    0.029    0.040
 dbcsr_iterator_stop              61041  9.5    0.028    0.028    0.035    0.036
 dbcsr_create_new                 21923  9.5    0.025    0.026    0.034    0.036
 qs_vxc_create                       10  8.0    0.000    0.000    0.035    0.035
 xc_vxc_pw_create                    10  9.0    0.001    0.001    0.035    0.035
 transform_dmat                    1250  8.0    0.018    0.035    0.018    0.035
 fft_wrap_pw1pw2                    185 10.0    0.000    0.000    0.033    0.033
 rskp_transform                    1083  7.8    0.016    0.032    0.016    0.032
 fft_wrap_pw1pw2_50                 122 11.3    0.001    0.001    0.030    0.030
 dbcsr_data_release              208359 10.8    0.026    0.027    0.026    0.027
 xc_rho_set_and_dset_create          10 10.0    0.001    0.001    0.025    0.025
 fft3d_ps                           185 12.0    0.011    0.012    0.023    0.023
 quick_finalize                    9340 10.9    0.011    0.012    0.019    0.021
 -------------------------------------------------------------------------------

 The number of warnings for this run is : 0
 
 -------------------------------------------------------------------------------
  **** **** ******  **  PROGRAM ENDED AT                 2026-07-16 22:08:31.631
 ***** ** ***  *** **   PROGRAM RAN ON                                     terok
 **    ****   ******    PROGRAM RAN BY                                  kuehne88
 ***** **    ** ** **   PROGRAM PROCESS ID                                518992
  **** **  *******  **  PROGRAM STOPPED IN /home/kuehne88/work/cp2k-crossmesh-in
                                           dependent-review-mpi2
