 DBCSR| CPU Multiplication driver                                           XSMM (U)
 DBCSR| Multrec recursion limit                                              512 (U)
 DBCSR| Multiplication stack size                                           1000 (D)
 DBCSR| Maximum elements for images                                    UNLIMITED (U)
 DBCSR| Multiplicative factor virtual images                                   1 (U)
 DBCSR| Use multiplication densification                                       T (D)
 DBCSR| Multiplication size stacks                                             3 (U)
 DBCSR| Use memory pool for CPU allocation                                     F (U)
 DBCSR| Number of 3D layers                                               SINGLE (U)
 DBCSR| Use MPI memory allocation                                              F (U)
 DBCSR| Use RMA algorithm                                                      F (U)
 DBCSR| Use Communication thread                                               T (U)
 DBCSR| Communication thread load                                             87 (D)
 DBCSR| MPI: My process id                                                     0
 DBCSR| MPI: Number of processes                                               1
 DBCSR| OMP: Current number of threads                                         1
 DBCSR| OMP: Max number of threads                                             1
 DBCSR| Split modifier for TAS multiplication algorithm                  1.0E+00 (U)


  **** **** ******  **  PROGRAM STARTED AT               2026-05-23 23:10:48.846
 ***** ** ***  *** **   PROGRAM STARTED ON                            spark-c86c
 **    ****   ******    PROGRAM STARTED BY                              kuehne88
 ***** **    ** ** **   PROGRAM PROCESS ID                               2279118
  **** **  *******  **  PROGRAM STARTED IN /home/kuehne88/periodic-gfn2-benchmar
                                           ks/X23b/runs/cellopt_gamma/GFN2/hexam
                                           ine_GFN2_gamma_cellopt

 CP2K| version string:                 CP2K version 2026.1 (Development Version)
 CP2K| source code revision number:                                   0622d442e4
 CP2K| cp2kflags: omp fftw3 libxc parallel scalapack mpi_f08 xsmm spglib libdftd
 CP2K|            4 dftd4_v3 mctc-lib tblite
 CP2K| is freely available from                            https://www.cp2k.org/
 CP2K| Program compiled at                                   2026-05-23 22:05:08
 CP2K| Program compiled on                                            spark-c86c
 CP2K| Program compiled for                                              aarch64
 CP2K| Data directory path    /home/kuehne88/cp2k-master-tblite-20260523/install
 CP2K| Input file name                           hexamine_GFN2_gamma_cellopt.inp

 GLOBAL| Force Environment number                                              1
 GLOBAL| Basis set file name                                           BASIS_SET
 GLOBAL| Potential file name                                           POTENTIAL
 GLOBAL| MM Potential file name                                     MM_POTENTIAL
 GLOBAL| Coordinate file name                                      __STD_INPUT__
 GLOBAL| Method name                                                        CP2K
 GLOBAL| Project name                               hexamine_GFN2_gamma_cell_opt
 GLOBAL| Run type                                                       CELL_OPT
 GLOBAL| FFT library                                                       FFTW3
 GLOBAL| Diagonalization library                                       ScaLAPACK
 GLOBAL| Cholesky decomposition library                                ScaLAPACK
 GLOBAL| DGEMM library                                                      BLAS
 GLOBAL| Direct generalized diagonalization requested                          F
 GLOBAL| Orthonormality check for eigenvectors                          DISABLED
 GLOBAL| Matrix multiplication library                                 ScaLAPACK
 GLOBAL| All-to-all communication in single precision                          F
 GLOBAL| FFTs using library dependent lengths                                  F
 GLOBAL| Grid backend                                                       AUTO
 GLOBAL| Global print level                                                  LOW
 GLOBAL| MPI I/O enabled                                                       T
 GLOBAL| Total number of message passing processes                             1
 GLOBAL| Number of distributed systems (nodes)                                 1
 GLOBAL| Number of threads for this process                                    1
 GLOBAL| This output is from process                                           0
 GLOBAL| OpenMP stack size per thread (OMP_STACKSIZE)                    default
 GLOBAL| CPU model name                                                  UNKNOWN
 GLOBAL| CPUID                                                              2200
 GLOBAL| Compiled for CPUID                                                 2000

 *** HINT in environment.F:970 :: The compiler target flags (arm_arch64)   ***
 *** used to build this binary cannot exploit all extensions of this CPU   ***
 *** model (arm_sve256). Consider compiler target flags as part of FCFLAGS ***
 *** and CFLAGS (ARCH file).                                               ***


 MEMORY| system memory details [Kb]
 MEMORY|                        rank 0           min           max       average
 MEMORY| MemTotal            125508532     125508532     125508532     125508532
 MEMORY| MemFree             105776940     105776940     105776940     105776940
 MEMORY| Buffers                870780        870780        870780        870780
 MEMORY| Cached               14105124      14105124      14105124      14105124
 MEMORY| Slab                  1600016       1600016       1600016       1600016
 MEMORY| SReclaimable           925820        925820        925820        925820
 MEMORY| MemLikelyFree       121678664     121678664     121678664     121678664


 *** WARNING in cell_methods.F:457 :: Cell vectors are read but cell   ***
 *** matrix is not a lower triangle, not conforming to the program     ***
 *** convention that A lies along the X-axis and B is in the XY plane. ***


 GENERATE|  Preliminary Number of Bonds generated:                             0
 GENERATE|  Achieved consistency in connectivity generation.


                  #####   #####        #     #   #     #       #          
                 #     # #     #      #    ##### #     #   # #####  ####  
                 #     # #           #       #   ###   #       #   #    # 
                 #     #  #####     #        #   #  #  #   #   #   ###### 
                 #   # #       #   #         #   #   # #   #   #   #      
                 #    #  #     #  #          #   #  #  # # #   #    #   # 
                  #### #  #####  #           #   ###   ##  #   #     ###  

                                   GFN2-xTB  
                                 Version 0.0                       
                            Johann V. Pototschnig                  



 TOTAL NUMBERS AND MAXIMUM NUMBERS

  Total number of            - Atomic kinds:                                   3
                             - Atoms:                                         22
                             - Shell sets:                                    32
                             - Shells:                                        32
                             - Primitive Cartesian functions:                116
                             - Cartesian basis functions:                     52
                             - Spherical basis functions:                     52

  Maximum angular momentum of the orbital basis functions:                     1


 SCF PARAMETERS         Density guess:                                     MOPAC
                        --------------------------------------------------------
                        max_scf:                                             300
                        max_scf_history:                                       0
                        max_diis:                                              4
                        --------------------------------------------------------
                        eps_scf:                                        1.00E-09
                        eps_scf_history:                                0.00E+00
                        eps_diis:                                       1.00E-01
                        eps_eigval:                                     1.00E-05
                        --------------------------------------------------------
                        level_shift [a.u.]:                             0.000000
                        added MOs                                        24    0
                        --------------------------------------------------------
                        Mixing method:                           DIRECT_P_MIXING
                        --------------------------------------------------------
                        Smear method:                                FERMI_DIRAC
                        Electronic temperature [K]:                        300.0
                        Electronic temperature [a.u.]:                  9.50E-04
                        Accuracy threshold:                             1.00E-06
                        --------------------------------------------------------
                        No outer SCF

 CELL_OPT| Pressure tolerance [bar]:                                       100.0
 CELL_OPT| Keep volume of cell:                                               NO
 CELL_OPT| Keep angles between the cell vectors:                              NO
 CELL_OPT| Keep cell symmetry:                                                NO
 CELL_OPT| Constraint:                                                      NONE

 BFGS| Use rational function optimization for step estimation:                NO
 BFGS| Use model Hessian for initial guess:                                   NO
 BFGS| Restart Hessian:                                                       NO
 BFGS| Trust radius:                                                       0.472

 *******************************************************************************
 ***                     STARTING   CELL   OPTIMIZATION                      ***
 ***                                   BFGS                                  ***
 *******************************************************************************

 CELL| Volume [angstrom^3]:                                           165.351022
 CELL| Vector a [angstrom]:       5.989    -0.000    -0.000   |a| =     5.988828
 CELL| Vector b [angstrom]:      -1.996     5.646    -0.000   |b| =     5.988835
 CELL| Vector c [angstrom]:      -1.996    -2.823     4.890   |c| =     5.988837
 CELL| Angle (b,c), alpha [degree]:                                   109.471140
 CELL| Angle (a,c), beta  [degree]:                                   109.471090
 CELL| Angle (a,b), gamma [degree]:                                   109.471040
 CELL| Numerically orthorhombic:                                              NO
 CELL| Periodicity                                                           XYZ

 Extrapolation method: initial_guess

 Number of electrons:                                                         56
 Number of occupied orbitals:                                                 28
 Number of molecular orbitals:                                                52

 Number of orbital functions:                                                 52
 Number of independent orbital functions:                                     52


 SCF WAVEFUNCTION OPTIMIZATION

  Step     Update method      Time    Convergence         Total energy    Change
  ------------------------------------------------------------------------------
     1 TBLite/Diag 0.40E+00    0.0     0.75891909       -30.6363170008 -3.06E+01
     2 TBLite/Diag 0.40E+00    0.0     0.10359961       -30.7299323714 -9.36E-02
     3 TBLite/Diag 0.40E+00    0.0     0.02405562       -30.7324578771 -2.53E-03
     4 TBLite/Diag 0.40E+00    0.0     0.00400570       -30.7324465975  1.13E-05
     5 TBLite/Diag 0.40E+00    0.0     0.00442591       -30.7325212377 -7.46E-05
     6 TBLite/Diag 0.40E+00    0.0     0.00311699       -30.7325163037  4.93E-06
     7 TBLite/Diag 0.40E+00    0.0     0.00227700       -30.7325355064 -1.92E-05
     8 TBLite/Diag 0.40E+00    0.0     0.00048490       -30.7325380638 -2.56E-06
     9 TBLite/Diag 0.40E+00    0.0     0.00009260       -30.7325381313 -6.75E-08
    10 TBLite/Diag 0.40E+00    0.0     0.00000433       -30.7325381314 -7.24E-11
    11 TBLite/Diag 0.40E+00    0.0     0.00000048       -30.7325381314  3.93E-12
    12 TBLite/Diag 0.40E+00    0.0     0.00000118       -30.7325381314 -8.48E-12
    13 TBLite/Diag 0.40E+00    0.0     0.00000008       -30.7325381314 -3.55E-14
    14 TBLite/Diag 0.40E+00    0.0     2.1007E-09       -30.7325381314 -3.55E-15
    15 TBLite/Diag 0.40E+00    0.0     1.9889E-10       -30.7325381314  1.07E-14

  *** SCF run converged in    15 steps ***


  Core Hamiltonian energy:                                    -31.04244572945439
  Repulsive potential energy:                                   0.30141046930470
  Electrostatic energy:                                         0.05085488789512
  Self-consistent dispersion energy:                           -0.05437603549868
  Non-self consistent dispersion energy:                        0.01201827638793
  Correction for halogen bonding:                               0.00000000000000
  Electronic entropic energy:                                  -0.00000000000000
  Fermi energy:                                                -0.04592248447574

  Total energy:                                               -30.73253813136532
  Total energy (extrapolated to T->0):                        -30.73253813136532

 ENERGY| Total FORCE_EVAL ( QS ) energy [hartree]            -30.732538131365317

 OPT| **************************************************************************
 OPT| Step number                                                              0
 OPT| Optimization method                                                   BFGS
 OPT| Total energy [hartree]                                      -30.7325381314
 OPT| Internal pressure [bar]                                  -46862.2921725833
 OPT| Used time [s]                                                        0.918
 OPT| **************************************************************************
 OPT| Estimated peak process memory [MiB]                                    162

 --------------------------
 OPTIMIZATION STEP:      1
 --------------------------

 CELL| Volume [angstrom^3]:                                           164.520538
 CELL| Vector a [angstrom]:       5.981    -0.000    -0.000   |a| =     5.980519
 CELL| Vector b [angstrom]:      -1.996     5.638    -0.000   |b| =     5.980524
 CELL| Vector c [angstrom]:      -1.996    -2.823     4.880   |c| =     5.980529
 CELL| Angle (b,c), alpha [degree]:                                   109.485192
 CELL| Angle (a,c), beta  [degree]:                                   109.499250
 CELL| Angle (a,b), gamma [degree]:                                   109.499207
 CELL| Numerically orthorhombic:                                              NO
 CELL| Periodicity                                                           XYZ

 Extrapolation method: ASPC

 Number of electrons:                                                         56
 Number of occupied orbitals:                                                 28
 Number of molecular orbitals:                                                52

 Number of orbital functions:                                                 52
 Number of independent orbital functions:                                     52


 SCF WAVEFUNCTION OPTIMIZATION

  Step     Update method      Time    Convergence         Total energy    Change
  ------------------------------------------------------------------------------
     1 TBLite/Diag 0.40E+00    0.0     0.01703264       -30.7346875776 -3.07E+01
     2 TBLite/Diag 0.40E+00    0.0     0.00228621       -30.7347099671 -2.24E-05
     3 TBLite/Diag 0.40E+00    0.0     0.00069233       -30.7347116319 -1.66E-06
     4 TBLite/Diag 0.40E+00    0.0     0.00025225       -30.7347116687 -3.68E-08
     5 TBLite/Diag 0.40E+00    0.0     0.00017535       -30.7347117399 -7.11E-08
     6 TBLite/Diag 0.40E+00    0.0     0.00001334       -30.7347117404 -4.95E-10
     7 TBLite/Diag 0.40E+00    0.0     0.00000477       -30.7347117404 -6.67E-11
     8 TBLite/Diag 0.40E+00    0.0     0.00000052       -30.7347117404 -1.20E-12
     9 TBLite/Diag 0.40E+00    0.0     0.00000032       -30.7347117404 -1.28E-13
    10 TBLite/Diag 0.40E+00    0.0     0.00000003       -30.7347117404  0.00E+00
    11 TBLite/Diag 0.40E+00    0.0     5.9892E-09       -30.7347117404 -7.11E-15
    12 TBLite/Diag 0.40E+00    0.0     3.1384E-09       -30.7347117404 -3.55E-15
    13 TBLite/Diag 0.40E+00    0.0     2.3898E-10       -30.7347117404  1.78E-14

  *** SCF run converged in    13 steps ***


  Core Hamiltonian energy:                                    -31.05051701134536
  Repulsive potential energy:                                   0.30796628847972
  Electrostatic energy:                                         0.05032233950117
  Self-consistent dispersion energy:                           -0.05461771686849
  Non-self consistent dispersion energy:                        0.01213435979424
  Correction for halogen bonding:                               0.00000000000000
  Electronic entropic energy:                                  -0.00000000000000
  Fermi energy:                                                -0.03905586583739

  Total energy:                                               -30.73471174043873
  Total energy (extrapolated to T->0):                        -30.73471174043873

 ENERGY| Total FORCE_EVAL ( QS ) energy [hartree]            -30.734711740438726

 OPT| **************************************************************************
 OPT| Step number                                                              1
 OPT| Optimization method                                                   BFGS
 OPT| Total energy [hartree]                                      -30.7347117404
 OPT| Internal pressure [bar]                                  -29886.3024517919
 OPT| Effective energy change [hartree]                            -0.0021736091
 OPT| Predicted energy change [hartree]                            -0.0013967515
 OPT| Scaling factor                                                0.0000000000
 OPT| Step size                                                     0.0192387051
 OPT| Trust radius                                                  0.4724315332
 OPT| Decrease in energy                                                     YES
 OPT| Used time [s]                                                        0.891
 OPT|
 OPT| Maximum step size                                             0.0192387051
 OPT| Convergence limit for maximum step size                       0.0030000000
 OPT| Maximum step size is converged                                          NO
 OPT|
 OPT| RMS step size                                                 0.0062288563
 OPT| Convergence limit for RMS step size                           0.0015000000
 OPT| RMS step size is converged                                              NO
 OPT|
 OPT| Maximum gradient                                              0.0116154510
 OPT| Convergence limit for maximum gradient                        0.0004500000
 OPT| Maximum gradient is converged                                           NO
 OPT|
 OPT| RMS gradient                                                  0.0034893214
 OPT| Convergence limit for RMS gradient                            0.0003000000
 OPT| RMS gradient is converged                                               NO
 OPT|
 OPT| Pressure deviation [bar]                                 -29886.3024517919
 OPT| Pressure tolerance [bar]                                    100.0000000000
 OPT| Pressure is converged                                                   NO
 OPT| **************************************************************************
 OPT| Estimated peak process memory after this step [MiB]                    163

 --------------------------
 OPTIMIZATION STEP:      2
 --------------------------

 CELL| Volume [angstrom^3]:                                           163.341523
 CELL| Vector a [angstrom]:       5.968    -0.000    -0.000   |a| =     5.968397
 CELL| Vector b [angstrom]:      -1.996     5.625    -0.000   |b| =     5.968338
 CELL| Vector c [angstrom]:      -1.996    -2.822     4.866   |c| =     5.968360
 CELL| Angle (b,c), alpha [degree]:                                   109.503700
 CELL| Angle (a,c), beta  [degree]:                                   109.533795
 CELL| Angle (a,b), gamma [degree]:                                   109.533763
 CELL| Numerically orthorhombic:                                              NO
 CELL| Periodicity                                                           XYZ

 Extrapolation method: ASPC

 Number of electrons:                                                         56
 Number of occupied orbitals:                                                 28
 Number of molecular orbitals:                                                52

 Number of orbital functions:                                                 52
 Number of independent orbital functions:                                     52


 SCF WAVEFUNCTION OPTIMIZATION

  Step     Update method      Time    Convergence         Total energy    Change
  ------------------------------------------------------------------------------
     1 TBLite/Diag 0.40E+00    0.0     0.02165619       -30.7356865662 -3.07E+01
     2 TBLite/Diag 0.40E+00    0.0     0.00218978       -30.7357160175 -2.95E-05
     3 TBLite/Diag 0.40E+00    0.0     0.00080822       -30.7357182856 -2.27E-06
     4 TBLite/Diag 0.40E+00    0.0     0.00014520       -30.7357184182 -1.33E-07
     5 TBLite/Diag 0.40E+00    0.0     0.00008903       -30.7357184482 -3.00E-08
     6 TBLite/Diag 0.40E+00    0.0     0.00000651       -30.7357184483 -1.34E-10
     7 TBLite/Diag 0.40E+00    0.0     0.00000224       -30.7357184483 -2.58E-11
     8 TBLite/Diag 0.40E+00    0.0     0.00000053       -30.7357184483 -1.50E-12
     9 TBLite/Diag 0.40E+00    0.0     0.00000029       -30.7357184483 -1.63E-13
    10 TBLite/Diag 0.40E+00    0.0     0.00000004       -30.7357184483 -2.13E-14
    11 TBLite/Diag 0.40E+00    0.0     3.5861E-09       -30.7357184483 -1.42E-14
    12 TBLite/Diag 0.40E+00    0.0     2.8385E-09       -30.7357184483  2.49E-14
    13 TBLite/Diag 0.40E+00    0.0     3.5299E-10       -30.7357184483 -2.13E-14

  *** SCF run converged in    13 steps ***


  Core Hamiltonian energy:                                    -31.06216049649400
  Repulsive potential energy:                                   0.31944381580421
  Electrostatic energy:                                         0.04966265902887
  Self-consistent dispersion energy:                           -0.05496812788503
  Non-self consistent dispersion energy:                        0.01230370123249
  Correction for halogen bonding:                               0.00000000000000
  Electronic entropic energy:                                  -0.00000000000000
  Fermi energy:                                                -0.03607698425413

  Total energy:                                               -30.73571844831346
  Total energy (extrapolated to T->0):                        -30.73571844831346

 ENERGY| Total FORCE_EVAL ( QS ) energy [hartree]            -30.735718448313460

 OPT| **************************************************************************
 OPT| Step number                                                              2
 OPT| Optimization method                                                   BFGS
 OPT| Total energy [hartree]                                      -30.7357184483
 OPT| Internal pressure [bar]                                   -4921.0026402906
 OPT| Effective energy change [hartree]                            -0.0010067079
 OPT| Predicted energy change [hartree]                            -0.0010130153
 OPT| Scaling factor                                                0.0000000000
 OPT| Step size                                                     0.0267919913
 OPT| Trust radius                                                  0.4724315332
 OPT| Decrease in energy                                                     YES
 OPT| Used time [s]                                                        0.893
 OPT|
 OPT| Maximum step size                                             0.0267919913
 OPT| Convergence limit for maximum step size                       0.0030000000
 OPT| Maximum step size is converged                                          NO
 OPT|
 OPT| RMS step size                                                 0.0080645432
 OPT| Convergence limit for RMS step size                           0.0015000000
 OPT| RMS step size is converged                                              NO
 OPT|
 OPT| Maximum gradient                                              0.0019971640
 OPT| Convergence limit for maximum gradient                        0.0004500000
 OPT| Maximum gradient is converged                                           NO
 OPT|
 OPT| RMS gradient                                                  0.0008372723
 OPT| Convergence limit for RMS gradient                            0.0003000000
 OPT| RMS gradient is converged                                               NO
 OPT|
 OPT| Pressure deviation [bar]                                  -4921.0026402906
 OPT| Pressure tolerance [bar]                                    100.0000000000
 OPT| Pressure is converged                                                   NO
 OPT| **************************************************************************
 OPT| Estimated peak process memory after this step [MiB]                    164

 --------------------------
 OPTIMIZATION STEP:      3
 --------------------------

 CELL| Volume [angstrom^3]:                                           163.266968
 CELL| Vector a [angstrom]:       5.967    -0.000    -0.000   |a| =     5.967445
 CELL| Vector b [angstrom]:      -1.995     5.624    -0.000   |b| =     5.967338
 CELL| Vector c [angstrom]:      -1.995    -2.822     4.865   |c| =     5.967344
 CELL| Angle (b,c), alpha [degree]:                                   109.503936
 CELL| Angle (a,c), beta  [degree]:                                   109.532047
 CELL| Angle (a,b), gamma [degree]:                                   109.532011
 CELL| Numerically orthorhombic:                                              NO
 CELL| Periodicity                                                           XYZ

 Extrapolation method: ASPC

 Number of electrons:                                                         56
 Number of occupied orbitals:                                                 28
 Number of molecular orbitals:                                                52

 Number of orbital functions:                                                 52
 Number of independent orbital functions:                                     52


 SCF WAVEFUNCTION OPTIMIZATION

  Step     Update method      Time    Convergence         Total energy    Change
  ------------------------------------------------------------------------------
     1 TBLite/Diag 0.40E+00    0.0     0.00097674       -30.7357578437 -3.07E+01
     2 TBLite/Diag 0.40E+00    0.0     0.00027706       -30.7357581243 -2.81E-07
     3 TBLite/Diag 0.40E+00    0.0     0.00003920       -30.7357581326 -8.28E-09
     4 TBLite/Diag 0.40E+00    0.0     0.00001959       -30.7357581338 -1.21E-09
     5 TBLite/Diag 0.40E+00    0.0     0.00000782       -30.7357581340 -2.32E-10
     6 TBLite/Diag 0.40E+00    0.0     0.00000192       -30.7357581340 -1.52E-11
     7 TBLite/Diag 0.40E+00    0.0     0.00000063       -30.7357581340 -1.93E-12
     8 TBLite/Diag 0.40E+00    0.0     0.00000013       -30.7357581340 -1.07E-13
     9 TBLite/Diag 0.40E+00    0.0     0.00000006       -30.7357581340  0.00E+00
    10 TBLite/Diag 0.40E+00    0.0     5.9194E-09       -30.7357581340  0.00E+00
    11 TBLite/Diag 0.40E+00    0.0     1.6826E-09       -30.7357581340  1.42E-14
    12 TBLite/Diag 0.40E+00    0.0     4.7569E-10       -30.7357581340  0.00E+00

  *** SCF run converged in    12 steps ***


  Core Hamiltonian energy:                                    -31.06325803236197
  Repulsive potential energy:                                   0.32052898824876
  Electrostatic energy:                                         0.04964680978688
  Self-consistent dispersion energy:                           -0.05499145886895
  Non-self consistent dispersion energy:                        0.01231555915271
  Correction for halogen bonding:                               0.00000000000000
  Electronic entropic energy:                                  -0.00000000000000
  Fermi energy:                                                -0.03500630629528

  Total energy:                                               -30.73575813404257
  Total energy (extrapolated to T->0):                        -30.73575813404257

 ENERGY| Total FORCE_EVAL ( QS ) energy [hartree]            -30.735758134042570

 OPT| **************************************************************************
 OPT| Step number                                                              3
 OPT| Optimization method                                                   BFGS
 OPT| Total energy [hartree]                                      -30.7357581340
 OPT| Internal pressure [bar]                                   -4029.6396136932
 OPT| Effective energy change [hartree]                            -0.0000396857
 OPT| Predicted energy change [hartree]                            -0.0000238758
 OPT| Scaling factor                                                0.0000000000
 OPT| Step size                                                     0.0017981716
 OPT| Trust radius                                                  0.4724315332
 OPT| Decrease in energy                                                     YES
 OPT| Used time [s]                                                        0.892
 OPT|
 OPT| Maximum step size                                             0.0017981716
 OPT| Convergence limit for maximum step size                       0.0030000000
 OPT| Maximum step size is converged                                         YES
 OPT|
 OPT| RMS step size                                                 0.0007992020
 OPT| Convergence limit for RMS step size                           0.0015000000
 OPT| RMS step size is converged                                             YES
 OPT|
 OPT| Maximum gradient                                              0.0015419071
 OPT| Convergence limit for maximum gradient                        0.0004500000
 OPT| Maximum gradient is converged                                           NO
 OPT|
 OPT| RMS gradient                                                  0.0005794025
 OPT| Convergence limit for RMS gradient                            0.0003000000
 OPT| RMS gradient is converged                                               NO
 OPT|
 OPT| Pressure deviation [bar]                                  -4029.6396136932
 OPT| Pressure tolerance [bar]                                    100.0000000000
 OPT| Pressure is converged                                                   NO
 OPT| **************************************************************************
 OPT| Estimated peak process memory after this step [MiB]                    164

 --------------------------
 OPTIMIZATION STEP:      4
 --------------------------

 CELL| Volume [angstrom^3]:                                           163.029010
 CELL| Vector a [angstrom]:       5.964    -0.000    -0.000   |a| =     5.964440
 CELL| Vector b [angstrom]:      -1.994     5.621    -0.000   |b| =     5.964203
 CELL| Vector c [angstrom]:      -1.994    -2.820     4.863   |c| =     5.964179
 CELL| Angle (b,c), alpha [degree]:                                   109.505016
 CELL| Angle (a,c), beta  [degree]:                                   109.527434
 CELL| Angle (a,b), gamma [degree]:                                   109.527398
 CELL| Numerically orthorhombic:                                              NO
 CELL| Periodicity                                                           XYZ

 Extrapolation method: ASPC

 Number of electrons:                                                         56
 Number of occupied orbitals:                                                 28
 Number of molecular orbitals:                                                52

 Number of orbital functions:                                                 52
 Number of independent orbital functions:                                     52


 SCF WAVEFUNCTION OPTIMIZATION

  Step     Update method      Time    Convergence         Total energy    Change
  ------------------------------------------------------------------------------
     1 TBLite/Diag 0.40E+00    0.0     0.00268043       -30.7358061317 -3.07E+01
     2 TBLite/Diag 0.40E+00    0.0     0.00069625       -30.7358075170 -1.39E-06
     3 TBLite/Diag 0.40E+00    0.0     0.00008659       -30.7358075521 -3.51E-08
     4 TBLite/Diag 0.40E+00    0.0     0.00004079       -30.7358075614 -9.31E-09
     5 TBLite/Diag 0.40E+00    0.0     0.00000670       -30.7358075616 -2.01E-10
     6 TBLite/Diag 0.40E+00    0.0     0.00000410       -30.7358075617 -7.16E-11
     7 TBLite/Diag 0.40E+00    0.0     0.00000106       -30.7358075617 -6.06E-12
     8 TBLite/Diag 0.40E+00    0.0     0.00000054       -30.7358075617 -3.77E-13
     9 TBLite/Diag 0.40E+00    0.0     0.00000012       -30.7358075617 -2.84E-14
    10 TBLite/Diag 0.40E+00    0.0     0.00000001       -30.7358075617  0.00E+00
    11 TBLite/Diag 0.40E+00    0.0     4.0415E-09       -30.7358075617 -1.07E-14
    12 TBLite/Diag 0.40E+00    0.0     1.3091E-09       -30.7358075617  2.49E-14
    13 TBLite/Diag 0.40E+00    0.0     7.8661E-11       -30.7358075617  0.00E+00

  *** SCF run converged in    13 steps ***


  Core Hamiltonian energy:                                    -31.06568190561320
  Repulsive potential energy:                                   0.32305062118151
  Electrostatic energy:                                         0.04953934618783
  Self-consistent dispersion energy:                           -0.05506680207802
  Non-self consistent dispersion energy:                        0.01235117860391
  Correction for halogen bonding:                               0.00000000000000
  Electronic entropic energy:                                  -0.00000000000000
  Fermi energy:                                                -0.03282201666196

  Total energy:                                               -30.73580756171797
  Total energy (extrapolated to T->0):                        -30.73580756171797

 ENERGY| Total FORCE_EVAL ( QS ) energy [hartree]            -30.735807561717973

 OPT| **************************************************************************
 OPT| Step number                                                              4
 OPT| Optimization method                                                   BFGS
 OPT| Total energy [hartree]                                      -30.7358075617
 OPT| Internal pressure [bar]                                   -1295.4934492479
 OPT| Effective energy change [hartree]                            -0.0000494277
 OPT| Predicted energy change [hartree]                            -0.0000425269
 OPT| Scaling factor                                                0.0000000000
 OPT| Step size                                                     0.0056780311
 OPT| Trust radius                                                  0.4724315332
 OPT| Decrease in energy                                                     YES
 OPT| Used time [s]                                                        0.906
 OPT|
 OPT| Maximum step size                                             0.0056780311
 OPT| Convergence limit for maximum step size                       0.0030000000
 OPT| Maximum step size is converged                                          NO
 OPT|
 OPT| RMS step size                                                 0.0020804531
 OPT| Convergence limit for RMS step size                           0.0015000000
 OPT| RMS step size is converged                                              NO
 OPT|
 OPT| Maximum gradient                                              0.0008935398
 OPT| Convergence limit for maximum gradient                        0.0004500000
 OPT| Maximum gradient is converged                                           NO
 OPT|
 OPT| RMS gradient                                                  0.0003476926
 OPT| Convergence limit for RMS gradient                            0.0003000000
 OPT| RMS gradient is converged                                               NO
 OPT|
 OPT| Pressure deviation [bar]                                  -1295.4934492479
 OPT| Pressure tolerance [bar]                                    100.0000000000
 OPT| Pressure is converged                                                   NO
 OPT| **************************************************************************
 OPT| Estimated peak process memory after this step [MiB]                    164

 --------------------------
 OPTIMIZATION STEP:      5
 --------------------------

 CELL| Volume [angstrom^3]:                                           162.962063
 CELL| Vector a [angstrom]:       5.964    -0.000    -0.000   |a| =     5.963538
 CELL| Vector b [angstrom]:      -1.993     5.620    -0.000   |b| =     5.963268
 CELL| Vector c [angstrom]:      -1.993    -2.819     4.862   |c| =     5.963240
 CELL| Angle (b,c), alpha [degree]:                                   109.505081
 CELL| Angle (a,c), beta  [degree]:                                   109.525188
 CELL| Angle (a,b), gamma [degree]:                                   109.525157
 CELL| Numerically orthorhombic:                                              NO
 CELL| Periodicity                                                           XYZ

 Extrapolation method: ASPC

 Number of electrons:                                                         56
 Number of occupied orbitals:                                                 28
 Number of molecular orbitals:                                                52

 Number of orbital functions:                                                 52
 Number of independent orbital functions:                                     52


 SCF WAVEFUNCTION OPTIMIZATION

  Step     Update method      Time    Convergence         Total energy    Change
  ------------------------------------------------------------------------------
     1 TBLite/Diag 0.40E+00    0.0     0.00085789       -30.7358167524 -3.07E+01
     2 TBLite/Diag 0.40E+00    0.0     0.00015020       -30.7358168166 -6.42E-08
     3 TBLite/Diag 0.40E+00    0.0     0.00004095       -30.7358168210 -4.42E-09
     4 TBLite/Diag 0.40E+00    0.0     0.00000983       -30.7358168217 -6.74E-10
     5 TBLite/Diag 0.40E+00    0.0     0.00000455       -30.7358168218 -5.95E-11
     6 TBLite/Diag 0.40E+00    0.0     0.00000094       -30.7358168218 -4.62E-12
     7 TBLite/Diag 0.40E+00    0.0     0.00000047       -30.7358168218 -1.14E-12
     8 TBLite/Diag 0.40E+00    0.0     0.00000014       -30.7358168218 -4.26E-14
     9 TBLite/Diag 0.40E+00    0.0     0.00000007       -30.7358168218 -1.42E-14
    10 TBLite/Diag 0.40E+00    0.0     4.2202E-09       -30.7358168218  3.55E-15
    11 TBLite/Diag 0.40E+00    0.0     7.0856E-10       -30.7358168218 -3.55E-15

  *** SCF run converged in    11 steps ***


  Core Hamiltonian energy:                                    -31.06579535589504
  Repulsive potential energy:                                   0.32320117313068
  Electrostatic energy:                                         0.04950529699738
  Self-consistent dispersion energy:                           -0.05508956422097
  Non-self consistent dispersion energy:                        0.01236162820941
  Correction for halogen bonding:                               0.00000000000000
  Electronic entropic energy:                                  -0.00000000000000
  Fermi energy:                                                -0.03277877448755

  Total energy:                                               -30.73581682177854
  Total energy (extrapolated to T->0):                        -30.73581682177854

 ENERGY| Total FORCE_EVAL ( QS ) energy [hartree]            -30.735816821778538

 OPT| **************************************************************************
 OPT| Step number                                                              5
 OPT| Optimization method                                                   BFGS
 OPT| Total energy [hartree]                                      -30.7358168218
 OPT| Internal pressure [bar]                                    -942.0228862603
 OPT| Effective energy change [hartree]                            -0.0000092601
 OPT| Predicted energy change [hartree]                            -0.0000056129
 OPT| Scaling factor                                                0.0000000000
 OPT| Step size                                                     0.0017054871
 OPT| Trust radius                                                  0.4724315332
 OPT| Decrease in energy                                                     YES
 OPT| Used time [s]                                                        0.893
 OPT|
 OPT| Maximum step size                                             0.0017054871
 OPT| Convergence limit for maximum step size                       0.0030000000
 OPT| Maximum step size is converged                                         YES
 OPT|
 OPT| RMS step size                                                 0.0006383300
 OPT| Convergence limit for RMS step size                           0.0015000000
 OPT| RMS step size is converged                                             YES
 OPT|
 OPT| Maximum gradient                                              0.0008053641
 OPT| Convergence limit for maximum gradient                        0.0004500000
 OPT| Maximum gradient is converged                                           NO
 OPT|
 OPT| RMS gradient                                                  0.0003101470
 OPT| Convergence limit for RMS gradient                            0.0003000000
 OPT| RMS gradient is converged                                               NO
 OPT|
 OPT| Pressure deviation [bar]                                   -942.0228862603
 OPT| Pressure tolerance [bar]                                    100.0000000000
 OPT| Pressure is converged                                                   NO
 OPT| **************************************************************************
 OPT| Estimated peak process memory after this step [MiB]                    164

 --------------------------
 OPTIMIZATION STEP:      6
 --------------------------

 CELL| Volume [angstrom^3]:                                           162.811092
 CELL| Vector a [angstrom]:       5.961    -0.000    -0.000   |a| =     5.961456
 CELL| Vector b [angstrom]:      -1.992     5.619    -0.000   |b| =     5.961132
 CELL| Vector c [angstrom]:      -1.992    -2.818     4.861   |c| =     5.961094
 CELL| Angle (b,c), alpha [degree]:                                   109.505055
 CELL| Angle (a,c), beta  [degree]:                                   109.519531
 CELL| Angle (a,b), gamma [degree]:                                   109.519519
 CELL| Numerically orthorhombic:                                              NO
 CELL| Periodicity                                                           XYZ

 Extrapolation method: ASPC

 Number of electrons:                                                         56
 Number of occupied orbitals:                                                 28
 Number of molecular orbitals:                                                52

 Number of orbital functions:                                                 52
 Number of independent orbital functions:                                     52


 SCF WAVEFUNCTION OPTIMIZATION

  Step     Update method      Time    Convergence         Total energy    Change
  ------------------------------------------------------------------------------
     1 TBLite/Diag 0.40E+00    0.0     0.00148922       -30.7358350386 -3.07E+01
     2 TBLite/Diag 0.40E+00    0.0     0.00022634       -30.7358352116 -1.73E-07
     3 TBLite/Diag 0.40E+00    0.0     0.00010381       -30.7358352334 -2.17E-08
     4 TBLite/Diag 0.40E+00    0.0     0.00002807       -30.7358352365 -3.12E-09
     5 TBLite/Diag 0.40E+00    0.0     0.00000998       -30.7358352368 -2.99E-10
     6 TBLite/Diag 0.40E+00    0.0     0.00000218       -30.7358352368 -2.12E-11
     7 TBLite/Diag 0.40E+00    0.0     0.00000097       -30.7358352368 -5.17E-12
     8 TBLite/Diag 0.40E+00    0.0     0.00000028       -30.7358352368 -1.28E-13
     9 TBLite/Diag 0.40E+00    0.0     0.00000015       -30.7358352368 -3.91E-14
    10 TBLite/Diag 0.40E+00    0.0     8.3906E-09       -30.7358352368  1.07E-14
    11 TBLite/Diag 0.40E+00    0.0     1.2613E-09       -30.7358352368 -7.11E-15
    12 TBLite/Diag 0.40E+00    0.0     1.2107E-09       -30.7358352368  1.07E-14
    13 TBLite/Diag 0.40E+00    0.0     1.2462E-10       -30.7358352368 -1.78E-14

  *** SCF run converged in    13 steps ***


  Core Hamiltonian energy:                                    -31.06548002137973
  Repulsive potential energy:                                   0.32293754746053
  Electrostatic energy:                                         0.04946778854532
  Self-consistent dispersion energy:                           -0.05514365766713
  Non-self consistent dispersion energy:                        0.01238310624650
  Correction for halogen bonding:                               0.00000000000000
  Electronic entropic energy:                                  -0.00000000000000
  Fermi energy:                                                -0.03337841574312

  Total energy:                                               -30.73583523679450
  Total energy (extrapolated to T->0):                        -30.73583523679450

 ENERGY| Total FORCE_EVAL ( QS ) energy [hartree]            -30.735835236794504

 OPT| **************************************************************************
 OPT| Step number                                                              6
 OPT| Optimization method                                                   BFGS
 OPT| Total energy [hartree]                                      -30.7358352368
 OPT| Internal pressure [bar]                                    -641.6089163536
 OPT| Effective energy change [hartree]                            -0.0000184150
 OPT| Predicted energy change [hartree]                            -0.0000130241
 OPT| Scaling factor                                                0.0000000000
 OPT| Step size                                                     0.0039345609
 OPT| Trust radius                                                  0.4724315332
 OPT| Decrease in energy                                                     YES
 OPT| Used time [s]                                                        0.896
 OPT|
 OPT| Maximum step size                                             0.0039345609
 OPT| Convergence limit for maximum step size                       0.0030000000
 OPT| Maximum step size is converged                                          NO
 OPT|
 OPT| RMS step size                                                 0.0015775470
 OPT| Convergence limit for RMS step size                           0.0015000000
 OPT| RMS step size is converged                                              NO
 OPT|
 OPT| Maximum gradient                                              0.0006344290
 OPT| Convergence limit for maximum gradient                        0.0004500000
 OPT| Maximum gradient is converged                                           NO
 OPT|
 OPT| RMS gradient                                                  0.0002399934
 OPT| Convergence limit for RMS gradient                            0.0003000000
 OPT| RMS gradient is converged                                              YES
 OPT|
 OPT| Pressure deviation [bar]                                   -641.6089163536
 OPT| Pressure tolerance [bar]                                    100.0000000000
 OPT| Pressure is converged                                                   NO
 OPT| **************************************************************************
 OPT| Estimated peak process memory after this step [MiB]                    164

 --------------------------
 OPTIMIZATION STEP:      7
 --------------------------

 CELL| Volume [angstrom^3]:                                           162.746251
 CELL| Vector a [angstrom]:       5.961    -0.000    -0.000   |a| =     5.960583
 CELL| Vector b [angstrom]:      -1.991     5.618    -0.000   |b| =     5.960259
 CELL| Vector c [angstrom]:      -1.991    -2.817     4.860   |c| =     5.960216
 CELL| Angle (b,c), alpha [degree]:                                   109.505186
 CELL| Angle (a,c), beta  [degree]:                                   109.517782
 CELL| Angle (a,b), gamma [degree]:                                   109.517784
 CELL| Numerically orthorhombic:                                              NO
 CELL| Periodicity                                                           XYZ

 Extrapolation method: ASPC

 Number of electrons:                                                         56
 Number of occupied orbitals:                                                 28
 Number of molecular orbitals:                                                52

 Number of orbital functions:                                                 52
 Number of independent orbital functions:                                     52


 SCF WAVEFUNCTION OPTIMIZATION

  Step     Update method      Time    Convergence         Total energy    Change
  ------------------------------------------------------------------------------
     1 TBLite/Diag 0.40E+00    0.0     0.00053861       -30.7358431199 -3.07E+01
     2 TBLite/Diag 0.40E+00    0.0     0.00004415       -30.7358431356 -1.56E-08
     3 TBLite/Diag 0.40E+00    0.0     0.00002281       -30.7358431377 -2.11E-09
     4 TBLite/Diag 0.40E+00    0.0     0.00000754       -30.7358431380 -3.52E-10
     5 TBLite/Diag 0.40E+00    0.0     0.00000243       -30.7358431380 -1.05E-11
     6 TBLite/Diag 0.40E+00    0.0     0.00000065       -30.7358431381 -2.80E-12
     7 TBLite/Diag 0.40E+00    0.0     0.00000021       -30.7358431381 -1.49E-13
     8 TBLite/Diag 0.40E+00    0.0     0.00000007       -30.7358431381 -2.13E-14
     9 TBLite/Diag 0.40E+00    0.0     0.00000003       -30.7358431381  1.42E-14
    10 TBLite/Diag 0.40E+00    0.0     2.5704E-09       -30.7358431381  1.42E-14
    11 TBLite/Diag 0.40E+00    0.0     4.1987E-10       -30.7358431381 -1.78E-14

  *** SCF run converged in    11 steps ***


  Core Hamiltonian energy:                                    -31.06517077341788
  Repulsive potential energy:                                   0.32260987607632
  Electrostatic energy:                                         0.04949511283315
  Self-consistent dispersion energy:                           -0.05516864281286
  Non-self consistent dispersion energy:                        0.01239128927031
  Correction for halogen bonding:                               0.00000000000000
  Electronic entropic energy:                                  -0.00000000000000
  Fermi energy:                                                -0.03390828186682

  Total energy:                                               -30.73584313805095
  Total energy (extrapolated to T->0):                        -30.73584313805095

 ENERGY| Total FORCE_EVAL ( QS ) energy [hartree]            -30.735843138050953

 OPT| **************************************************************************
 OPT| Step number                                                              7
 OPT| Optimization method                                                   BFGS
 OPT| Total energy [hartree]                                      -30.7358431381
 OPT| Internal pressure [bar]                                    -782.6554609239
 OPT| Effective energy change [hartree]                            -0.0000079013
 OPT| Predicted energy change [hartree]                            -0.0000038880
 OPT| Scaling factor                                                0.0000000000
 OPT| Step size                                                     0.0018933265
 OPT| Trust radius                                                  0.4724315332
 OPT| Decrease in energy                                                     YES
 OPT| Used time [s]                                                        0.894
 OPT|
 OPT| Maximum step size                                             0.0018933265
 OPT| Convergence limit for maximum step size                       0.0030000000
 OPT| Maximum step size is converged                                         YES
 OPT|
 OPT| RMS step size                                                 0.0007341559
 OPT| Convergence limit for RMS step size                           0.0015000000
 OPT| RMS step size is converged                                             YES
 OPT|
 OPT| Maximum gradient                                              0.0005611818
 OPT| Convergence limit for maximum gradient                        0.0004500000
 OPT| Maximum gradient is converged                                           NO
 OPT|
 OPT| RMS gradient                                                  0.0001990796
 OPT| Convergence limit for RMS gradient                            0.0003000000
 OPT| RMS gradient is converged                                              YES
 OPT|
 OPT| Pressure deviation [bar]                                   -782.6554609239
 OPT| Pressure tolerance [bar]                                    100.0000000000
 OPT| Pressure is converged                                                   NO
 OPT| **************************************************************************
 OPT| Estimated peak process memory after this step [MiB]                    164

 --------------------------
 OPTIMIZATION STEP:      8
 --------------------------

 CELL| Volume [angstrom^3]:                                           162.674010
 CELL| Vector a [angstrom]:       5.960    -0.000    -0.000   |a| =     5.959704
 CELL| Vector b [angstrom]:      -1.991     5.617    -0.000   |b| =     5.959402
 CELL| Vector c [angstrom]:      -1.991    -2.817     4.860   |c| =     5.959355
 CELL| Angle (b,c), alpha [degree]:                                   109.505792
 CELL| Angle (a,c), beta  [degree]:                                   109.517801
 CELL| Angle (a,b), gamma [degree]:                                   109.517821
 CELL| Numerically orthorhombic:                                              NO
 CELL| Periodicity                                                           XYZ

 Extrapolation method: ASPC

 Number of electrons:                                                         56
 Number of occupied orbitals:                                                 28
 Number of molecular orbitals:                                                52

 Number of orbital functions:                                                 52
 Number of independent orbital functions:                                     52


 SCF WAVEFUNCTION OPTIMIZATION

  Step     Update method      Time    Convergence         Total energy    Change
  ------------------------------------------------------------------------------
     1 TBLite/Diag 0.40E+00    0.0     0.00076875       -30.7358482815 -3.07E+01
     2 TBLite/Diag 0.40E+00    0.0     0.00008053       -30.7358483223 -4.09E-08
     3 TBLite/Diag 0.40E+00    0.0     0.00003345       -30.7358483245 -2.16E-09
     4 TBLite/Diag 0.40E+00    0.0     0.00000906       -30.7358483251 -5.79E-10
     5 TBLite/Diag 0.40E+00    0.0     0.00000324       -30.7358483251 -3.74E-11
     6 TBLite/Diag 0.40E+00    0.0     0.00000051       -30.7358483251 -1.52E-12
     7 TBLite/Diag 0.40E+00    0.0     0.00000026       -30.7358483251 -4.55E-13
     8 TBLite/Diag 0.40E+00    0.0     0.00000003       -30.7358483251  1.42E-14
     9 TBLite/Diag 0.40E+00    0.0     0.00000001       -30.7358483251  3.55E-15
    10 TBLite/Diag 0.40E+00    0.0     1.5138E-09       -30.7358483251 -1.78E-14
    11 TBLite/Diag 0.40E+00    0.0     5.2148E-10       -30.7358483251  3.55E-15

  *** SCF run converged in    11 steps ***


  Core Hamiltonian energy:                                    -31.06491109515457
  Repulsive potential energy:                                   0.32230632817147
  Electrostatic energy:                                         0.04955099664059
  Self-consistent dispersion energy:                           -0.05519705675006
  Non-self consistent dispersion energy:                        0.01240250196889
  Correction for halogen bonding:                               0.00000000000000
  Electronic entropic energy:                                  -0.00000000000000
  Fermi energy:                                                -0.03443518437216

  Total energy:                                               -30.73584832512368
  Total energy (extrapolated to T->0):                        -30.73584832512368

 ENERGY| Total FORCE_EVAL ( QS ) energy [hartree]            -30.735848325123680

 OPT| **************************************************************************
 OPT| Step number                                                              8
 OPT| Optimization method                                                   BFGS
 OPT| Total energy [hartree]                                      -30.7358483251
 OPT| Internal pressure [bar]                                   -1005.1700334688
 OPT| Effective energy change [hartree]                            -0.0000051871
 OPT| Predicted energy change [hartree]                            -0.0000034975
 OPT| Scaling factor                                                0.0000000000
 OPT| Step size                                                     0.0016785907
 OPT| Trust radius                                                  0.4724315332
 OPT| Decrease in energy                                                     YES
 OPT| Used time [s]                                                        0.894
 OPT|
 OPT| Maximum step size                                             0.0016785907
 OPT| Convergence limit for maximum step size                       0.0030000000
 OPT| Maximum step size is converged                                         YES
 OPT|
 OPT| RMS step size                                                 0.0007481324
 OPT| Convergence limit for RMS step size                           0.0015000000
 OPT| RMS step size is converged                                             YES
 OPT|
 OPT| Maximum gradient                                              0.0005368433
 OPT| Convergence limit for maximum gradient                        0.0004500000
 OPT| Maximum gradient is converged                                           NO
 OPT|
 OPT| RMS gradient                                                  0.0001565048
 OPT| Convergence limit for RMS gradient                            0.0003000000
 OPT| RMS gradient is converged                                              YES
 OPT|
 OPT| Pressure deviation [bar]                                  -1005.1700334688
 OPT| Pressure tolerance [bar]                                    100.0000000000
 OPT| Pressure is converged                                                   NO
 OPT| **************************************************************************
 OPT| Estimated peak process memory after this step [MiB]                    164

 --------------------------
 OPTIMIZATION STEP:      9
 --------------------------

 CELL| Volume [angstrom^3]:                                           162.612194
 CELL| Vector a [angstrom]:       5.959    -0.000    -0.000   |a| =     5.959042
 CELL| Vector b [angstrom]:      -1.991     5.616    -0.000   |b| =     5.958764
 CELL| Vector c [angstrom]:      -1.991    -2.817     4.859   |c| =     5.958714
 CELL| Angle (b,c), alpha [degree]:                                   109.506727
 CELL| Angle (a,c), beta  [degree]:                                   109.519510
 CELL| Angle (a,b), gamma [degree]:                                   109.519546
 CELL| Numerically orthorhombic:                                              NO
 CELL| Periodicity                                                           XYZ

 Extrapolation method: ASPC

 Number of electrons:                                                         56
 Number of occupied orbitals:                                                 28
 Number of molecular orbitals:                                                52

 Number of orbital functions:                                                 52
 Number of independent orbital functions:                                     52


 SCF WAVEFUNCTION OPTIMIZATION

  Step     Update method      Time    Convergence         Total energy    Change
  ------------------------------------------------------------------------------
     1 TBLite/Diag 0.40E+00    0.0     0.00070994       -30.7358509714 -3.07E+01
     2 TBLite/Diag 0.40E+00    0.0     0.00006439       -30.7358509889 -1.74E-08
     3 TBLite/Diag 0.40E+00    0.0     0.00002504       -30.7358509902 -1.28E-09
     4 TBLite/Diag 0.40E+00    0.0     0.00000429       -30.7358509903 -1.82E-10
     5 TBLite/Diag 0.40E+00    0.0     0.00000245       -30.7358509904 -3.00E-11
     6 TBLite/Diag 0.40E+00    0.0     0.00000027       -30.7358509904 -5.15E-13
     7 TBLite/Diag 0.40E+00    0.0     0.00000013       -30.7358509904 -5.68E-14
     8 TBLite/Diag 0.40E+00    0.0     0.00000003       -30.7358509904 -2.49E-14
     9 TBLite/Diag 0.40E+00    0.0     0.00000001       -30.7358509904  3.55E-15
    10 TBLite/Diag 0.40E+00    0.0     2.7754E-09       -30.7358509904  3.55E-15
    11 TBLite/Diag 0.40E+00    0.0     4.2038E-10       -30.7358509904 -7.11E-15

  *** SCF run converged in    11 steps ***


  Core Hamiltonian energy:                                    -31.06486499522200
  Repulsive potential energy:                                   0.32223941743042
  Electrostatic energy:                                         0.04958252562302
  Self-consistent dispersion energy:                           -0.05522052462867
  Non-self consistent dispersion energy:                        0.01241258642486
  Correction for halogen bonding:                               0.00000000000000
  Electronic entropic energy:                                  -0.00000000000000
  Fermi energy:                                                -0.03462871275715

  Total energy:                                               -30.73585099037238
  Total energy (extrapolated to T->0):                        -30.73585099037238

 ENERGY| Total FORCE_EVAL ( QS ) energy [hartree]            -30.735850990372381

 OPT| **************************************************************************
 OPT| Step number                                                              9
 OPT| Optimization method                                                   BFGS
 OPT| Total energy [hartree]                                      -30.7358509904
 OPT| Internal pressure [bar]                                   -1069.8150017582
 OPT| Effective energy change [hartree]                            -0.0000026652
 OPT| Predicted energy change [hartree]                            -0.0000017281
 OPT| Scaling factor                                                0.0000000000
 OPT| Step size                                                     0.0013869870
 OPT| Trust radius                                                  0.4724315332
 OPT| Decrease in energy                                                     YES
 OPT| Used time [s]                                                        0.894
 OPT|
 OPT| Maximum step size                                             0.0013869870
 OPT| Convergence limit for maximum step size                       0.0030000000
 OPT| Maximum step size is converged                                         YES
 OPT|
 OPT| RMS step size                                                 0.0004837730
 OPT| Convergence limit for RMS step size                           0.0015000000
 OPT| RMS step size is converged                                             YES
 OPT|
 OPT| Maximum gradient                                              0.0005261564
 OPT| Convergence limit for maximum gradient                        0.0004500000
 OPT| Maximum gradient is converged                                           NO
 OPT|
 OPT| RMS gradient                                                  0.0001524519
 OPT| Convergence limit for RMS gradient                            0.0003000000
 OPT| RMS gradient is converged                                              YES
 OPT|
 OPT| Pressure deviation [bar]                                  -1069.8150017582
 OPT| Pressure tolerance [bar]                                    100.0000000000
 OPT| Pressure is converged                                                   NO
 OPT| **************************************************************************
 OPT| Estimated peak process memory after this step [MiB]                    164

 --------------------------
 OPTIMIZATION STEP:     10
 --------------------------

 CELL| Volume [angstrom^3]:                                           162.488935
 CELL| Vector a [angstrom]:       5.958    -0.000    -0.000   |a| =     5.957767
 CELL| Vector b [angstrom]:      -1.991     5.615    -0.000   |b| =     5.957523
 CELL| Vector c [angstrom]:      -1.991    -2.817     4.857   |c| =     5.957473
 CELL| Angle (b,c), alpha [degree]:                                   109.508770
 CELL| Angle (a,c), beta  [degree]:                                   109.523621
 CELL| Angle (a,b), gamma [degree]:                                   109.523683
 CELL| Numerically orthorhombic:                                              NO
 CELL| Periodicity                                                           XYZ

 Extrapolation method: ASPC

 Number of electrons:                                                         56
 Number of occupied orbitals:                                                 28
 Number of molecular orbitals:                                                52

 Number of orbital functions:                                                 52
 Number of independent orbital functions:                                     52


 SCF WAVEFUNCTION OPTIMIZATION

  Step     Update method      Time    Convergence         Total energy    Change
  ------------------------------------------------------------------------------
     1 TBLite/Diag 0.40E+00    0.0     0.00096284       -30.7358548191 -3.07E+01
     2 TBLite/Diag 0.40E+00    0.0     0.00008289       -30.7358548461 -2.70E-08
     3 TBLite/Diag 0.40E+00    0.0     0.00003761       -30.7358548484 -2.38E-09
     4 TBLite/Diag 0.40E+00    0.0     0.00000812       -30.7358548487 -2.98E-10
     5 TBLite/Diag 0.40E+00    0.0     0.00000321       -30.7358548488 -3.50E-11
     6 TBLite/Diag 0.40E+00    0.0     0.00000070       -30.7358548488 -2.60E-12
     7 TBLite/Diag 0.40E+00    0.0     0.00000025       -30.7358548488 -4.73E-13
     8 TBLite/Diag 0.40E+00    0.0     0.00000006       -30.7358548488 -1.07E-14
     9 TBLite/Diag 0.40E+00    0.0     0.00000003       -30.7358548488  7.11E-15
    10 TBLite/Diag 0.40E+00    0.0     4.3764E-09       -30.7358548488  0.00E+00
    11 TBLite/Diag 0.40E+00    0.0     5.6326E-10       -30.7358548488  1.42E-14

  *** SCF run converged in    11 steps ***


  Core Hamiltonian energy:                                    -31.06488433994514
  Repulsive potential energy:                                   0.32225933776983
  Electrostatic energy:                                         0.04960342543330
  Self-consistent dispersion energy:                           -0.05526594553616
  Non-self consistent dispersion energy:                        0.01243267349858
  Correction for halogen bonding:                               0.00000000000000
  Electronic entropic energy:                                  -0.00000000000000
  Fermi energy:                                                -0.03477186928036

  Total energy:                                               -30.73585484877958
  Total energy (extrapolated to T->0):                        -30.73585484877958

 ENERGY| Total FORCE_EVAL ( QS ) energy [hartree]            -30.735854848779578

 OPT| **************************************************************************
 OPT| Step number                                                             10
 OPT| Optimization method                                                   BFGS
 OPT| Total energy [hartree]                                      -30.7358548488
 OPT| Internal pressure [bar]                                   -1036.6555778342
 OPT| Effective energy change [hartree]                            -0.0000038584
 OPT| Predicted energy change [hartree]                            -0.0000026370
 OPT| Scaling factor                                                0.0000000000
 OPT| Step size                                                     0.0028498335
 OPT| Trust radius                                                  0.4724315332
 OPT| Decrease in energy                                                     YES
 OPT| Used time [s]                                                        0.896
 OPT|
 OPT| Maximum step size                                             0.0028498335
 OPT| Convergence limit for maximum step size                       0.0030000000
 OPT| Maximum step size is converged                                         YES
 OPT|
 OPT| RMS step size                                                 0.0008125023
 OPT| Convergence limit for RMS step size                           0.0015000000
 OPT| RMS step size is converged                                             YES
 OPT|
 OPT| Maximum gradient                                              0.0004957327
 OPT| Convergence limit for maximum gradient                        0.0004500000
 OPT| Maximum gradient is converged                                           NO
 OPT|
 OPT| RMS gradient                                                  0.0001777540
 OPT| Convergence limit for RMS gradient                            0.0003000000
 OPT| RMS gradient is converged                                              YES
 OPT|
 OPT| Pressure deviation [bar]                                  -1036.6555778342
 OPT| Pressure tolerance [bar]                                    100.0000000000
 OPT| Pressure is converged                                                   NO
 OPT| **************************************************************************
 OPT| Estimated peak process memory after this step [MiB]                    164

 --------------------------
 OPTIMIZATION STEP:     11
 --------------------------

 CELL| Volume [angstrom^3]:                                           162.306390
 CELL| Vector a [angstrom]:       5.956    -0.000    -0.000   |a| =     5.955872
 CELL| Vector b [angstrom]:      -1.991     5.613    -0.000   |b| =     5.955658
 CELL| Vector c [angstrom]:      -1.991    -2.817     4.855   |c| =     5.955611
 CELL| Angle (b,c), alpha [degree]:                                   109.511706
 CELL| Angle (a,c), beta  [degree]:                                   109.529386
 CELL| Angle (a,b), gamma [degree]:                                   109.529485
 CELL| Numerically orthorhombic:                                              NO
 CELL| Periodicity                                                           XYZ

 Extrapolation method: ASPC

 Number of electrons:                                                         56
 Number of occupied orbitals:                                                 28
 Number of molecular orbitals:                                                52

 Number of orbital functions:                                                 52
 Number of independent orbital functions:                                     52


 SCF WAVEFUNCTION OPTIMIZATION

  Step     Update method      Time    Convergence         Total energy    Change
  ------------------------------------------------------------------------------
     1 TBLite/Diag 0.40E+00    0.0     0.00077804       -30.7358596481 -3.07E+01
     2 TBLite/Diag 0.40E+00    0.0     0.00007190       -30.7358596867 -3.86E-08
     3 TBLite/Diag 0.40E+00    0.0     0.00002958       -30.7358596891 -2.33E-09
     4 TBLite/Diag 0.40E+00    0.0     0.00000733       -30.7358596894 -3.25E-10
     5 TBLite/Diag 0.40E+00    0.0     0.00000374       -30.7358596894 -4.56E-11
     6 TBLite/Diag 0.40E+00    0.0     0.00000090       -30.7358596894 -3.40E-12
     7 TBLite/Diag 0.40E+00    0.0     0.00000035       -30.7358596894 -6.57E-13
     8 TBLite/Diag 0.40E+00    0.0     0.00000009       -30.7358596894 -2.84E-14
     9 TBLite/Diag 0.40E+00    0.0     0.00000006       -30.7358596894 -7.11E-15
    10 TBLite/Diag 0.40E+00    0.0     5.2700E-09       -30.7358596894  7.11E-15
    11 TBLite/Diag 0.40E+00    0.0     5.9307E-10       -30.7358596894 -2.49E-14

  *** SCF run converged in    11 steps ***


  Core Hamiltonian energy:                                    -31.06492733219540
  Repulsive potential energy:                                   0.32234684205734
  Electrostatic energy:                                         0.04959089230508
  Self-consistent dispersion energy:                           -0.05533214037786
  Non-self consistent dispersion energy:                        0.01246204876234
  Correction for halogen bonding:                               0.00000000000000
  Electronic entropic energy:                                  -0.00000000000000
  Fermi energy:                                                -0.03484710543500

  Total energy:                                               -30.73585968944849
  Total energy (extrapolated to T->0):                        -30.73585968944849

 ENERGY| Total FORCE_EVAL ( QS ) energy [hartree]            -30.735859689448489

 OPT| **************************************************************************
 OPT| Step number                                                             11
 OPT| Optimization method                                                   BFGS
 OPT| Total energy [hartree]                                      -30.7358596894
 OPT| Internal pressure [bar]                                    -885.8282255783
 OPT| Effective energy change [hartree]                            -0.0000048407
 OPT| Predicted energy change [hartree]                            -0.0000030779
 OPT| Scaling factor                                                0.0000000000
 OPT| Step size                                                     0.0041937448
 OPT| Trust radius                                                  0.4724315332
 OPT| Decrease in energy                                                     YES
 OPT| Used time [s]                                                        0.898
 OPT|
 OPT| Maximum step size                                             0.0041937448
 OPT| Convergence limit for maximum step size                       0.0030000000
 OPT| Maximum step size is converged                                          NO
 OPT|
 OPT| RMS step size                                                 0.0011071227
 OPT| Convergence limit for RMS step size                           0.0015000000
 OPT| RMS step size is converged                                             YES
 OPT|
 OPT| Maximum gradient                                              0.0007070578
 OPT| Convergence limit for maximum gradient                        0.0004500000
 OPT| Maximum gradient is converged                                           NO
 OPT|
 OPT| RMS gradient                                                  0.0002056252
 OPT| Convergence limit for RMS gradient                            0.0003000000
 OPT| RMS gradient is converged                                              YES
 OPT|
 OPT| Pressure deviation [bar]                                   -885.8282255783
 OPT| Pressure tolerance [bar]                                    100.0000000000
 OPT| Pressure is converged                                                   NO
 OPT| **************************************************************************
 OPT| Estimated peak process memory after this step [MiB]                    164

 --------------------------
 OPTIMIZATION STEP:     12
 --------------------------

 CELL| Volume [angstrom^3]:                                           162.050835
 CELL| Vector a [angstrom]:       5.953    -0.000    -0.000   |a| =     5.953169
 CELL| Vector b [angstrom]:      -1.991     5.610    -0.000   |b| =     5.952967
 CELL| Vector c [angstrom]:      -1.991    -2.816     4.852   |c| =     5.952924
 CELL| Angle (b,c), alpha [degree]:                                   109.515480
 CELL| Angle (a,c), beta  [degree]:                                   109.536266
 CELL| Angle (a,b), gamma [degree]:                                   109.536410
 CELL| Numerically orthorhombic:                                              NO
 CELL| Periodicity                                                           XYZ

 Extrapolation method: ASPC

 Number of electrons:                                                         56
 Number of occupied orbitals:                                                 28
 Number of molecular orbitals:                                                52

 Number of orbital functions:                                                 52
 Number of independent orbital functions:                                     52


 SCF WAVEFUNCTION OPTIMIZATION

  Step     Update method      Time    Convergence         Total energy    Change
  ------------------------------------------------------------------------------
     1 TBLite/Diag 0.40E+00    0.0     0.00093994       -30.7358651172 -3.07E+01
     2 TBLite/Diag 0.40E+00    0.0     0.00011486       -30.7358651922 -7.50E-08
     3 TBLite/Diag 0.40E+00    0.0     0.00002568       -30.7358651948 -2.61E-09
     4 TBLite/Diag 0.40E+00    0.0     0.00001326       -30.7358651954 -5.66E-10
     5 TBLite/Diag 0.40E+00    0.0     0.00000274       -30.7358651954 -2.48E-11
     6 TBLite/Diag 0.40E+00    0.0     0.00000102       -30.7358651954 -3.92E-12
     7 TBLite/Diag 0.40E+00    0.0     0.00000037       -30.7358651954 -7.39E-13
     8 TBLite/Diag 0.40E+00    0.0     0.00000017       -30.7358651954 -7.11E-14
     9 TBLite/Diag 0.40E+00    0.0     0.00000006       -30.7358651954  7.11E-15
[...]
 OPT| **************************************************************************
 OPT| Estimated peak process memory after this step [MiB]                    164

 --------------------------
 OPTIMIZATION STEP:     18
 --------------------------

 CELL| Volume [angstrom^3]:                                           160.109427
 CELL| Vector a [angstrom]:       5.931    -0.000    -0.000   |a| =     5.930654
 CELL| Vector b [angstrom]:      -1.984     5.588    -0.000   |b| =     5.930113
 CELL| Vector c [angstrom]:      -1.984    -2.809     4.831   |c| =     5.930100
 CELL| Angle (b,c), alpha [degree]:                                   109.533260
 CELL| Angle (a,c), beta  [degree]:                                   109.550431
 CELL| Angle (a,b), gamma [degree]:                                   109.550706
 CELL| Numerically orthorhombic:                                              NO
 CELL| Periodicity                                                           XYZ

 Extrapolation method: ASPC

 Number of electrons:                                                         56
 Number of occupied orbitals:                                                 28
 Number of molecular orbitals:                                                52

 Number of orbital functions:                                                 52
 Number of independent orbital functions:                                     52


 SCF WAVEFUNCTION OPTIMIZATION

  Step     Update method      Time    Convergence         Total energy    Change
  ------------------------------------------------------------------------------
     1 TBLite/Diag 0.40E+00    0.0     0.00076100       -30.7359125782 -3.07E+01
     2 TBLite/Diag 0.40E+00    0.0     0.00008907       -30.7359126129 -3.47E-08
     3 TBLite/Diag 0.40E+00    0.0     0.00002388       -30.7359126148 -1.83E-09
     4 TBLite/Diag 0.40E+00    0.0     0.00000726       -30.7359126150 -2.26E-10
     5 TBLite/Diag 0.40E+00    0.0     0.00000329       -30.7359126150 -3.58E-11
     6 TBLite/Diag 0.40E+00    0.0     0.00000039       -30.7359126150 -1.25E-12
     7 TBLite/Diag 0.40E+00    0.0     0.00000024       -30.7359126150 -1.85E-13
     8 TBLite/Diag 0.40E+00    0.0     0.00000005       -30.7359126150 -1.07E-14
     9 TBLite/Diag 0.40E+00    0.0     0.00000001       -30.7359126150 -3.55E-15
    10 TBLite/Diag 0.40E+00    0.0     3.0478E-09       -30.7359126150  1.78E-14
    11 TBLite/Diag 0.40E+00    0.0     3.0201E-10       -30.7359126150 -1.42E-14

  *** SCF run converged in    11 steps ***


  Core Hamiltonian energy:                                    -31.06403477979377
  Repulsive potential energy:                                   0.32225285235614
  Electrostatic energy:                                         0.04918377335102
  Self-consistent dispersion energy:                           -0.05613918300195
  Non-self consistent dispersion energy:                        0.01282472205680
  Correction for halogen bonding:                               0.00000000000000
  Electronic entropic energy:                                  -0.00000000000000
  Fermi energy:                                                -0.03595489702089

  Total energy:                                               -30.73591261503175
  Total energy (extrapolated to T->0):                        -30.73591261503175

 ENERGY| Total FORCE_EVAL ( QS ) energy [hartree]            -30.735912615031754

 OPT| **************************************************************************
 OPT| Step number                                                             18
 OPT| Optimization method                                                   BFGS
 OPT| Total energy [hartree]                                      -30.7359126150
 OPT| Internal pressure [bar]                                     -70.4987233213
 OPT| Effective energy change [hartree]                            -0.0000012652
 OPT| Predicted energy change [hartree]                            -0.0000010246
 OPT| Scaling factor                                                0.0000000000
 OPT| Step size                                                     0.0009755279
 OPT| Trust radius                                                  0.4724315332
 OPT| Decrease in energy                                                     YES
 OPT| Used time [s]                                                        0.909
 OPT|
 OPT| Maximum step size                                             0.0009755279
 OPT| Convergence limit for maximum step size                       0.0030000000
 OPT| Maximum step size is converged                                         YES
 OPT|
 OPT| RMS step size                                                 0.0002947522
 OPT| Convergence limit for RMS step size                           0.0015000000
 OPT| RMS step size is converged                                             YES
 OPT|
 OPT| Maximum gradient                                              0.0001385836
 OPT| Convergence limit for maximum gradient                        0.0004500000
 OPT| Maximum gradient is converged                                          YES
 OPT|
 OPT| RMS gradient                                                  0.0000565064
 OPT| Convergence limit for RMS gradient                            0.0003000000
 OPT| RMS gradient is converged                                              YES
 OPT|
 OPT| Pressure deviation [bar]                                    -70.4987233213
 OPT| Pressure tolerance [bar]                                    100.0000000000
 OPT| Pressure is converged                                                  YES
 OPT| **************************************************************************
 OPT| Estimated peak process memory after this step [MiB]                    164

 *******************************************************************************
 ***                    GEOMETRY OPTIMIZATION COMPLETED                      ***
 *******************************************************************************

 write_final_structure: Optimization converged, writing XYZ file gladly:
  hexamine_GFN2_gamma_cell_opt-FINAL-1_18.xyz

 write_final_structure: Optimization converged, writing CIF file gladly:
  hexamine_GFN2_gamma_cell_opt-FINAL-1_18.cif

 write_final_structure: Done!

                    Reevaluating energy at the minimum

 CELL| Volume [angstrom^3]:                                           160.109427
 CELL| Vector a [angstrom]:       5.931    -0.000    -0.000   |a| =     5.930654
 CELL| Vector b [angstrom]:      -1.984     5.588    -0.000   |b| =     5.930113
 CELL| Vector c [angstrom]:      -1.984    -2.809     4.831   |c| =     5.930100
 CELL| Angle (b,c), alpha [degree]:                                   109.533260
 CELL| Angle (a,c), beta  [degree]:                                   109.550431
 CELL| Angle (a,b), gamma [degree]:                                   109.550706
 CELL| Numerically orthorhombic:                                              NO
 CELL| Periodicity                                                           XYZ

 Extrapolation method: ASPC

 Number of electrons:                                                         56
 Number of occupied orbitals:                                                 28
 Number of molecular orbitals:                                                52

 Number of orbital functions:                                                 52
 Number of independent orbital functions:                                     52


 SCF WAVEFUNCTION OPTIMIZATION

  Step     Update method      Time    Convergence         Total energy    Change
  ------------------------------------------------------------------------------
     1 TBLite/Diag 0.40E+00    0.0     2.1428E-10       -30.7359126150 -3.07E+01

  *** SCF run converged in     1 steps ***


  Core Hamiltonian energy:                                    -31.06403477979526
  Repulsive potential energy:                                   0.32225285235614
  Electrostatic energy:                                         0.04918377335274
  Self-consistent dispersion energy:                           -0.05613918300216
  Non-self consistent dispersion energy:                        0.01282472205680
  Correction for halogen bonding:                               0.00000000000000
  Electronic entropic energy:                                  -0.00000000000000
  Fermi energy:                                                -0.03595489701502

  Total energy:                                               -30.73591261503174
  Total energy (extrapolated to T->0):                        -30.73591261503174

 ENERGY| Total FORCE_EVAL ( QS ) energy [hartree]            -30.735912615031737

 -------------------------------------------------------------------------------
 -                                                                             -
 -                                DBCSR STATISTICS                             -
 -                                                                             -
 -------------------------------------------------------------------------------
 COUNTER                                    TOTAL       BLAS       SMM       ACC
 flops     1 x    20 x     1               489600       0.0%    100.0%      0.0%     
 flops     1 x    32 x     1               783360       0.0%    100.0%      0.0%     
 flops     4 x    20 x     1              1632000       0.0%    100.0%      0.0%     
 flops     1 x    20 x     4              1632000       0.0%    100.0%      0.0%     
 flops     1 x     1 x    52              2117232       0.0%    100.0%      0.0%     
 flops     4 x    32 x     1              2611200       0.0%    100.0%      0.0%     
 flops     1 x    32 x     4              2611200       0.0%    100.0%      0.0%     
 flops     4 x    20 x     4              5440000       0.0%    100.0%      0.0%     
 flops     4 x     1 x    52              6514560       0.0%    100.0%      0.0%     
 flops     1 x     4 x    52              6514560       0.0%    100.0%      0.0%     
 flops     4 x    32 x     4              8704000       0.0%    100.0%      0.0%     
 flops     4 x     4 x    52             23886720       0.0%    100.0%      0.0%     
 flops inhomo. stacks                           0       0.0%      0.0%      0.0%
 flops total                        62.936432E+06       0.0%    100.0%      0.0%
 flops max/rank                     62.936432E+06       0.0%    100.0%      0.0%
 matmuls inhomo. stacks                         0       0.0%      0.0%      0.0%
 matmuls total                             148313       0.0%    100.0%      0.0%
 number of processed stacks                  1724       0.0%    100.0%      0.0%
 average stack size                                     0.0      86.0       0.0
 marketing flops                    63.425024E+06
 -------------------------------------------------------------------------------
 # multiplications                            346
 max memory usage/rank              13.671199E+09
 # max total images/rank                        1
 # max 3D layers                                1
 # MPI messages exchanged                       0
 -------------------------------------------------------------------------------
 -                                                                             -
 -                      DBCSR MESSAGE PASSING PERFORMANCE                      -
 -                                                                             -
 -------------------------------------------------------------------------------
 ROUTINE             CALLS      AVE VOLUME [Bytes]
 MP_Bcast               13                     12.
 MP_Allreduce         1603                      8.
 MP_Alltoall         11313                  15673.
 MP_ISend             1384                   1961.
 MP_IRecv             1384                   1961.
 -------------------------------------------------------------------------------

 -------------------------------------------------------------------------------
 -                                                                             -
 -                          OFFLOAD MEMPOOL STATISTICS                         -
 -                                                                             -
 -------------------------------------------------------------------------------
 Memory consumption                Number of allocations  Used [MiB]  Size [MiB]
 Device                                                1           0           0
 Host                                                  1           0           0
 -------------------------------------------------------------------------------

 MEMORY| Estimated peak process memory [MiB]                                 164

 -------------------------------------------------------------------------------
 -                                                                             -
 -                         MESSAGE PASSING PERFORMANCE                         -
 -                                                                             -
 -------------------------------------------------------------------------------

 ROUTINE             CALLS      AVE VOLUME [Bytes]
 MP_Group               19
 MP_Bcast              520                    216.
 MP_Allreduce         8237                    165.
 MP_Sync               279
 MP_comm_split         260
 -------------------------------------------------------------------------------


 -------------------------------------------------------------------------------
 -                                                                             -
 -                           R E F E R E N C E S                               -
 -                                                                             -
 -------------------------------------------------------------------------------
 
 CP2K version 2026.1 (Development Version), the CP2K developers group (2026).
 CP2K is freely available from https://www.cp2k.org/ .
 
 M. Iannuzzi, J. Wilhelm, F. Stein, A. Bussy, H. Elgabarty, D. Golze, A. Hehn, 
 M. Graml, S. Marek, B. Sertcan Gökmen, C. Schran, H. Forbert, R. Z. 
 Khaliullin, A. Kozhevnikov, M. Taillefumier, R. Meli, V. V. Rybkin, M. Brehm, 
 R. Schade, O. Schütt, J. V. Pototschnig, H. Mirhosseini, A. Knüpfer, D. Marx, 
 M. Krack, J. Hutter, T. D. Kühne.
 J. Phys. Chem. B 130, 1237-1310 (2026).
 The CP2K Program Package Made Simple.
 https://doi.org/10.1021/acs.jpcb.5c05851

 A. Katbashev, M. Stahn, T. Rose, V. Alizadeh, M. Friede, C. Plett, P. 
 Steinbach, S. Ehlert.
 J. Phys. Chem. A 129, 2667-2682 (2025).
 Overview on Building Blocks and Applications of Efficient and Robust Extended 
 Tight Binding.
 https://doi.org/10.1021/acs.jpca.4c08263

 T. D. Kühne, M. Iannuzzi, M. Del Ben, V. V. Rybkin, P. Seewald, F. Stein, T. 
 Laino, R. Z. Khaliullin, O. Schütt, F. Schiffmann, D. Golze, J. Wilhelm, S. 
 Chulkov, M. H. Bani-Hashemian, V. Weber, U. Borstnik, M. Taillefumier, A. S. 
 Jakobovits, A. Lazzaro, H. Pabst, T. Müller, R. Schade, M. Guidon, S. 
 Andermatt, N. Holmberg, G. K. Schenter, A. Hehn, A. Bussy, F. Belleflamme, G. 
 Tabacchi, A. Glöß, M. Lass, I. Bethune, C. J. Mundy, C. Plessl, M. Watkins, 
 J. VandeVondele, M. Krack, J. Hutter.
 J. Chem. Phys. 152, 194103 (2020).
 CP2K: An electronic structure and molecular dynamics software package - 
 Quickstep: Efficient and accurate electronic structure calculations.
 https://doi.org/10.1063/5.0007045

 P. Pracht, E. Caldeweyher, S. Ehlert, S. Grimme.
 ChemRxiv, (2019).
 A Robust Non-Self-Consistent Tight-Binding Quantum Chemistry Method for large 
 Molecules.
 https://doi.org/10.26434/chemrxiv.8326202.v1

 S. Grimme, C. Bannwarth, P. Shushkov.
 J. Chem. Theory Comput. 13, 1989 (2017).
 A Robust and Accurate Tight-Binding Quantum Chemical Method for Structures, 
 Vibrational Frequencies, and Noncovalent Interactions of Large Molecular 
 Systems Parametrized for All spd-Block Elements (Z = 1-86).
 https://doi.org/10.1021/acs.jctc.7b00118

 O. Schuett, P. Messmer, J. Hutter, J. VandeVondele.
 Electronic Structure Calculations on Graphics Processing Units, 173-190 (2016).
 GPU-Accelerated Sparse Matrix-Matrix Multiplication for Linear Scaling Density 
 Functional Theory.
 https://doi.org/10.1002/9781118670712.ch8

 A. Heinecke, G. Henry, M. Hutchinson, H. Pabst.
 Proceedings of Intl. Supercomputing Conference, 981-991 (2016).
 LIBXSMM: Accelerating Small Matrix Multiplications by Runtime Code Generation.
 https://doi.org/10.1109/SC.2016.83

 U. Borstnik, J. VandeVondele, V. Weber, J. Hutter.
 Parallel Comput. 40, 47-58 (2014).
 Sparse matrix multiplication: The distributed block-compressed sparse row 
 library.
 https://doi.org/10.1016/j.parco.2014.03.012

 T. D. Kühne, M. Krack, F. R. Mohamed, M. Parrinello.
 Phys. Rev. Lett. 98, 066401 (2007).
 Efficient and accurate Car-Parrinello-like approach to Born-Oppenheimer 
 molecular dynamics.
 https://doi.org/10.1103/PhysRevLett.98.066401

 M. Frigo, S. G. Johnson.
 Proc. IEEE 93, 216-231 (2005).
 The design and implementation of FFTW3.
 https://doi.org/10.1109/JPROC.2004.840301

 J. Kolafa.
 J. Comput. Chem. 25, 335-342 (2004).
 Time-reversible always stable predictor-corrector method for molecular dynamics 
 of polarizable molecules.
 https://doi.org/10.1002/jcc.10385

 N. D. Mermin.
 Phys. Rev. 137, A1441-A1443 (1965).
 Thermal Properties of the Inhomogeneous Electron Gas.
 https://doi.org/10.1103/PhysRev.137.A1441


 -------------------------------------------------------------------------------
 -                                                                             -
 -                                T I M I N G                                  -
 -                                                                             -
 -------------------------------------------------------------------------------
 SUBROUTINE                       CALLS  ASD         SELF TIME        TOTAL TIME
                                MAXIMUM       AVERAGE  MAXIMUM  AVERAGE  MAXIMUM
 CP2K                                 1  1.0    0.002    0.002   17.328   17.328
 cp_cell_opt                          1  2.0    0.000    0.000   17.324   17.324
 geoopt_bfgs                          1  3.0    0.001    0.001   17.324   17.324
 cp_eval_at                          20  4.0    0.001    0.001   17.309   17.309
 qs_forces                           19  5.0    0.001    0.001   17.088   17.088
 build_tblite_matrices               39  7.0   15.385   15.385   15.677   15.677
 qs_energies                         20  6.0    0.000    0.000    4.695    4.695
 qs_energies_init_hamiltonians       20  7.0    0.000    0.000    4.268    4.268
 rebuild_ks_matrix                  242  9.8    0.000    0.000    1.279    1.279
 build_tblite_ks_matrix             242 10.8    1.275    1.275    1.278    1.278
 qs_ks_update_qs_env_forces          19  6.0    0.000    0.000    1.184    1.184
 scf_env_do_scf                      20  7.0    0.000    0.000    0.371    0.371
 scf_env_do_scf_inner_loop          223  8.0    0.059    0.059    0.370    0.370
 -------------------------------------------------------------------------------

 The number of warnings for this run is : 1
 
 -------------------------------------------------------------------------------
  **** **** ******  **  PROGRAM ENDED AT                 2026-05-23 23:11:06.944
 ***** ** ***  *** **   PROGRAM RAN ON                                spark-c86c
 **    ****   ******    PROGRAM RAN BY                                  kuehne88
 ***** **    ** ** **   PROGRAM PROCESS ID                               2279118
  **** **  *******  **  PROGRAM STOPPED IN /home/kuehne88/periodic-gfn2-benchmar
                                           ks/X23b/runs/cellopt_gamma/GFN2/hexam
                                           ine_GFN2_gamma_cellopt
