 DBCSR| CPU Multiplication driver                                           XSMM (U)
 DBCSR| Multrec recursion limit                                              512 (U)
 DBCSR| Multiplication stack size                                           1000 (D)
 DBCSR| Maximum elements for images                                    UNLIMITED (U)
 DBCSR| Multiplicative factor virtual images                                   1 (U)
 DBCSR| Use multiplication densification                                       T (D)
 DBCSR| Multiplication size stacks                                             3 (U)
 DBCSR| Use memory pool for CPU allocation                                     F (U)
 DBCSR| Number of 3D layers                                               SINGLE (U)
 DBCSR| Use MPI memory allocation                                              F (U)
 DBCSR| Use RMA algorithm                                                      F (U)
 DBCSR| Use Communication thread                                               T (U)
 DBCSR| Communication thread load                                             87 (D)
 DBCSR| MPI: My process id                                                     0
 DBCSR| MPI: Number of processes                                               1
 DBCSR| OMP: Current number of threads                                         1
 DBCSR| OMP: Max number of threads                                             1
 DBCSR| Split modifier for TAS multiplication algorithm                  1.0E+00 (U)


  **** **** ******  **  PROGRAM STARTED AT               2026-05-23 22:46:51.987
 ***** ** ***  *** **   PROGRAM STARTED ON                            spark-c86c
 **    ****   ******    PROGRAM STARTED BY                              kuehne88
 ***** **    ** ** **   PROGRAM PROCESS ID                               2265591
  **** **  *******  **  PROGRAM STARTED IN /home/kuehne88/periodic-gfn2-benchmar
                                           ks/X23b/runs/cellopt_gamma/GFN1/imida
                                           zole_GFN1_gamma_cellopt

 CP2K| version string:                 CP2K version 2026.1 (Development Version)
 CP2K| source code revision number:                                   0622d442e4
 CP2K| cp2kflags: omp fftw3 libxc parallel scalapack mpi_f08 xsmm spglib libdftd
 CP2K|            4 dftd4_v3 mctc-lib tblite
 CP2K| is freely available from                            https://www.cp2k.org/
 CP2K| Program compiled at                                   2026-05-23 22:05:08
 CP2K| Program compiled on                                            spark-c86c
 CP2K| Program compiled for                                              aarch64
 CP2K| Data directory path    /home/kuehne88/cp2k-master-tblite-20260523/install
 CP2K| Input file name                          imidazole_GFN1_gamma_cellopt.inp

 GLOBAL| Force Environment number                                              1
 GLOBAL| Basis set file name                                           BASIS_SET
 GLOBAL| Potential file name                                           POTENTIAL
 GLOBAL| MM Potential file name                                     MM_POTENTIAL
 GLOBAL| Coordinate file name                                      __STD_INPUT__
 GLOBAL| Method name                                                        CP2K
 GLOBAL| Project name                              imidazole_GFN1_gamma_cell_opt
 GLOBAL| Run type                                                       CELL_OPT
 GLOBAL| FFT library                                                       FFTW3
 GLOBAL| Diagonalization library                                       ScaLAPACK
 GLOBAL| Cholesky decomposition library                                ScaLAPACK
 GLOBAL| DGEMM library                                                      BLAS
 GLOBAL| Direct generalized diagonalization requested                          F
 GLOBAL| Orthonormality check for eigenvectors                          DISABLED
 GLOBAL| Matrix multiplication library                                 ScaLAPACK
 GLOBAL| All-to-all communication in single precision                          F
 GLOBAL| FFTs using library dependent lengths                                  F
 GLOBAL| Grid backend                                                       AUTO
 GLOBAL| Global print level                                                  LOW
 GLOBAL| MPI I/O enabled                                                       T
 GLOBAL| Total number of message passing processes                             1
 GLOBAL| Number of distributed systems (nodes)                                 1
 GLOBAL| Number of threads for this process                                    1
 GLOBAL| This output is from process                                           0
 GLOBAL| OpenMP stack size per thread (OMP_STACKSIZE)                    default
 GLOBAL| CPU model name                                                  UNKNOWN
 GLOBAL| CPUID                                                              2200
 GLOBAL| Compiled for CPUID                                                 2000

 *** HINT in environment.F:970 :: The compiler target flags (arm_arch64)   ***
 *** used to build this binary cannot exploit all extensions of this CPU   ***
 *** model (arm_sve256). Consider compiler target flags as part of FCFLAGS ***
 *** and CFLAGS (ARCH file).                                               ***


 MEMORY| system memory details [Kb]
 MEMORY|                        rank 0           min           max       average
 MEMORY| MemTotal            125508532     125508532     125508532     125508532
 MEMORY| MemFree             101801360     101801360     101801360     101801360
 MEMORY| Buffers                867436        867436        867436        867436
 MEMORY| Cached               13958208      13958208      13958208      13958208
 MEMORY| Slab                  1589884       1589884       1589884       1589884
 MEMORY| SReclaimable           911628        911628        911628        911628
 MEMORY| MemLikelyFree       117538632     117538632     117538632     117538632


 GENERATE|  Preliminary Number of Bonds generated:                             0
 GENERATE|  Achieved consistency in connectivity generation.


                  #####   #####        #     #   #     #       #          
                 #     # #     #      #    ##### #     #   # #####  ####  
                 #     # #           #       #   ###   #       #   #    # 
                 #     #  #####     #        #   #  #  #   #   #   ###### 
                 #   # #       #   #         #   #   # #   #   #   #      
                 #    #  #     #  #          #   #  #  # # #   #    #   # 
                  #### #  #####  #           #   ###   ##  #   #     ###  

                                   GFN1-xTB  
                                 Version 0.0                       
                            Johann V. Pototschnig                  



 TOTAL NUMBERS AND MAXIMUM NUMBERS

  Total number of            - Atomic kinds:                                   3
                             - Atoms:                                         36
                             - Shell sets:                                    72
                             - Shells:                                        72
                             - Primitive Cartesian functions:                416
                             - Cartesian basis functions:                    112
                             - Spherical basis functions:                    112

  Maximum angular momentum of the orbital basis functions:                     1


 SCF PARAMETERS         Density guess:                                     MOPAC
                        --------------------------------------------------------
                        max_scf:                                             300
                        max_scf_history:                                       0
                        max_diis:                                              4
                        --------------------------------------------------------
                        eps_scf:                                        1.00E-09
                        eps_scf_history:                                0.00E+00
                        eps_diis:                                       1.00E-01
                        eps_eigval:                                     1.00E-05
                        --------------------------------------------------------
                        level_shift [a.u.]:                             0.000000
                        added MOs                                        60    0
                        --------------------------------------------------------
                        Mixing method:                           DIRECT_P_MIXING
                        --------------------------------------------------------
                        Smear method:                                FERMI_DIRAC
                        Electronic temperature [K]:                        300.0
                        Electronic temperature [a.u.]:                  9.50E-04
                        Accuracy threshold:                             1.00E-06
                        --------------------------------------------------------
                        No outer SCF

 CELL_OPT| Pressure tolerance [bar]:                                       100.0
 CELL_OPT| Keep volume of cell:                                               NO
 CELL_OPT| Keep angles between the cell vectors:                              NO
 CELL_OPT| Keep cell symmetry:                                                NO
 CELL_OPT| Constraint:                                                      NONE

 BFGS| Use rational function optimization for step estimation:                NO
 BFGS| Use model Hessian for initial guess:                                   NO
 BFGS| Restart Hessian:                                                       NO
 BFGS| Trust radius:                                                       0.472

 *******************************************************************************
 ***                     STARTING   CELL   OPTIMIZATION                      ***
 ***                                   BFGS                                  ***
 *******************************************************************************

 CELL| Volume [angstrom^3]:                                           348.758564
 CELL| Vector a [angstrom]:       7.582     0.000     0.000   |a| =     7.582000
 CELL| Vector b [angstrom]:       0.000     5.371     0.000   |b| =     5.371000
 CELL| Vector c [angstrom]:      -4.743     0.000     8.564   |c| =     9.790000
 CELL| Angle (b,c), alpha [degree]:                                    90.000000
 CELL| Angle (a,c), beta  [degree]:                                   118.980000
 CELL| Angle (a,b), gamma [degree]:                                    90.000000
 CELL| Numerically orthorhombic:                                              NO
 CELL| Periodicity                                                           XYZ

 Extrapolation method: initial_guess

 Number of electrons:                                                        104
 Number of occupied orbitals:                                                 52
 Number of molecular orbitals:                                               112

 Number of orbital functions:                                                112
 Number of independent orbital functions:                                    112


 SCF WAVEFUNCTION OPTIMIZATION

  Step     Update method      Time    Convergence         Total energy    Change
  ------------------------------------------------------------------------------
     1 TBLite/Diag 0.40E+00    0.0     1.44753675       -59.2357630392 -5.92E+01
     2 TBLite/Diag 0.40E+00    0.0     0.22212035       -59.5507296836 -3.15E-01
     3 TBLite/Diag 0.40E+00    0.0     0.05251497       -59.5523634271 -1.63E-03
     4 TBLite/Diag 0.40E+00    0.0     0.03445734       -59.5595203439 -7.16E-03
     5 TBLite/Diag 0.40E+00    0.0     0.00782617       -59.5603616633 -8.41E-04
     6 TBLite/Diag 0.40E+00    0.0     0.00218653       -59.5603841157 -2.25E-05
     7 TBLite/Diag 0.40E+00    0.0     0.00032896       -59.5603852118 -1.10E-06
     8 TBLite/Diag 0.40E+00    0.0     0.00014373       -59.5603853334 -1.22E-07
     9 TBLite/Diag 0.40E+00    0.0     0.00001867       -59.5603853344 -1.07E-09
    10 TBLite/Diag 0.40E+00    0.0     0.00000584       -59.5603853346 -2.12E-10
    11 TBLite/Diag 0.40E+00    0.0     0.00000093       -59.5603853346 -2.30E-12
    12 TBLite/Diag 0.40E+00    0.0     0.00000008       -59.5603853346 -2.13E-14
    13 TBLite/Diag 0.40E+00    0.0     0.00000005       -59.5603853346 -1.56E-13
    14 TBLite/Diag 0.40E+00    0.0     0.00000002       -59.5603853346  2.13E-13
    15 TBLite/Diag 0.40E+00    0.0     2.2044E-10       -59.5603853346 -1.14E-13

  *** SCF run converged in    15 steps ***


  Core Hamiltonian energy:                                    -60.38347470604977
  Repulsive potential energy:                                   0.79213805359331
  Electrostatic energy:                                         0.09428053315684
  Self-consistent dispersion energy:                            0.00000000000000
  Non-self consistent dispersion energy:                       -0.06332921533431
  Correction for halogen bonding:                               0.00000000000000
  Electronic entropic energy:                                  -0.00000000000000
  Fermi energy:                                                -0.27178124649580

  Total energy:                                               -59.56038533463393
  Total energy (extrapolated to T->0):                        -59.56038533463393

 ENERGY| Total FORCE_EVAL ( QS ) energy [hartree]            -59.560385334633928

 OPT| **************************************************************************
 OPT| Step number                                                              0
 OPT| Optimization method                                                   BFGS
 OPT| Total energy [hartree]                                      -59.5603853346
 OPT| Internal pressure [bar]                                   -5897.2407184535
 OPT| Used time [s]                                                        0.482
 OPT| **************************************************************************
 OPT| Estimated peak process memory [MiB]                                    169

 --------------------------
 OPTIMIZATION STEP:      1
 --------------------------

 CELL| Volume [angstrom^3]:                                           348.791671
 CELL| Vector a [angstrom]:       7.583     0.000     0.000   |a| =     7.583001
 CELL| Vector b [angstrom]:      -0.000     5.374     0.000   |b| =     5.374360
 CELL| Vector c [angstrom]:      -4.740    -0.000     8.559   |c| =     9.783333
 CELL| Angle (b,c), alpha [degree]:                                    90.000000
 CELL| Angle (a,c), beta  [degree]:                                   118.978067
 CELL| Angle (a,b), gamma [degree]:                                    90.000000
 CELL| Numerically orthorhombic:                                              NO
 CELL| Periodicity                                                           XYZ

 Extrapolation method: ASPC

 Number of electrons:                                                        104
 Number of occupied orbitals:                                                 52
 Number of molecular orbitals:                                               112

 Number of orbital functions:                                                112
 Number of independent orbital functions:                                    112


 SCF WAVEFUNCTION OPTIMIZATION

  Step     Update method      Time    Convergence         Total energy    Change
  ------------------------------------------------------------------------------
     1 TBLite/Diag 0.40E+00    0.0     0.01589026       -59.5624839546 -5.96E+01
     2 TBLite/Diag 0.40E+00    0.0     0.00225983       -59.5625215210 -3.76E-05
     3 TBLite/Diag 0.40E+00    0.0     0.00045899       -59.5625239151 -2.39E-06
     4 TBLite/Diag 0.40E+00    0.0     0.00010654       -59.5625240016 -8.65E-08
     5 TBLite/Diag 0.40E+00    0.0     0.00002432       -59.5625240067 -5.10E-09
     6 TBLite/Diag 0.40E+00    0.0     0.00001442       -59.5625240080 -1.31E-09
     7 TBLite/Diag 0.40E+00    0.0     0.00000150       -59.5625240080 -1.30E-11
     8 TBLite/Diag 0.40E+00    0.0     0.00000020       -59.5625240080 -4.26E-13
     9 TBLite/Diag 0.40E+00    0.0     0.00000010       -59.5625240080 -4.97E-14
    10 TBLite/Diag 0.40E+00    0.0     5.5063E-09       -59.5625240080  2.84E-14
    11 TBLite/Diag 0.40E+00    0.0     7.1812E-11       -59.5625240080 -6.39E-14

  *** SCF run converged in    11 steps ***


  Core Hamiltonian energy:                                    -60.38367771403647
  Repulsive potential energy:                                   0.79067763720011
  Electrostatic energy:                                         0.09421633096345
  Self-consistent dispersion energy:                            0.00000000000000
  Non-self consistent dispersion energy:                       -0.06374026213279
  Correction for halogen bonding:                               0.00000000000000
  Electronic entropic energy:                                  -0.00000000000000
  Fermi energy:                                                -0.27393447701979

  Total energy:                                               -59.56252400800571
  Total energy (extrapolated to T->0):                        -59.56252400800571

 ENERGY| Total FORCE_EVAL ( QS ) energy [hartree]            -59.562524008005710

 OPT| **************************************************************************
 OPT| Step number                                                              1
 OPT| Optimization method                                                   BFGS
 OPT| Total energy [hartree]                                      -59.5625240080
 OPT| Internal pressure [bar]                                   -9873.6002636635
 OPT| Effective energy change [hartree]                            -0.0021386734
 OPT| Predicted energy change [hartree]                            -0.0018319252
 OPT| Scaling factor                                                0.0000000000
 OPT| Step size                                                     0.0120478090
 OPT| Trust radius                                                  0.4724315332
 OPT| Decrease in energy                                                     YES
 OPT| Used time [s]                                                        0.465
 OPT|
 OPT| Maximum step size                                             0.0120478090
 OPT| Convergence limit for maximum step size                       0.0030000000
 OPT| Maximum step size is converged                                          NO
 OPT|
 OPT| RMS step size                                                 0.0056691303
 OPT| Convergence limit for RMS step size                           0.0015000000
 OPT| RMS step size is converged                                              NO
 OPT|
 OPT| Maximum gradient                                              0.0110614949
 OPT| Convergence limit for maximum gradient                        0.0004500000
 OPT| Maximum gradient is converged                                           NO
 OPT|
 OPT| RMS gradient                                                  0.0027094684
 OPT| Convergence limit for RMS gradient                            0.0003000000
 OPT| RMS gradient is converged                                               NO
 OPT|
 OPT| Pressure deviation [bar]                                  -9873.6002636635
 OPT| Pressure tolerance [bar]                                    100.0000000000
 OPT| Pressure is converged                                                   NO
 OPT| **************************************************************************
 OPT| Estimated peak process memory after this step [MiB]                    169

 --------------------------
 OPTIMIZATION STEP:      2
 --------------------------

 CELL| Volume [angstrom^3]:                                           348.511132
 CELL| Vector a [angstrom]:       7.583     0.000     0.000   |a| =     7.583286
 CELL| Vector b [angstrom]:      -0.000     5.375     0.000   |b| =     5.375266
 CELL| Vector c [angstrom]:      -4.735    -0.000     8.550   |c| =     9.773326
 CELL| Angle (b,c), alpha [degree]:                                    90.000000
 CELL| Angle (a,c), beta  [degree]:                                   118.976751
 CELL| Angle (a,b), gamma [degree]:                                    90.000000
 CELL| Numerically orthorhombic:                                              NO
 CELL| Periodicity                                                           XYZ

 Extrapolation method: ASPC

 Number of electrons:                                                        104
 Number of occupied orbitals:                                                 52
 Number of molecular orbitals:                                               112

 Number of orbital functions:                                                112
 Number of independent orbital functions:                                    112


 SCF WAVEFUNCTION OPTIMIZATION

  Step     Update method      Time    Convergence         Total energy    Change
  ------------------------------------------------------------------------------
     1 TBLite/Diag 0.40E+00    0.0     0.00720355       -59.5634379760 -5.96E+01
     2 TBLite/Diag 0.40E+00    0.0     0.00048773       -59.5634396578 -1.68E-06
     3 TBLite/Diag 0.40E+00    0.0     0.00015473       -59.5634397290 -7.12E-08
     4 TBLite/Diag 0.40E+00    0.0     0.00006041       -59.5634397600 -3.11E-08
     5 TBLite/Diag 0.40E+00    0.0     0.00000999       -59.5634397607 -7.03E-10
     6 TBLite/Diag 0.40E+00    0.0     0.00000587       -59.5634397608 -7.85E-11
     7 TBLite/Diag 0.40E+00    0.0     0.00000041       -59.5634397608 -1.58E-12
     8 TBLite/Diag 0.40E+00    0.0     0.00000017       -59.5634397608 -2.34E-13
     9 TBLite/Diag 0.40E+00    0.0     0.00000003       -59.5634397608  7.11E-14
    10 TBLite/Diag 0.40E+00    0.0     0.00000001       -59.5634397608 -4.26E-14
    11 TBLite/Diag 0.40E+00    0.0     5.6606E-10       -59.5634397608 -6.39E-14

  *** SCF run converged in    11 steps ***


  Core Hamiltonian energy:                                    -60.38839858916983
  Repulsive potential energy:                                   0.79445987261638
  Electrostatic energy:                                         0.09438339976563
  Self-consistent dispersion energy:                            0.00000000000000
  Non-self consistent dispersion energy:                       -0.06388444404010
  Correction for halogen bonding:                               0.00000000000000
  Electronic entropic energy:                                  -0.00000000000000
  Fermi energy:                                                -0.27364085931872

  Total energy:                                               -59.56343976082792
  Total energy (extrapolated to T->0):                        -59.56343976082792

 ENERGY| Total FORCE_EVAL ( QS ) energy [hartree]            -59.563439760827919

 OPT| **************************************************************************
 OPT| Step number                                                              2
 OPT| Optimization method                                                   BFGS
 OPT| Total energy [hartree]                                      -59.5634397608
 OPT| Internal pressure [bar]                                   -8131.7075817880
 OPT| Effective energy change [hartree]                            -0.0009157528
 OPT| Predicted energy change [hartree]                            -0.0005881676
 OPT| Scaling factor                                                0.0000000000
 OPT| Step size                                                     0.0163373965
 OPT| Trust radius                                                  0.4724315332
 OPT| Decrease in energy                                                     YES
 OPT| Used time [s]                                                        0.469
 OPT|
 OPT| Maximum step size                                             0.0163373965
 OPT| Convergence limit for maximum step size                       0.0030000000
 OPT| Maximum step size is converged                                          NO
 OPT|
 OPT| RMS step size                                                 0.0041062379
 OPT| Convergence limit for RMS step size                           0.0015000000
 OPT| RMS step size is converged                                              NO
 OPT|
 OPT| Maximum gradient                                              0.0071370685
 OPT| Convergence limit for maximum gradient                        0.0004500000
 OPT| Maximum gradient is converged                                           NO
 OPT|
 OPT| RMS gradient                                                  0.0020985698
 OPT| Convergence limit for RMS gradient                            0.0003000000
 OPT| RMS gradient is converged                                               NO
 OPT|
 OPT| Pressure deviation [bar]                                  -8131.7075817880
 OPT| Pressure tolerance [bar]                                    100.0000000000
 OPT| Pressure is converged                                                   NO
 OPT| **************************************************************************
 OPT| Estimated peak process memory after this step [MiB]                    170

 --------------------------
 OPTIMIZATION STEP:      3
 --------------------------

 CELL| Volume [angstrom^3]:                                           347.738009
 CELL| Vector a [angstrom]:       7.583     0.000     0.000   |a| =     7.582810
 CELL| Vector b [angstrom]:      -0.000     5.373     0.000   |b| =     5.373236
 CELL| Vector c [angstrom]:      -4.726    -0.000     8.535   |c| =     9.755880
 CELL| Angle (b,c), alpha [degree]:                                    90.000000
 CELL| Angle (a,c), beta  [degree]:                                   118.976098
 CELL| Angle (a,b), gamma [degree]:                                    90.000000
 CELL| Numerically orthorhombic:                                              NO
 CELL| Periodicity                                                           XYZ

 Extrapolation method: ASPC

 Number of electrons:                                                        104
 Number of occupied orbitals:                                                 52
 Number of molecular orbitals:                                               112

 Number of orbital functions:                                                112
 Number of independent orbital functions:                                    112


 SCF WAVEFUNCTION OPTIMIZATION

  Step     Update method      Time    Convergence         Total energy    Change
  ------------------------------------------------------------------------------
     1 TBLite/Diag 0.40E+00    0.0     0.01332952       -59.5642682913 -5.96E+01
     2 TBLite/Diag 0.40E+00    0.0     0.00201728       -59.5642952750 -2.70E-05
     3 TBLite/Diag 0.40E+00    0.0     0.00044976       -59.5642968900 -1.61E-06
     4 TBLite/Diag 0.40E+00    0.0     0.00007214       -59.5642969023 -1.23E-08
     5 TBLite/Diag 0.40E+00    0.0     0.00003090       -59.5642969112 -8.90E-09
     6 TBLite/Diag 0.40E+00    0.0     0.00000604       -59.5642969114 -2.09E-10
     7 TBLite/Diag 0.40E+00    0.0     0.00000164       -59.5642969114 -1.93E-11
     8 TBLite/Diag 0.40E+00    0.0     0.00000027       -59.5642969114 -2.91E-13
     9 TBLite/Diag 0.40E+00    0.0     0.00000009       -59.5642969114 -7.11E-14
    10 TBLite/Diag 0.40E+00    0.0     6.7463E-09       -59.5642969114  7.11E-14
    11 TBLite/Diag 0.40E+00    0.0     5.1859E-10       -59.5642969114 -9.24E-14

  *** SCF run converged in    11 steps ***


  Core Hamiltonian energy:                                    -60.39384340812693
  Repulsive potential energy:                                   0.79905112409731
  Electrostatic energy:                                         0.09463637437948
  Self-consistent dispersion energy:                            0.00000000000000
  Non-self consistent dispersion energy:                       -0.06414100177969
  Correction for halogen bonding:                               0.00000000000000
  Electronic entropic energy:                                  -0.00000000000000
  Fermi energy:                                                -0.27248886137008

  Total energy:                                               -59.56429691142984
  Total energy (extrapolated to T->0):                        -59.56429691142984

 ENERGY| Total FORCE_EVAL ( QS ) energy [hartree]            -59.564296911429842

 OPT| **************************************************************************
 OPT| Step number                                                              3
 OPT| Optimization method                                                   BFGS
 OPT| Total energy [hartree]                                      -59.5642969114
 OPT| Internal pressure [bar]                                   -5297.9302794650
 OPT| Effective energy change [hartree]                            -0.0008571506
 OPT| Predicted energy change [hartree]                            -0.0007207457
 OPT| Scaling factor                                                0.0000000000
 OPT| Step size                                                     0.0287401706
 OPT| Trust radius                                                  0.4724315332
 OPT| Decrease in energy                                                     YES
 OPT| Used time [s]                                                        0.471
 OPT|
 OPT| Maximum step size                                             0.0287401706
 OPT| Convergence limit for maximum step size                       0.0030000000
 OPT| Maximum step size is converged                                          NO
 OPT|
 OPT| RMS step size                                                 0.0071370228
 OPT| Convergence limit for RMS step size                           0.0015000000
 OPT| RMS step size is converged                                              NO
 OPT|
 OPT| Maximum gradient                                              0.0074622061
 OPT| Convergence limit for maximum gradient                        0.0004500000
 OPT| Maximum gradient is converged                                           NO
 OPT|
 OPT| RMS gradient                                                  0.0014543147
 OPT| Convergence limit for RMS gradient                            0.0003000000
 OPT| RMS gradient is converged                                               NO
 OPT|
 OPT| Pressure deviation [bar]                                  -5297.9302794650
 OPT| Pressure tolerance [bar]                                    100.0000000000
 OPT| Pressure is converged                                                   NO
 OPT| **************************************************************************
 OPT| Estimated peak process memory after this step [MiB]                    171

 --------------------------
 OPTIMIZATION STEP:      4
 --------------------------

 CELL| Volume [angstrom^3]:                                           347.151858
 CELL| Vector a [angstrom]:       7.582     0.000     0.000   |a| =     7.581629
 CELL| Vector b [angstrom]:      -0.000     5.368     0.000   |b| =     5.368401
 CELL| Vector c [angstrom]:      -4.724    -0.000     8.529   |c| =     9.749903
 CELL| Angle (b,c), alpha [degree]:                                    90.000000
 CELL| Angle (a,c), beta  [degree]:                                   118.977978
 CELL| Angle (a,b), gamma [degree]:                                    90.000000
 CELL| Numerically orthorhombic:                                              NO
 CELL| Periodicity                                                           XYZ

 Extrapolation method: ASPC

 Number of electrons:                                                        104
 Number of occupied orbitals:                                                 52
 Number of molecular orbitals:                                               112

 Number of orbital functions:                                                112
 Number of independent orbital functions:                                    112


 SCF WAVEFUNCTION OPTIMIZATION

  Step     Update method      Time    Convergence         Total energy    Change
  ------------------------------------------------------------------------------
     1 TBLite/Diag 0.40E+00    0.0     0.00333631       -59.5645593705 -5.96E+01
     2 TBLite/Diag 0.40E+00    0.0     0.00084278       -59.5645631019 -3.73E-06
     3 TBLite/Diag 0.40E+00    0.0     0.00015136       -59.5645632592 -1.57E-07
     4 TBLite/Diag 0.40E+00    0.0     0.00002555       -59.5645632606 -1.42E-09
     5 TBLite/Diag 0.40E+00    0.0     0.00001117       -59.5645632617 -1.13E-09
     6 TBLite/Diag 0.40E+00    0.0     0.00000172       -59.5645632617 -1.83E-11
     7 TBLite/Diag 0.40E+00    0.0     0.00000063       -59.5645632617 -3.54E-12
     8 TBLite/Diag 0.40E+00    0.0     0.00000011       -59.5645632617 -1.92E-13
     9 TBLite/Diag 0.40E+00    0.0     0.00000004       -59.5645632617 -1.42E-14
    10 TBLite/Diag 0.40E+00    0.0     3.5338E-09       -59.5645632617 -7.82E-14
    11 TBLite/Diag 0.40E+00    0.0     1.0389E-10       -59.5645632617  1.28E-13

  *** SCF run converged in    11 steps ***


  Core Hamiltonian energy:                                    -60.39449789887858
  Repulsive potential energy:                                   0.79951942619691
  Electrostatic energy:                                         0.09467523174435
  Self-consistent dispersion energy:                            0.00000000000000
  Non-self consistent dispersion energy:                       -0.06426002079400
  Correction for halogen bonding:                               0.00000000000000
  Electronic entropic energy:                                  -0.00000000000000
  Fermi energy:                                                -0.27214564977582

  Total energy:                                               -59.56456326173131
  Total energy (extrapolated to T->0):                        -59.56456326173131

 ENERGY| Total FORCE_EVAL ( QS ) energy [hartree]            -59.564563261731308

 OPT| **************************************************************************
 OPT| Step number                                                              4
 OPT| Optimization method                                                   BFGS
 OPT| Total energy [hartree]                                      -59.5645632617
 OPT| Internal pressure [bar]                                   -4610.4996286409
 OPT| Effective energy change [hartree]                            -0.0002663503
 OPT| Predicted energy change [hartree]                            -0.0001594408
 OPT| Scaling factor                                                0.0000000000
 OPT| Step size                                                     0.0101735819
 OPT| Trust radius                                                  0.4724315332
 OPT| Decrease in energy                                                     YES
 OPT| Used time [s]                                                        0.474
 OPT|
 OPT| Maximum step size                                             0.0101735819
 OPT| Convergence limit for maximum step size                       0.0030000000
 OPT| Maximum step size is converged                                          NO
 OPT|
 OPT| RMS step size                                                 0.0028550208
 OPT| Convergence limit for RMS step size                           0.0015000000
 OPT| RMS step size is converged                                              NO
 OPT|
 OPT| Maximum gradient                                              0.0080594099
 OPT| Convergence limit for maximum gradient                        0.0004500000
 OPT| Maximum gradient is converged                                           NO
 OPT|
 OPT| RMS gradient                                                  0.0013701067
 OPT| Convergence limit for RMS gradient                            0.0003000000
 OPT| RMS gradient is converged                                               NO
 OPT|
 OPT| Pressure deviation [bar]                                  -4610.4996286409
 OPT| Pressure tolerance [bar]                                    100.0000000000
 OPT| Pressure is converged                                                   NO
 OPT| **************************************************************************
 OPT| Estimated peak process memory after this step [MiB]                    171

 --------------------------
 OPTIMIZATION STEP:      5
 --------------------------

 CELL| Volume [angstrom^3]:                                           344.943800
 CELL| Vector a [angstrom]:       7.576     0.000     0.000   |a| =     7.576469
 CELL| Vector b [angstrom]:      -0.000     5.347     0.000   |b| =     5.347306
 CELL| Vector c [angstrom]:      -4.717     0.000     8.514   |c| =     9.733529
 CELL| Angle (b,c), alpha [degree]:                                    90.000000
 CELL| Angle (a,c), beta  [degree]:                                   118.986457
 CELL| Angle (a,b), gamma [degree]:                                    90.000000
 CELL| Numerically orthorhombic:                                              NO
 CELL| Periodicity                                                           XYZ

 Extrapolation method: ASPC

 Number of electrons:                                                        104
 Number of occupied orbitals:                                                 52
 Number of molecular orbitals:                                               112

 Number of orbital functions:                                                112
 Number of independent orbital functions:                                    112


 SCF WAVEFUNCTION OPTIMIZATION

  Step     Update method      Time    Convergence         Total energy    Change
  ------------------------------------------------------------------------------
     1 TBLite/Diag 0.40E+00    0.0     0.00786817       -59.5652580762 -5.96E+01
     2 TBLite/Diag 0.40E+00    0.0     0.00146145       -59.5652685472 -1.05E-05
     3 TBLite/Diag 0.40E+00    0.0     0.00023248       -59.5652689015 -3.54E-07
     4 TBLite/Diag 0.40E+00    0.0     0.00003886       -59.5652689074 -5.90E-09
     5 TBLite/Diag 0.40E+00    0.0     0.00001737       -59.5652689095 -2.13E-09
     6 TBLite/Diag 0.40E+00    0.0     0.00000304       -59.5652689095 -5.17E-11
     7 TBLite/Diag 0.40E+00    0.0     0.00000110       -59.5652689096 -1.15E-11
     8 TBLite/Diag 0.40E+00    0.0     0.00000019       -59.5652689096 -4.90E-13
     9 TBLite/Diag 0.40E+00    0.0     0.00000009       -59.5652689096 -7.82E-14
    10 TBLite/Diag 0.40E+00    0.0     3.8682E-09       -59.5652689096  9.95E-14
    11 TBLite/Diag 0.40E+00    0.0     3.1199E-10       -59.5652689096 -9.24E-14

  *** SCF run converged in    11 steps ***


  Core Hamiltonian energy:                                    -60.39472068447709
  Repulsive potential energy:                                   0.79953880560988
  Electrostatic energy:                                         0.09460962515396
  Self-consistent dispersion energy:                            0.00000000000000
  Non-self consistent dispersion energy:                       -0.06469665583736
  Correction for halogen bonding:                               0.00000000000000
  Electronic entropic energy:                                  -0.00000000000000
  Fermi energy:                                                -0.27157140397821

  Total energy:                                               -59.56526890955062
  Total energy (extrapolated to T->0):                        -59.56526890955062

 ENERGY| Total FORCE_EVAL ( QS ) energy [hartree]            -59.565268909550625

 OPT| **************************************************************************
 OPT| Step number                                                              5
 OPT| Optimization method                                                   BFGS
 OPT| Total energy [hartree]                                      -59.5652689096
 OPT| Internal pressure [bar]                                   -3485.4007773825
 OPT| Effective energy change [hartree]                            -0.0007056478
 OPT| Predicted energy change [hartree]                            -0.0004842799
 OPT| Scaling factor                                                0.0000000000
 OPT| Step size                                                     0.0398643619
 OPT| Trust radius                                                  0.4724315332
 OPT| Decrease in energy                                                     YES
 OPT| Used time [s]                                                        0.477
 OPT|
 OPT| Maximum step size                                             0.0398643619
 OPT| Convergence limit for maximum step size                       0.0030000000
 OPT| Maximum step size is converged                                          NO
 OPT|
 OPT| RMS step size                                                 0.0091242567
 OPT| Convergence limit for RMS step size                           0.0015000000
 OPT| RMS step size is converged                                              NO
 OPT|
 OPT| Maximum gradient                                              0.0084069542
 OPT| Convergence limit for maximum gradient                        0.0004500000
 OPT| Maximum gradient is converged                                           NO
 OPT|
 OPT| RMS gradient                                                  0.0018978727
 OPT| Convergence limit for RMS gradient                            0.0003000000
 OPT| RMS gradient is converged                                               NO
 OPT|
 OPT| Pressure deviation [bar]                                  -3485.4007773825
 OPT| Pressure tolerance [bar]                                    100.0000000000
 OPT| Pressure is converged                                                   NO
 OPT| **************************************************************************
 OPT| Estimated peak process memory after this step [MiB]                    171

 --------------------------
 OPTIMIZATION STEP:      6
 --------------------------

 CELL| Volume [angstrom^3]:                                           341.792499
 CELL| Vector a [angstrom]:       7.568     0.000     0.000   |a| =     7.568370
 CELL| Vector b [angstrom]:      -0.000     5.315     0.000   |b| =     5.314909
 CELL| Vector c [angstrom]:      -4.709     0.000     8.497   |c| =     9.714805
 CELL| Angle (b,c), alpha [degree]:                                    90.000000
 CELL| Angle (a,c), beta  [degree]:                                   118.997383
 CELL| Angle (a,b), gamma [degree]:                                    90.000000
 CELL| Numerically orthorhombic:                                              NO
 CELL| Periodicity                                                           XYZ

 Extrapolation method: ASPC

 Number of electrons:                                                        104
 Number of occupied orbitals:                                                 52
 Number of molecular orbitals:                                               112

 Number of orbital functions:                                                112
 Number of independent orbital functions:                                    112


 SCF WAVEFUNCTION OPTIMIZATION

  Step     Update method      Time    Convergence         Total energy    Change
  ------------------------------------------------------------------------------
     1 TBLite/Diag 0.40E+00    0.0     0.00992271       -59.5660367045 -5.96E+01
     2 TBLite/Diag 0.40E+00    0.0     0.00075960       -59.5660390481 -2.34E-06
     3 TBLite/Diag 0.40E+00    0.0     0.00014521       -59.5660391843 -1.36E-07
     4 TBLite/Diag 0.40E+00    0.0     0.00004380       -59.5660391879 -3.53E-09
     5 TBLite/Diag 0.40E+00    0.0     0.00000761       -59.5660391883 -4.69E-10
     6 TBLite/Diag 0.40E+00    0.0     0.00000404       -59.5660391884 -8.60E-11
     7 TBLite/Diag 0.40E+00    0.0     0.00000086       -59.5660391884 -6.01E-12
     8 TBLite/Diag 0.40E+00    0.0     0.00000026       -59.5660391884 -2.63E-13
     9 TBLite/Diag 0.40E+00    0.0     0.00000002       -59.5660391884 -2.84E-14
    10 TBLite/Diag 0.40E+00    0.0     0.00000001       -59.5660391884  4.26E-14
    11 TBLite/Diag 0.40E+00    0.0     1.2809E-10       -59.5660391884  4.26E-14

  *** SCF run converged in    11 steps ***


  Core Hamiltonian energy:                                    -60.39370826797122
  Repulsive potential energy:                                   0.79860754991219
  Electrostatic energy:                                         0.09439557963383
  Self-consistent dispersion energy:                            0.00000000000000
  Non-self consistent dispersion energy:                       -0.06533405001067
  Correction for halogen bonding:                               0.00000000000000
  Electronic entropic energy:                                  -0.00000000000000
  Fermi energy:                                                -0.27141341499974

  Total energy:                                               -59.56603918843587
  Total energy (extrapolated to T->0):                        -59.56603918843587

 ENERGY| Total FORCE_EVAL ( QS ) energy [hartree]            -59.566039188435866

 OPT| **************************************************************************
 OPT| Step number                                                              6
 OPT| Optimization method                                                   BFGS
 OPT| Total energy [hartree]                                      -59.5660391884
 OPT| Internal pressure [bar]                                   -2964.0024279644
 OPT| Effective energy change [hartree]                            -0.0007702789
 OPT| Predicted energy change [hartree]                            -0.0005137013
 OPT| Scaling factor                                                0.0000000000
 OPT| Step size                                                     0.0612210507
 OPT| Trust radius                                                  0.4724315332
 OPT| Decrease in energy                                                     YES
 OPT| Used time [s]                                                        0.479
 OPT|
 OPT| Maximum step size                                             0.0612210507
 OPT| Convergence limit for maximum step size                       0.0030000000
 OPT| Maximum step size is converged                                          NO
 OPT|
 OPT| RMS step size                                                 0.0120248314
 OPT| Convergence limit for RMS step size                           0.0015000000
 OPT| RMS step size is converged                                              NO
 OPT|
 OPT| Maximum gradient                                              0.0077126764
 OPT| Convergence limit for maximum gradient                        0.0004500000
 OPT| Maximum gradient is converged                                           NO
 OPT|
 OPT| RMS gradient                                                  0.0023344158
 OPT| Convergence limit for RMS gradient                            0.0003000000
 OPT| RMS gradient is converged                                               NO
 OPT|
 OPT| Pressure deviation [bar]                                  -2964.0024279644
 OPT| Pressure tolerance [bar]                                    100.0000000000
 OPT| Pressure is converged                                                   NO
 OPT| **************************************************************************
 OPT| Estimated peak process memory after this step [MiB]                    171

 --------------------------
 OPTIMIZATION STEP:      7
 --------------------------

 CELL| Volume [angstrom^3]:                                           337.531527
 CELL| Vector a [angstrom]:       7.556     0.000     0.000   |a| =     7.556446
 CELL| Vector b [angstrom]:      -0.000     5.269     0.000   |b| =     5.268960
 CELL| Vector c [angstrom]:      -4.701     0.000     8.478   |c| =     9.693552
 CELL| Angle (b,c), alpha [degree]:                                    90.000000
 CELL| Angle (a,c), beta  [degree]:                                   119.007216
 CELL| Angle (a,b), gamma [degree]:                                    90.000000
 CELL| Numerically orthorhombic:                                              NO
 CELL| Periodicity                                                           XYZ

 Extrapolation method: ASPC

 Number of electrons:                                                        104
 Number of occupied orbitals:                                                 52
 Number of molecular orbitals:                                               112

 Number of orbital functions:                                                112
 Number of independent orbital functions:                                    112


 SCF WAVEFUNCTION OPTIMIZATION

  Step     Update method      Time    Convergence         Total energy    Change
  ------------------------------------------------------------------------------
     1 TBLite/Diag 0.40E+00    0.0     0.01209938       -59.5668773721 -5.96E+01
     2 TBLite/Diag 0.40E+00    0.0     0.00117264       -59.5668882597 -1.09E-05
     3 TBLite/Diag 0.40E+00    0.0     0.00024203       -59.5668889937 -7.34E-07
     4 TBLite/Diag 0.40E+00    0.0     0.00006342       -59.5668890029 -9.26E-09
     5 TBLite/Diag 0.40E+00    0.0     0.00002034       -59.5668890067 -3.73E-09
     6 TBLite/Diag 0.40E+00    0.0     0.00000958       -59.5668890071 -4.29E-10
     7 TBLite/Diag 0.40E+00    0.0     0.00000067       -59.5668890071 -3.43E-12
     8 TBLite/Diag 0.40E+00    0.0     0.00000041       -59.5668890071 -4.55E-13
     9 TBLite/Diag 0.40E+00    0.0     0.00000005       -59.5668890071  3.55E-14
    10 TBLite/Diag 0.40E+00    0.0     0.00000001       -59.5668890071  1.42E-14
    11 TBLite/Diag 0.40E+00    0.0     1.1710E-10       -59.5668890071 -9.24E-14

  *** SCF run converged in    11 steps ***


  Core Hamiltonian energy:                                    -60.39138307681019
  Repulsive potential energy:                                   0.79666614656715
  Electrostatic energy:                                         0.09405085922749
  Self-consistent dispersion energy:                            0.00000000000000
  Non-self consistent dispersion energy:                       -0.06622293607078
  Correction for halogen bonding:                               0.00000000000000
  Electronic entropic energy:                                  -0.00000000000000
  Fermi energy:                                                -0.27163129933308

  Total energy:                                               -59.56688900708632
  Total energy (extrapolated to T->0):                        -59.56688900708632

 ENERGY| Total FORCE_EVAL ( QS ) energy [hartree]            -59.566889007086324

 OPT| **************************************************************************
 OPT| Step number                                                              7
 OPT| Optimization method                                                   BFGS
 OPT| Total energy [hartree]                                      -59.5668890071
 OPT| Internal pressure [bar]                                   -3193.8356215356
 OPT| Effective energy change [hartree]                            -0.0008498187
 OPT| Predicted energy change [hartree]                            -0.0006096826
 OPT| Scaling factor                                                0.0000000000
 OPT| Step size                                                     0.0868314420
 OPT| Trust radius                                                  0.4724315332
 OPT| Decrease in energy                                                     YES
 OPT| Used time [s]                                                        0.487
 OPT|
 OPT| Maximum step size                                             0.0868314420
 OPT| Convergence limit for maximum step size                       0.0030000000
 OPT| Maximum step size is converged                                          NO
 OPT|
 OPT| RMS step size                                                 0.0154780005
 OPT| Convergence limit for RMS step size                           0.0015000000
 OPT| RMS step size is converged                                              NO
 OPT|
 OPT| Maximum gradient                                              0.0063784639
 OPT| Convergence limit for maximum gradient                        0.0004500000
 OPT| Maximum gradient is converged                                           NO
 OPT|
 OPT| RMS gradient                                                  0.0021369356
 OPT| Convergence limit for RMS gradient                            0.0003000000
 OPT| RMS gradient is converged                                               NO
 OPT|
 OPT| Pressure deviation [bar]                                  -3193.8356215356
 OPT| Pressure tolerance [bar]                                    100.0000000000
 OPT| Pressure is converged                                                   NO
 OPT| **************************************************************************
 OPT| Estimated peak process memory after this step [MiB]                    171

 --------------------------
 OPTIMIZATION STEP:      8
 --------------------------

 CELL| Volume [angstrom^3]:                                           334.137838
 CELL| Vector a [angstrom]:       7.546     0.000     0.000   |a| =     7.545944
 CELL| Vector b [angstrom]:      -0.000     5.231     0.000   |b| =     5.230758
 CELL| Vector c [angstrom]:      -4.694     0.000     8.465   |c| =     9.679513
 CELL| Angle (b,c), alpha [degree]:                                    90.000000
 CELL| Angle (a,c), beta  [degree]:                                   119.006032
 CELL| Angle (a,b), gamma [degree]:                                    90.000000
 CELL| Numerically orthorhombic:                                              NO
 CELL| Periodicity                                                           XYZ

 Extrapolation method: ASPC

 Number of electrons:                                                        104
 Number of occupied orbitals:                                                 52
 Number of molecular orbitals:                                               112

 Number of orbital functions:                                                112
 Number of independent orbital functions:                                    112


 SCF WAVEFUNCTION OPTIMIZATION

  Step     Update method      Time    Convergence         Total energy    Change
  ------------------------------------------------------------------------------
     1 TBLite/Diag 0.40E+00    0.0     0.00795191       -59.5674974138 -5.96E+01
     2 TBLite/Diag 0.40E+00    0.0     0.00177154       -59.5675167538 -1.93E-05
     3 TBLite/Diag 0.40E+00    0.0     0.00035265       -59.5675177716 -1.02E-06
     4 TBLite/Diag 0.40E+00    0.0     0.00006945       -59.5675177815 -9.96E-09
     5 TBLite/Diag 0.40E+00    0.0     0.00002999       -59.5675177915 -9.95E-09
     6 TBLite/Diag 0.40E+00    0.0     0.00000923       -59.5675177920 -5.09E-10
     7 TBLite/Diag 0.40E+00    0.0     0.00000137       -59.5675177920 -1.18E-11
     8 TBLite/Diag 0.40E+00    0.0     0.00000046       -59.5675177920 -1.33E-12
     9 TBLite/Diag 0.40E+00    0.0     0.00000010       -59.5675177920 -1.14E-13
    10 TBLite/Diag 0.40E+00    0.0     0.00000001       -59.5675177920 -3.55E-14
    11 TBLite/Diag 0.40E+00    0.0     4.7188E-10       -59.5675177920 -7.11E-15

  *** SCF run converged in    11 steps ***


  Core Hamiltonian energy:                                    -60.38966886158522
  Repulsive potential energy:                                   0.79530126217823
  Electrostatic energy:                                         0.09380364618008
  Self-consistent dispersion energy:                            0.00000000000000
  Non-self consistent dispersion energy:                       -0.06695383876685
  Correction for halogen bonding:                               0.00000000000000
  Electronic entropic energy:                                  -0.00000000000000
  Fermi energy:                                                -0.27199332798717

  Total energy:                                               -59.56751779199377
  Total energy (extrapolated to T->0):                        -59.56751779199377

 ENERGY| Total FORCE_EVAL ( QS ) energy [hartree]            -59.567517791993765

 OPT| **************************************************************************
 OPT| Step number                                                              8
 OPT| Optimization method                                                   BFGS
 OPT| Total energy [hartree]                                      -59.5675177920
 OPT| Internal pressure [bar]                                   -3945.6241373339
 OPT| Effective energy change [hartree]                            -0.0006287849
 OPT| Predicted energy change [hartree]                            -0.0004358696
 OPT| Scaling factor                                                0.0000000000
 OPT| Step size                                                     0.0721898439
 OPT| Trust radius                                                  0.4724315332
 OPT| Decrease in energy                                                     YES
 OPT| Used time [s]                                                        0.489
 OPT|
 OPT| Maximum step size                                             0.0721898439
 OPT| Convergence limit for maximum step size                       0.0030000000
 OPT| Maximum step size is converged                                          NO
 OPT|
 OPT| RMS step size                                                 0.0117308812
 OPT| Convergence limit for RMS step size                           0.0015000000
 OPT| RMS step size is converged                                              NO
 OPT|
 OPT| Maximum gradient                                              0.0049460718
 OPT| Convergence limit for maximum gradient                        0.0004500000
 OPT| Maximum gradient is converged                                           NO
 OPT|
 OPT| RMS gradient                                                  0.0016760626
 OPT| Convergence limit for RMS gradient                            0.0003000000
 OPT| RMS gradient is converged                                               NO
 OPT|
 OPT| Pressure deviation [bar]                                  -3945.6241373339
 OPT| Pressure tolerance [bar]                                    100.0000000000
 OPT| Pressure is converged                                                   NO
 OPT| **************************************************************************
 OPT| Estimated peak process memory after this step [MiB]                    171

 --------------------------
 OPTIMIZATION STEP:      9
 --------------------------

 CELL| Volume [angstrom^3]:                                           330.515959
 CELL| Vector a [angstrom]:       7.534     0.000     0.000   |a| =     7.534136
 CELL| Vector b [angstrom]:       0.000     5.189     0.000   |b| =     5.189079
 CELL| Vector c [angstrom]:      -4.685     0.000     8.454   |c| =     9.665336
 CELL| Angle (b,c), alpha [degree]:                                    90.000000
 CELL| Angle (a,c), beta  [degree]:                                   118.992278
 CELL| Angle (a,b), gamma [degree]:                                    90.000000
 CELL| Numerically orthorhombic:                                              NO
 CELL| Periodicity                                                           XYZ

 Extrapolation method: ASPC

 Number of electrons:                                                        104
 Number of occupied orbitals:                                                 52
 Number of molecular orbitals:                                               112

 Number of orbital functions:                                                112
 Number of independent orbital functions:                                    112


 SCF WAVEFUNCTION OPTIMIZATION

  Step     Update method      Time    Convergence         Total energy    Change
  ------------------------------------------------------------------------------
     1 TBLite/Diag 0.40E+00    0.0     0.00834439       -59.5681065604 -5.96E+01
     2 TBLite/Diag 0.40E+00    0.0     0.00189419       -59.5681260347 -1.95E-05
     3 TBLite/Diag 0.40E+00    0.0     0.00034671       -59.5681269215 -8.87E-07
     4 TBLite/Diag 0.40E+00    0.0     0.00008445       -59.5681269410 -1.95E-08
     5 TBLite/Diag 0.40E+00    0.0     0.00003427       -59.5681269527 -1.16E-08
     6 TBLite/Diag 0.40E+00    0.0     0.00000950       -59.5681269533 -5.96E-10
     7 TBLite/Diag 0.40E+00    0.0     0.00000187       -59.5681269533 -2.55E-11
     8 TBLite/Diag 0.40E+00    0.0     0.00000058       -59.5681269533 -2.76E-12
     9 TBLite/Diag 0.40E+00    0.0     0.00000009       -59.5681269533 -1.99E-13
    10 TBLite/Diag 0.40E+00    0.0     7.5706E-09       -59.5681269533  4.26E-14
    11 TBLite/Diag 0.40E+00    0.0     7.5787E-11       -59.5681269533  2.84E-14

  *** SCF run converged in    11 steps ***


  Core Hamiltonian energy:                                    -60.38900312415535
  Repulsive potential energy:                                   0.79499509522648
  Electrostatic energy:                                         0.09362658583732
  Self-consistent dispersion energy:                            0.00000000000000
  Non-self consistent dispersion energy:                       -0.06774551019083
  Correction for halogen bonding:                               0.00000000000000
  Electronic entropic energy:                                  -0.00000000000000
  Fermi energy:                                                -0.27224524001884

  Total energy:                                               -59.56812695328237
  Total energy (extrapolated to T->0):                        -59.56812695328237

 ENERGY| Total FORCE_EVAL ( QS ) energy [hartree]            -59.568126953282373

 OPT| **************************************************************************
 OPT| Step number                                                              9
 OPT| Optimization method                                                   BFGS
 OPT| Total energy [hartree]                                      -59.5681269533
 OPT| Internal pressure [bar]                                   -4380.8000225824
 OPT| Effective energy change [hartree]                            -0.0006091613
 OPT| Predicted energy change [hartree]                            -0.0004203943
 OPT| Scaling factor                                                0.0000000000
 OPT| Step size                                                     0.0787623860
 OPT| Trust radius                                                  0.4724315332
 OPT| Decrease in energy                                                     YES
 OPT| Used time [s]                                                        0.493
 OPT|
 OPT| Maximum step size                                             0.0787623860
 OPT| Convergence limit for maximum step size                       0.0030000000
 OPT| Maximum step size is converged                                          NO
 OPT|
 OPT| RMS step size                                                 0.0121411854
 OPT| Convergence limit for RMS step size                           0.0015000000
 OPT| RMS step size is converged                                              NO
 OPT|
 OPT| Maximum gradient                                              0.0045337884
 OPT| Convergence limit for maximum gradient                        0.0004500000
 OPT| Maximum gradient is converged                                           NO
 OPT|
 OPT| RMS gradient                                                  0.0018037270
 OPT| Convergence limit for RMS gradient                            0.0003000000
 OPT| RMS gradient is converged                                               NO
 OPT|
 OPT| Pressure deviation [bar]                                  -4380.8000225824
 OPT| Pressure tolerance [bar]                                    100.0000000000
 OPT| Pressure is converged                                                   NO
 OPT| **************************************************************************
 OPT| Estimated peak process memory after this step [MiB]                    171

 --------------------------
 OPTIMIZATION STEP:     10
 --------------------------

 CELL| Volume [angstrom^3]:                                           325.322543
 CELL| Vector a [angstrom]:       7.518     0.000     0.000   |a| =     7.517555
 CELL| Vector b [angstrom]:       0.000     5.129     0.000   |b| =     5.128915
 CELL| Vector c [angstrom]:      -4.669     0.000     8.437   |c| =     9.643320
 CELL| Angle (b,c), alpha [degree]:                                    90.000000
 CELL| Angle (a,c), beta  [degree]:                                   118.960408
 CELL| Angle (a,b), gamma [degree]:                                    90.000000
 CELL| Numerically orthorhombic:                                              NO
 CELL| Periodicity                                                           XYZ

 Extrapolation method: ASPC

 Number of electrons:                                                        104
 Number of occupied orbitals:                                                 52
 Number of molecular orbitals:                                               112

 Number of orbital functions:                                                112
 Number of independent orbital functions:                                    112


 SCF WAVEFUNCTION OPTIMIZATION

  Step     Update method      Time    Convergence         Total energy    Change
  ------------------------------------------------------------------------------
     1 TBLite/Diag 0.40E+00    0.0     0.01122888       -59.5689144617 -5.96E+01
     2 TBLite/Diag 0.40E+00    0.0     0.00188250       -59.5689320644 -1.76E-05
     3 TBLite/Diag 0.40E+00    0.0     0.00030609       -59.5689327680 -7.04E-07
     4 TBLite/Diag 0.40E+00    0.0     0.00010591       -59.5689328194 -5.14E-08
     5 TBLite/Diag 0.40E+00    0.0     0.00003710       -59.5689328311 -1.17E-08
     6 TBLite/Diag 0.40E+00    0.0     0.00001175       -59.5689328319 -8.13E-10
     7 TBLite/Diag 0.40E+00    0.0     0.00000202       -59.5689328320 -4.37E-11
     8 TBLite/Diag 0.40E+00    0.0     0.00000104       -59.5689328320 -6.54E-12
     9 TBLite/Diag 0.40E+00    0.0     0.00000007       -59.5689328320 -4.97E-14
    10 TBLite/Diag 0.40E+00    0.0     0.00000002       -59.5689328320  7.11E-14
    11 TBLite/Diag 0.40E+00    0.0     1.2977E-09       -59.5689328320  7.11E-15
    12 TBLite/Diag 0.40E+00    0.0     1.0382E-10       -59.5689328320 -1.49E-13

  *** SCF run converged in    12 steps ***


  Core Hamiltonian energy:                                    -60.38911655792958
  Repulsive potential energy:                                   0.79559360443059
  Electrostatic energy:                                         0.09348240993260
  Self-consistent dispersion energy:                            0.00000000000000
  Non-self consistent dispersion energy:                       -0.06889228839499
  Correction for halogen bonding:                               0.00000000000000
  Electronic entropic energy:                                  -0.00000000000000
  Fermi energy:                                                -0.27227870089665

  Total energy:                                               -59.56893283196138
  Total energy (extrapolated to T->0):                        -59.56893283196138

 ENERGY| Total FORCE_EVAL ( QS ) energy [hartree]            -59.568932831961384

 OPT| **************************************************************************
 OPT| Step number                                                             10
 OPT| Optimization method                                                   BFGS
 OPT| Total energy [hartree]                                      -59.5689328320
 OPT| Internal pressure [bar]                                   -4147.3111326830
 OPT| Effective energy change [hartree]                            -0.0008058787
 OPT| Predicted energy change [hartree]                            -0.0005314672
 OPT| Scaling factor                                                0.0000000000
 OPT| Step size                                                     0.1136937419
 OPT| Trust radius                                                  0.4724315332
 OPT| Decrease in energy                                                     YES
 OPT| Used time [s]                                                        0.550
 OPT|
 OPT| Maximum step size                                             0.1136937419
 OPT| Convergence limit for maximum step size                       0.0030000000
 OPT| Maximum step size is converged                                          NO
 OPT|
 OPT| RMS step size                                                 0.0173816164
 OPT| Convergence limit for RMS step size                           0.0015000000
 OPT| RMS step size is converged                                              NO
 OPT|
 OPT| Maximum gradient                                              0.0051569453
 OPT| Convergence limit for maximum gradient                        0.0004500000
 OPT| Maximum gradient is converged                                           NO
 OPT|
 OPT| RMS gradient                                                  0.0025365817
 OPT| Convergence limit for RMS gradient                            0.0003000000
 OPT| RMS gradient is converged                                               NO
 OPT|
 OPT| Pressure deviation [bar]                                  -4147.3111326830
 OPT| Pressure tolerance [bar]                                    100.0000000000
 OPT| Pressure is converged                                                   NO
 OPT| **************************************************************************
 OPT| Estimated peak process memory after this step [MiB]                    171

 --------------------------
 OPTIMIZATION STEP:     11
 --------------------------

 CELL| Volume [angstrom^3]:                                           313.923302
 CELL| Vector a [angstrom]:       7.483     0.000     0.000   |a| =     7.482977
 CELL| Vector b [angstrom]:       0.000     4.995     0.000   |b| =     4.995288
 CELL| Vector c [angstrom]:      -4.632    -0.000     8.398   |c| =     9.590962
 CELL| Angle (b,c), alpha [degree]:                                    90.000000
 CELL| Angle (a,c), beta  [degree]:                                   118.879003
 CELL| Angle (a,b), gamma [degree]:                                    90.000000
 CELL| Numerically orthorhombic:                                              NO
 CELL| Periodicity                                                           XYZ

 Extrapolation method: ASPC

 Number of electrons:                                                        104
 Number of occupied orbitals:                                                 52
 Number of molecular orbitals:                                               112

 Number of orbital functions:                                                112
 Number of independent orbital functions:                                    112


 SCF WAVEFUNCTION OPTIMIZATION

  Step     Update method      Time    Convergence         Total energy    Change
  ------------------------------------------------------------------------------
     1 TBLite/Diag 0.40E+00    0.0     0.02432347       -59.5703057361 -5.96E+01
     2 TBLite/Diag 0.40E+00    0.0     0.00314862       -59.5703592378 -5.35E-05
     3 TBLite/Diag 0.40E+00    0.0     0.00041464       -59.5703612010 -1.96E-06
     4 TBLite/Diag 0.40E+00    0.0     0.00021281       -59.5703614427 -2.42E-07
     5 TBLite/Diag 0.40E+00    0.0     0.00005372       -59.5703614647 -2.19E-08
     6 TBLite/Diag 0.40E+00    0.0     0.00002263       -59.5703614673 -2.66E-09
     7 TBLite/Diag 0.40E+00    0.0     0.00000351       -59.5703614675 -1.43E-10
     8 TBLite/Diag 0.40E+00    0.0     0.00000199       -59.5703614675 -3.46E-11
     9 TBLite/Diag 0.40E+00    0.0     0.00000012       -59.5703614675 -2.84E-14
    10 TBLite/Diag 0.40E+00    0.0     0.00000003       -59.5703614675 -1.21E-13
    11 TBLite/Diag 0.40E+00    0.0     3.3284E-09       -59.5703614675  1.35E-13
    12 TBLite/Diag 0.40E+00    0.0     2.2107E-10       -59.5703614675  7.82E-14

  *** SCF run converged in    12 steps ***


  Core Hamiltonian energy:                                    -60.38989366457223
  Repulsive potential energy:                                   0.79774960216919
  Electrostatic energy:                                         0.09325363944679
  Self-consistent dispersion energy:                            0.00000000000000
  Non-self consistent dispersion energy:                       -0.07147104455146
  Correction for halogen bonding:                               0.00000000000000
  Electronic entropic energy:                                  -0.00000000000000
  Fermi energy:                                                -0.27192683835752

  Total energy:                                               -59.57036146750771
  Total energy (extrapolated to T->0):                        -59.57036146750771

 ENERGY| Total FORCE_EVAL ( QS ) energy [hartree]            -59.570361467507709

 OPT| **************************************************************************
 OPT| Step number                                                             11
 OPT| Optimization method                                                   BFGS
 OPT| Total energy [hartree]                                      -59.5703614675
 OPT| Internal pressure [bar]                                    -641.0585770919
 OPT| Effective energy change [hartree]                            -0.0014286355
 OPT| Predicted energy change [hartree]                            -0.0011074909
 OPT| Scaling factor                                                0.0000000000
 OPT| Step size                                                     0.2525175141
 OPT| Trust radius                                                  0.4724315332
 OPT| Decrease in energy                                                     YES
 OPT| Used time [s]                                                        0.532
 OPT|
 OPT| Maximum step size                                             0.2525175141
 OPT| Convergence limit for maximum step size                       0.0030000000
 OPT| Maximum step size is converged                                          NO
 OPT|
 OPT| RMS step size                                                 0.0387233191
 OPT| Convergence limit for RMS step size                           0.0015000000
 OPT| RMS step size is converged                                              NO
 OPT|
 OPT| Maximum gradient                                              0.0092128459
 OPT| Convergence limit for maximum gradient                        0.0004500000
 OPT| Maximum gradient is converged                                           NO
 OPT|
 OPT| RMS gradient                                                  0.0039373819
 OPT| Convergence limit for RMS gradient                            0.0003000000
 OPT| RMS gradient is converged                                               NO
 OPT|
 OPT| Pressure deviation [bar]                                   -641.0585770919
 OPT| Pressure tolerance [bar]                                    100.0000000000
 OPT| Pressure is converged                                                   NO
 OPT| **************************************************************************
 OPT| Estimated peak process memory after this step [MiB]                    172

 --------------------------
 OPTIMIZATION STEP:     12
 --------------------------

 CELL| Volume [angstrom^3]:                                           305.447048
 CELL| Vector a [angstrom]:       7.460     0.000     0.000   |a| =     7.459965
 CELL| Vector b [angstrom]:       0.000     4.892     0.000   |b| =     4.892286
 CELL| Vector c [angstrom]:      -4.599    -0.000     8.369   |c| =     9.549715
 CELL| Angle (b,c), alpha [degree]:                                    90.000000
 CELL| Angle (a,c), beta  [degree]:                                   118.790216
 CELL| Angle (a,b), gamma [degree]:                                    90.000000
 CELL| Numerically orthorhombic:                                              NO
 CELL| Periodicity                                                           XYZ

 Extrapolation method: ASPC

 Number of electrons:                                                        104
 Number of occupied orbitals:                                                 52
 Number of molecular orbitals:                                               112

 Number of orbital functions:                                                112
 Number of independent orbital functions:                                    112


 SCF WAVEFUNCTION OPTIMIZATION

  Step     Update method      Time    Convergence         Total energy    Change
  ------------------------------------------------------------------------------
     1 TBLite/Diag 0.40E+00    0.0     0.01892516       -59.5716257964 -5.96E+01
     2 TBLite/Diag 0.40E+00    0.0     0.00121630       -59.5716441518 -1.84E-05
     3 TBLite/Diag 0.40E+00    0.0     0.00032256       -59.5716449547 -8.03E-07
     4 TBLite/Diag 0.40E+00    0.0     0.00012968       -59.5716450411 -8.65E-08
     5 TBLite/Diag 0.40E+00    0.0     0.00002899       -59.5716450496 -8.44E-09
     6 TBLite/Diag 0.40E+00    0.0     0.00001401       -59.5716450508 -1.22E-09
     7 TBLite/Diag 0.40E+00    0.0     0.00000265       -59.5716450508 -4.28E-11
     8 TBLite/Diag 0.40E+00    0.0     0.00000107       -59.5716450509 -8.24E-12
     9 TBLite/Diag 0.40E+00    0.0     0.00000009       -59.5716450509 -1.42E-14
    10 TBLite/Diag 0.40E+00    0.0     0.00000005       -59.5716450509 -8.53E-14
    11 TBLite/Diag 0.40E+00    0.0     3.0445E-09       -59.5716450509  1.28E-13
    12 TBLite/Diag 0.40E+00    0.0     2.5974E-11       -59.5716450509 -6.39E-14

  *** SCF run converged in    12 steps ***


  Core Hamiltonian energy:                                    -60.39103438065266
  Repulsive potential energy:                                   0.79964548562999
  Electrostatic energy:                                         0.09322961936147
  Self-consistent dispersion energy:                            0.00000000000000
  Non-self consistent dispersion energy:                       -0.07348577519114
  Correction for halogen bonding:                               0.00000000000000
[...]
 CELL| Periodicity                                                           XYZ

 Extrapolation method: ASPC

 Number of electrons:                                                        104
 Number of occupied orbitals:                                                 52
 Number of molecular orbitals:                                               112

 Number of orbital functions:                                                112
 Number of independent orbital functions:                                    112


 SCF WAVEFUNCTION OPTIMIZATION

  Step     Update method      Time    Convergence         Total energy    Change
  ------------------------------------------------------------------------------
     1 TBLite/Diag 0.40E+00    0.0     0.00202614       -59.7019039339 -5.97E+01
     2 TBLite/Diag 0.40E+00    0.0     0.00002779       -59.7019039399 -5.97E-09
     3 TBLite/Diag 0.40E+00    0.0     0.00000698       -59.7019039400 -1.24E-10
     4 TBLite/Diag 0.40E+00    0.0     0.00000511       -59.7019039400 -2.55E-11
     5 TBLite/Diag 0.40E+00    0.0     0.00000181       -59.7019039400 -1.38E-11
     6 TBLite/Diag 0.40E+00    0.0     0.00000052       -59.7019039400 -4.62E-13
     7 TBLite/Diag 0.40E+00    0.0     0.00000002       -59.7019039400  2.84E-14
     8 TBLite/Diag 0.40E+00    0.0     0.00000001       -59.7019039400 -1.07E-13
     9 TBLite/Diag 0.40E+00    0.0     6.5209E-10       -59.7019039400  1.21E-13

  *** SCF run converged in     9 steps ***


  Core Hamiltonian energy:                                    -60.43786483217266
  Repulsive potential energy:                                   0.69261394862892
  Electrostatic energy:                                         0.11807401021479
  Self-consistent dispersion energy:                            0.00000000000000
  Non-self consistent dispersion energy:                       -0.07472706669275
  Correction for halogen bonding:                               0.00000000000000
  Electronic entropic energy:                                  -0.00000000000000
  Fermi energy:                                                -0.30680632644724

  Total energy:                                               -59.70190394002170
  Total energy (extrapolated to T->0):                        -59.70190394002170

 ENERGY| Total FORCE_EVAL ( QS ) energy [hartree]            -59.701903940021701

 OPT| **************************************************************************
 OPT| Step number                                                            117
 OPT| Optimization method                                                   BFGS
 OPT| Total energy [hartree]                                      -59.7019039400
 OPT| Internal pressure [bar]                                      -8.5096061543
 OPT| Effective energy change [hartree]                            -0.0000001388
 OPT| Predicted energy change [hartree]                            -0.0000002708
 OPT| Scaling factor                                                0.6335559717
 OPT| Step size                                                     0.0019697472
 OPT| Trust radius                                                  0.4724315332
 OPT| Decrease in energy                                                     YES
 OPT| Used time [s]                                                        0.252
 OPT|
 OPT| Maximum step size                                             0.0019697472
 OPT| Convergence limit for maximum step size                       0.0030000000
 OPT| Maximum step size is converged                                         YES
 OPT|
 OPT| RMS step size                                                 0.0006461819
 OPT| Convergence limit for RMS step size                           0.0015000000
 OPT| RMS step size is converged                                             YES
 OPT|
 OPT| Maximum gradient                                              0.0000703404
 OPT| Convergence limit for maximum gradient                        0.0004500000
 OPT| Maximum gradient is converged                                          YES
 OPT|
 OPT| RMS gradient                                                  0.0000311851
 OPT| Convergence limit for RMS gradient                            0.0003000000
 OPT| RMS gradient is converged                                              YES
 OPT|
 OPT| Pressure deviation [bar]                                     -8.5096061543
 OPT| Pressure tolerance [bar]                                    100.0000000000
 OPT| Pressure is converged                                                  YES
 OPT| **************************************************************************
 OPT| Estimated peak process memory after this step [MiB]                    172

 *******************************************************************************
 ***                    GEOMETRY OPTIMIZATION COMPLETED                      ***
 *******************************************************************************

 write_final_structure: Optimization converged, writing XYZ file gladly:
  imidazole_GFN1_gamma_cell_opt-FINAL-1_117.xyz

 write_final_structure: Optimization converged, writing CIF file gladly:
  imidazole_GFN1_gamma_cell_opt-FINAL-1_117.cif

 write_final_structure: Done!

                    Reevaluating energy at the minimum

 CELL| Volume [angstrom^3]:                                           278.504417
 CELL| Vector a [angstrom]:       8.429     0.000     0.000   |a| =     8.428628
 CELL| Vector b [angstrom]:       0.000     3.588     0.000   |b| =     3.588432
 CELL| Vector c [angstrom]:      -3.217    -0.000     9.208   |c| =     9.753770
 CELL| Angle (b,c), alpha [degree]:                                    90.000000
 CELL| Angle (a,c), beta  [degree]:                                   109.255683
 CELL| Angle (a,b), gamma [degree]:                                    90.000000
 CELL| Numerically orthorhombic:                                              NO
 CELL| Periodicity                                                           XYZ

 Extrapolation method: ASPC

 Number of electrons:                                                        104
 Number of occupied orbitals:                                                 52
 Number of molecular orbitals:                                               112

 Number of orbital functions:                                                112
 Number of independent orbital functions:                                    112


 SCF WAVEFUNCTION OPTIMIZATION

  Step     Update method      Time    Convergence         Total energy    Change
  ------------------------------------------------------------------------------
     1 TBLite/Diag 0.40E+00    0.0     2.5300E-10       -59.7019039400 -5.97E+01

  *** SCF run converged in     1 steps ***


  Core Hamiltonian energy:                                    -60.43786483217541
  Repulsive potential energy:                                   0.69261394862892
  Electrostatic energy:                                         0.11807401021751
  Self-consistent dispersion energy:                            0.00000000000000
  Non-self consistent dispersion energy:                       -0.07472706669275
  Correction for halogen bonding:                               0.00000000000000
  Electronic entropic energy:                                  -0.00000000000000
  Fermi energy:                                                -0.30680632647947

  Total energy:                                               -59.70190394002172
  Total energy (extrapolated to T->0):                        -59.70190394002172

 ENERGY| Total FORCE_EVAL ( QS ) energy [hartree]            -59.701903940021722

 -------------------------------------------------------------------------------
 -                                                                             -
 -                                DBCSR STATISTICS                             -
 -                                                                             -
 -------------------------------------------------------------------------------
 COUNTER                                    TOTAL       BLAS       SMM       ACC
 flops     2 x    16 x     2             19005440       0.0%    100.0%      0.0%     
 flops     2 x    16 x     4             47513600       0.0%    100.0%      0.0%     
 flops     4 x    16 x     2             47513600       0.0%    100.0%      0.0%     
 flops     2 x    32 x     2            114032640       0.0%    100.0%      0.0%     
 flops     4 x    16 x     4            118784000       0.0%    100.0%      0.0%     
 flops     2 x     2 x   112            187292672       0.0%    100.0%      0.0%     
 flops     4 x    32 x     2            285081600       0.0%    100.0%      0.0%     
 flops     2 x    32 x     4            285081600       0.0%    100.0%      0.0%     
 flops     2 x     4 x   112            440688640       0.0%    100.0%      0.0%     
 flops     4 x     2 x   112            440688640       0.0%    100.0%      0.0%     
 flops     4 x    32 x     4            712704000       0.0%    100.0%      0.0%     
 flops     4 x     4 x   112           1156807680       0.0%    100.0%      0.0%     
 flops inhomo. stacks                           0       0.0%      0.0%      0.0%
 flops total                         3.855194E+09       0.0%    100.0%      0.0%
 flops max/rank                      3.855194E+09       0.0%    100.0%      0.0%
 matmuls inhomo. stacks                         0       0.0%      0.0%      0.0%
 matmuls total                            4030362       0.0%    100.0%      0.0%
 number of processed stacks                 11948       0.0%    100.0%      0.0%
 average stack size                                     0.0     337.3       0.0
 marketing flops                     3.634850E+09
 -------------------------------------------------------------------------------
 # multiplications                           2117
 max memory usage/rank              13.675405E+09
 # max total images/rank                        1
 # max 3D layers                                1
 # MPI messages exchanged                       0
 -------------------------------------------------------------------------------
 -                                                                             -
 -                      DBCSR MESSAGE PASSING PERFORMANCE                      -
 -                                                                             -
 -------------------------------------------------------------------------------
 ROUTINE             CALLS      AVE VOLUME [Bytes]
 MP_Bcast               13                     12.
 MP_Allreduce         9468                      8.
 MP_Alltoall         67996                  66922.
 MP_ISend             8468                   6036.
 MP_IRecv             8468                   6036.
 -------------------------------------------------------------------------------

 -------------------------------------------------------------------------------
 -                                                                             -
 -                          OFFLOAD MEMPOOL STATISTICS                         -
 -                                                                             -
 -------------------------------------------------------------------------------
 Memory consumption                Number of allocations  Used [MiB]  Size [MiB]
 Device                                                1           0           0
 Host                                                  1           0           0
 -------------------------------------------------------------------------------

 MEMORY| Estimated peak process memory [MiB]                                 172

 -------------------------------------------------------------------------------
 -                                                                             -
 -                         MESSAGE PASSING PERFORMANCE                         -
 -                                                                             -
 -------------------------------------------------------------------------------

 ROUTINE             CALLS      AVE VOLUME [Bytes]
 MP_Group              118
 MP_Bcast             3072                    451.
 MP_Allreduce        24248                    248.
 MP_Sync              1654
 MP_comm_split        1536
 -------------------------------------------------------------------------------


 -------------------------------------------------------------------------------
 -                                                                             -
 -                           R E F E R E N C E S                               -
 -                                                                             -
 -------------------------------------------------------------------------------
 
 CP2K version 2026.1 (Development Version), the CP2K developers group (2026).
 CP2K is freely available from https://www.cp2k.org/ .
 
 M. Iannuzzi, J. Wilhelm, F. Stein, A. Bussy, H. Elgabarty, D. Golze, A. Hehn, 
 M. Graml, S. Marek, B. Sertcan Gökmen, C. Schran, H. Forbert, R. Z. 
 Khaliullin, A. Kozhevnikov, M. Taillefumier, R. Meli, V. V. Rybkin, M. Brehm, 
 R. Schade, O. Schütt, J. V. Pototschnig, H. Mirhosseini, A. Knüpfer, D. Marx, 
 M. Krack, J. Hutter, T. D. Kühne.
 J. Phys. Chem. B 130, 1237-1310 (2026).
 The CP2K Program Package Made Simple.
 https://doi.org/10.1021/acs.jpcb.5c05851

 A. Katbashev, M. Stahn, T. Rose, V. Alizadeh, M. Friede, C. Plett, P. 
 Steinbach, S. Ehlert.
 J. Phys. Chem. A 129, 2667-2682 (2025).
 Overview on Building Blocks and Applications of Efficient and Robust Extended 
 Tight Binding.
 https://doi.org/10.1021/acs.jpca.4c08263

 T. D. Kühne, M. Iannuzzi, M. Del Ben, V. V. Rybkin, P. Seewald, F. Stein, T. 
 Laino, R. Z. Khaliullin, O. Schütt, F. Schiffmann, D. Golze, J. Wilhelm, S. 
 Chulkov, M. H. Bani-Hashemian, V. Weber, U. Borstnik, M. Taillefumier, A. S. 
 Jakobovits, A. Lazzaro, H. Pabst, T. Müller, R. Schade, M. Guidon, S. 
 Andermatt, N. Holmberg, G. K. Schenter, A. Hehn, A. Bussy, F. Belleflamme, G. 
 Tabacchi, A. Glöß, M. Lass, I. Bethune, C. J. Mundy, C. Plessl, M. Watkins, 
 J. VandeVondele, M. Krack, J. Hutter.
 J. Chem. Phys. 152, 194103 (2020).
 CP2K: An electronic structure and molecular dynamics software package - 
 Quickstep: Efficient and accurate electronic structure calculations.
 https://doi.org/10.1063/5.0007045

 P. Pracht, E. Caldeweyher, S. Ehlert, S. Grimme.
 ChemRxiv, (2019).
 A Robust Non-Self-Consistent Tight-Binding Quantum Chemistry Method for large 
 Molecules.
 https://doi.org/10.26434/chemrxiv.8326202.v1

 S. Grimme, C. Bannwarth, P. Shushkov.
 J. Chem. Theory Comput. 13, 1989 (2017).
 A Robust and Accurate Tight-Binding Quantum Chemical Method for Structures, 
 Vibrational Frequencies, and Noncovalent Interactions of Large Molecular 
 Systems Parametrized for All spd-Block Elements (Z = 1-86).
 https://doi.org/10.1021/acs.jctc.7b00118

 O. Schuett, P. Messmer, J. Hutter, J. VandeVondele.
 Electronic Structure Calculations on Graphics Processing Units, 173-190 (2016).
 GPU-Accelerated Sparse Matrix-Matrix Multiplication for Linear Scaling Density 
 Functional Theory.
 https://doi.org/10.1002/9781118670712.ch8

 A. Heinecke, G. Henry, M. Hutchinson, H. Pabst.
 Proceedings of Intl. Supercomputing Conference, 981-991 (2016).
 LIBXSMM: Accelerating Small Matrix Multiplications by Runtime Code Generation.
 https://doi.org/10.1109/SC.2016.83

 U. Borstnik, J. VandeVondele, V. Weber, J. Hutter.
 Parallel Comput. 40, 47-58 (2014).
 Sparse matrix multiplication: The distributed block-compressed sparse row 
 library.
 https://doi.org/10.1016/j.parco.2014.03.012

 T. D. Kühne, M. Krack, F. R. Mohamed, M. Parrinello.
 Phys. Rev. Lett. 98, 066401 (2007).
 Efficient and accurate Car-Parrinello-like approach to Born-Oppenheimer 
 molecular dynamics.
 https://doi.org/10.1103/PhysRevLett.98.066401

 M. Frigo, S. G. Johnson.
 Proc. IEEE 93, 216-231 (2005).
 The design and implementation of FFTW3.
 https://doi.org/10.1109/JPROC.2004.840301

 J. Kolafa.
 J. Comput. Chem. 25, 335-342 (2004).
 Time-reversible always stable predictor-corrector method for molecular dynamics 
 of polarizable molecules.
 https://doi.org/10.1002/jcc.10385

 N. D. Mermin.
 Phys. Rev. 137, A1441-A1443 (1965).
 Thermal Properties of the Inhomogeneous Electron Gas.
 https://doi.org/10.1103/PhysRev.137.A1441


 -------------------------------------------------------------------------------
 -                                                                             -
 -                                T I M I N G                                  -
 -                                                                             -
 -------------------------------------------------------------------------------
 SUBROUTINE                       CALLS  ASD         SELF TIME        TOTAL TIME
                                MAXIMUM       AVERAGE  MAXIMUM  AVERAGE  MAXIMUM
 CP2K                                 1  1.0    0.002    0.002   47.320   47.320
 cp_cell_opt                          1  2.0    0.000    0.000   47.312   47.312
 geoopt_bfgs                          1  3.0    0.015    0.015   47.312   47.312
 cp_eval_at                         119  4.0    0.014    0.014   47.041   47.041
 qs_forces                          118  5.0    0.008    0.008   46.969   46.969
 build_tblite_matrices              237  7.0   20.333   20.333   20.543   20.543
 rebuild_ks_matrix                 1419  9.7    0.001    0.001   18.974   18.974
 build_tblite_ks_matrix            1419 10.7   18.955   18.955   18.972   18.972
 qs_ks_update_qs_env_forces         118  6.0    0.000    0.000   18.542   18.542
 qs_energies                        119  6.0    0.004    0.004   16.351   16.351
 qs_energies_init_hamiltonians      119  7.0    0.001    0.001    8.744    8.744
 scf_env_do_scf                     119  7.0    0.002    0.002    6.209    6.209
 scf_env_do_scf_inner_loop         1301  8.0    0.161    0.161    6.197    6.197
 qs_scf_new_mos                    1301  9.0    0.007    0.007    5.255    5.255
 eigensolver                       1301 10.0    0.024    0.024    2.101    2.101
 cp_fm_syevd                       1536 10.6    0.004    0.004    1.929    1.929
 cp_fm_syevd_base                  1536 11.6    1.808    1.808    1.808    1.808
 cp_dbcsr_plus_fm_fm_t             1537 10.8    0.010    0.010    1.691    1.691
 calculate_dm_sparse               1419 10.0    0.007    0.007    1.583    1.583
 dbcsr_multiply_generic            2117 12.0    0.052    0.052    1.488    1.488
 dbcsr_complete_redistribute       6836 12.2    1.110    1.110    1.425    1.425
 copy_dbcsr_to_fm                  3182 10.6    0.020    0.020    1.342    1.342
 init_scf_run                       119  7.0    0.001    0.001    1.192    1.192
 scf_env_initial_rho_setup          119  8.0    0.001    0.001    1.120    1.120
 wfi_extrapolate                    119  9.0    0.004    0.004    1.118    1.118
 qs_diis_b_step                    1182 10.0    0.009    0.009    0.974    0.974
 -------------------------------------------------------------------------------

 The number of warnings for this run is : 0
 
 -------------------------------------------------------------------------------
  **** **** ******  **  PROGRAM ENDED AT                 2026-05-23 22:47:39.653
 ***** ** ***  *** **   PROGRAM RAN ON                                spark-c86c
 **    ****   ******    PROGRAM RAN BY                                  kuehne88
 ***** **    ** ** **   PROGRAM PROCESS ID                               2265591
  **** **  *******  **  PROGRAM STOPPED IN /home/kuehne88/periodic-gfn2-benchmar
                                           ks/X23b/runs/cellopt_gamma/GFN1/imida
                                           zole_GFN1_gamma_cellopt
