 DBCSR| CPU Multiplication driver                                           XSMM (U)
 DBCSR| Multrec recursion limit                                              512 (U)
 DBCSR| Multiplication stack size                                           1000 (D)
 DBCSR| Maximum elements for images                                    UNLIMITED (U)
 DBCSR| Multiplicative factor virtual images                                   1 (U)
 DBCSR| Use multiplication densification                                       T (D)
 DBCSR| Multiplication size stacks                                             3 (U)
 DBCSR| Use memory pool for CPU allocation                                     F (U)
 DBCSR| Number of 3D layers                                               SINGLE (U)
 DBCSR| Use MPI memory allocation                                              F (U)
 DBCSR| Use RMA algorithm                                                      F (U)
 DBCSR| Use Communication thread                                               T (U)
 DBCSR| Communication thread load                                             87 (D)
 DBCSR| MPI: My process id                                                     0
 DBCSR| MPI: Number of processes                                               1
 DBCSR| OMP: Current number of threads                                         1
 DBCSR| OMP: Max number of threads                                             1
 DBCSR| Split modifier for TAS multiplication algorithm                  1.0E+00 (U)


  **** **** ******  **  PROGRAM STARTED AT               2026-05-23 22:46:21.135
 ***** ** ***  *** **   PROGRAM STARTED ON                            spark-c86c
 **    ****   ******    PROGRAM STARTED BY                              kuehne88
 ***** **    ** ** **   PROGRAM PROCESS ID                               2231633
  **** **  *******  **  PROGRAM STARTED IN /home/kuehne88/periodic-gfn2-benchmar
                                           ks/X23b/runs/crystal_sp/gamma/GFN1/cy
                                           tosine_GFN1_gamma_sp

 CP2K| version string:                 CP2K version 2026.1 (Development Version)
 CP2K| source code revision number:                                   0622d442e4
 CP2K| cp2kflags: omp fftw3 libxc parallel scalapack mpi_f08 xsmm spglib libdftd
 CP2K|            4 dftd4_v3 mctc-lib tblite
 CP2K| is freely available from                            https://www.cp2k.org/
 CP2K| Program compiled at                                   2026-05-23 22:05:08
 CP2K| Program compiled on                                            spark-c86c
 CP2K| Program compiled for                                              aarch64
 CP2K| Data directory path    /home/kuehne88/cp2k-master-tblite-20260523/install
 CP2K| Input file name                                cytosine_GFN1_gamma_sp.inp

 GLOBAL| Force Environment number                                              1
 GLOBAL| Basis set file name                                           BASIS_SET
 GLOBAL| Potential file name                                           POTENTIAL
 GLOBAL| MM Potential file name                                     MM_POTENTIAL
 GLOBAL| Coordinate file name                                      __STD_INPUT__
 GLOBAL| Method name                                                        CP2K
 GLOBAL| Project name                                 cytosine_GFN1_gamma_energy
 GLOBAL| Run type                                                         ENERGY
 GLOBAL| FFT library                                                       FFTW3
 GLOBAL| Diagonalization library                                       ScaLAPACK
 GLOBAL| Cholesky decomposition library                                ScaLAPACK
 GLOBAL| DGEMM library                                                      BLAS
 GLOBAL| Direct generalized diagonalization requested                          F
 GLOBAL| Orthonormality check for eigenvectors                          DISABLED
 GLOBAL| Matrix multiplication library                                 ScaLAPACK
 GLOBAL| All-to-all communication in single precision                          F
 GLOBAL| FFTs using library dependent lengths                                  F
 GLOBAL| Grid backend                                                       AUTO
 GLOBAL| Global print level                                                  LOW
 GLOBAL| MPI I/O enabled                                                       T
 GLOBAL| Total number of message passing processes                             1
 GLOBAL| Number of distributed systems (nodes)                                 1
 GLOBAL| Number of threads for this process                                    1
 GLOBAL| This output is from process                                           0
 GLOBAL| OpenMP stack size per thread (OMP_STACKSIZE)                    default
 GLOBAL| CPU model name                                                  UNKNOWN
 GLOBAL| CPUID                                                              2200
 GLOBAL| Compiled for CPUID                                                 2000

 *** HINT in environment.F:970 :: The compiler target flags (arm_arch64)   ***
 *** used to build this binary cannot exploit all extensions of this CPU   ***
 *** model (arm_sve256). Consider compiler target flags as part of FCFLAGS ***
 *** and CFLAGS (ARCH file).                                               ***


 MEMORY| system memory details [Kb]
 MEMORY|                        rank 0           min           max       average
 MEMORY| MemTotal            125508532     125508532     125508532     125508532
 MEMORY| MemFree             105717200     105717200     105717200     105717200
 MEMORY| Buffers                866548        866548        866548        866548
 MEMORY| Cached               13219136      13219136      13219136      13219136
 MEMORY| Slab                  1565136       1565136       1565136       1565136
 MEMORY| SReclaimable           889112        889112        889112        889112
 MEMORY| MemLikelyFree       120691996     120691996     120691996     120691996


 GENERATE|  Preliminary Number of Bonds generated:                             0
 GENERATE|  Achieved consistency in connectivity generation.


                  #####   #####        #     #   #     #       #          
                 #     # #     #      #    ##### #     #   # #####  ####  
                 #     # #           #       #   ###   #       #   #    # 
                 #     #  #####     #        #   #  #  #   #   #   ###### 
                 #   # #       #   #         #   #   # #   #   #   #      
                 #    #  #     #  #          #   #  #  # # #   #    #   # 
                  #### #  #####  #           #   ###   ##  #   #     ###  

                                   GFN1-xTB  
                                 Version 0.0                       
                            Johann V. Pototschnig                  



 TOTAL NUMBERS AND MAXIMUM NUMBERS

  Total number of            - Atomic kinds:                                   4
                             - Atoms:                                         52
                             - Shell sets:                                   104
                             - Shells:                                       104
                             - Primitive Cartesian functions:                604
                             - Cartesian basis functions:                    168
                             - Spherical basis functions:                    168

  Maximum angular momentum of the orbital basis functions:                     1


 SCF PARAMETERS         Density guess:                                     MOPAC
                        --------------------------------------------------------
                        max_scf:                                             300
                        max_scf_history:                                       0
                        max_diis:                                              4
                        --------------------------------------------------------
                        eps_scf:                                        1.00E-09
                        eps_scf_history:                                0.00E+00
                        eps_diis:                                       1.00E-01
                        eps_eigval:                                     1.00E-05
                        --------------------------------------------------------
                        level_shift [a.u.]:                             0.000000
                        added MOs                                        84    0
                        --------------------------------------------------------
                        Mixing method:                           DIRECT_P_MIXING
                        --------------------------------------------------------
                        Smear method:                                FERMI_DIRAC
                        Electronic temperature [K]:                        300.0
                        Electronic temperature [a.u.]:                  9.50E-04
                        Accuracy threshold:                             1.00E-06
                        --------------------------------------------------------
                        No outer SCF

 Extrapolation method: initial_guess

 Number of electrons:                                                        168
 Number of occupied orbitals:                                                 84
 Number of molecular orbitals:                                               168

 Number of orbital functions:                                                168
 Number of independent orbital functions:                                    168


 SCF WAVEFUNCTION OPTIMIZATION

  Step     Update method      Time    Convergence         Total energy    Change
  ------------------------------------------------------------------------------
     1 TBLite/Diag 0.40E+00    0.0     1.60103768      -100.3273101353 -1.00E+02
     2 TBLite/Diag 0.40E+00    0.0     0.27688601      -101.7058580229 -1.38E+00
     3 TBLite/Diag 0.40E+00    0.0     0.08980372      -101.7333657028 -2.75E-02
     4 TBLite/Diag 0.40E+00    0.0     0.03109067      -101.7368957200 -3.53E-03
     5 TBLite/Diag 0.40E+00    0.0     0.02415082      -101.7388368198 -1.94E-03
     6 TBLite/Diag 0.40E+00    0.0     0.00699259      -101.7390993612 -2.63E-04
     7 TBLite/Diag 0.40E+00    0.0     0.00167935      -101.7391443570 -4.50E-05
     8 TBLite/Diag 0.40E+00    0.0     0.00032884      -101.7391455117 -1.15E-06
     9 TBLite/Diag 0.40E+00    0.0     0.00008156      -101.7391455951 -8.34E-08
    10 TBLite/Diag 0.40E+00    0.0     0.00001589      -101.7391455977 -2.62E-09
    11 TBLite/Diag 0.40E+00    0.0     0.00000229      -101.7391455978 -5.33E-11
    12 TBLite/Diag 0.40E+00    0.0     0.00000085      -101.7391455978 -7.26E-12
    13 TBLite/Diag 0.40E+00    0.0     0.00000030      -101.7391455978 -4.26E-13
    14 TBLite/Diag 0.40E+00    0.0     0.00000005      -101.7391455978 -1.14E-13
    15 TBLite/Diag 0.40E+00    0.0     0.00000005      -101.7391455978  1.42E-14
    16 TBLite/Diag 0.40E+00    0.0     0.00000002      -101.7391455978  0.00E+00
    17 TBLite/Diag 0.40E+00    0.0     7.4633E-09      -101.7391455978  9.95E-14
    18 TBLite/Diag 0.40E+00    0.0     8.5890E-11      -101.7391455978 -1.28E-13

  *** SCF run converged in    18 steps ***


  Core Hamiltonian energy:                                   -103.73404523726671
  Repulsive potential energy:                                   1.68204161255211
  Electrostatic energy:                                         0.41935039387772
  Self-consistent dispersion energy:                            0.00000000000000
  Non-self consistent dispersion energy:                       -0.10649236697123
  Correction for halogen bonding:                               0.00000000000000
  Electronic entropic energy:                                  -0.00000000000000
  Fermi energy:                                                -0.32635925580845

  Total energy:                                              -101.73914559780810
  Total energy (extrapolated to T->0):                       -101.73914559780810

 ENERGY| Total FORCE_EVAL ( QS ) energy [hartree]           -101.739145597808104

 -------------------------------------------------------------------------------
 -                                                                             -
 -                                DBCSR STATISTICS                             -
 -                                                                             -
 -------------------------------------------------------------------------------
 COUNTER                                    TOTAL       BLAS       SMM       ACC
 flops     2 x     2 x   168              5080320       0.0%    100.0%      0.0%     
 flops     2 x     4 x   168             15482880       0.0%    100.0%      0.0%     
 flops     4 x     2 x   168             15482880       0.0%    100.0%      0.0%     
 flops     4 x     4 x   168             51093504       0.0%    100.0%      0.0%     
 flops inhomo. stacks                           0       0.0%      0.0%      0.0%
 flops total                        87.139584E+06       0.0%    100.0%      0.0%
 flops max/rank                     87.139584E+06       0.0%    100.0%      0.0%
 matmuls inhomo. stacks                         0       0.0%      0.0%      0.0%
 matmuls total                              24804       0.0%    100.0%      0.0%
 number of processed stacks                    72       0.0%    100.0%      0.0%
 average stack size                                     0.0     344.5       0.0
 marketing flops                    85.349376E+06
 -------------------------------------------------------------------------------
 # multiplications                             18
 max memory usage/rank              13.677543E+09
 # max total images/rank                        1
 # max 3D layers                                1
 # MPI messages exchanged                       0
 -------------------------------------------------------------------------------
 -                                                                             -
 -                      DBCSR MESSAGE PASSING PERFORMANCE                      -
 -                                                                             -
 -------------------------------------------------------------------------------
 ROUTINE             CALLS      AVE VOLUME [Bytes]
 MP_Bcast                5                     12.
 MP_Allreduce          117                     12.
 MP_Alltoall           720                 155613.
 MP_ISend               72                   6240.
 MP_IRecv               72                   6240.
 -------------------------------------------------------------------------------

 -------------------------------------------------------------------------------
 -                                                                             -
 -                          OFFLOAD MEMPOOL STATISTICS                         -
 -                                                                             -
 -------------------------------------------------------------------------------
 Memory consumption                Number of allocations  Used [MiB]  Size [MiB]
 Device                                                1           0           0
 Host                                                  1           0           0
 -------------------------------------------------------------------------------

 MEMORY| Estimated peak process memory [MiB]                                 171

 -------------------------------------------------------------------------------
 -                                                                             -
 -                         MESSAGE PASSING PERFORMANCE                         -
 -                                                                             -
 -------------------------------------------------------------------------------

 ROUTINE             CALLS      AVE VOLUME [Bytes]
 MP_Group                1
 MP_Bcast               36                    674.
 MP_Allreduce          199                    316.
 MP_Sync                19
 MP_comm_split          18
 -------------------------------------------------------------------------------


 -------------------------------------------------------------------------------
 -                                                                             -
 -                           R E F E R E N C E S                               -
 -                                                                             -
 -------------------------------------------------------------------------------
 
 CP2K version 2026.1 (Development Version), the CP2K developers group (2026).
 CP2K is freely available from https://www.cp2k.org/ .
 
 M. Iannuzzi, J. Wilhelm, F. Stein, A. Bussy, H. Elgabarty, D. Golze, A. Hehn, 
 M. Graml, S. Marek, B. Sertcan Gökmen, C. Schran, H. Forbert, R. Z. 
 Khaliullin, A. Kozhevnikov, M. Taillefumier, R. Meli, V. V. Rybkin, M. Brehm, 
 R. Schade, O. Schütt, J. V. Pototschnig, H. Mirhosseini, A. Knüpfer, D. Marx, 
 M. Krack, J. Hutter, T. D. Kühne.
 J. Phys. Chem. B 130, 1237-1310 (2026).
 The CP2K Program Package Made Simple.
 https://doi.org/10.1021/acs.jpcb.5c05851

 A. Katbashev, M. Stahn, T. Rose, V. Alizadeh, M. Friede, C. Plett, P. 
 Steinbach, S. Ehlert.
 J. Phys. Chem. A 129, 2667-2682 (2025).
 Overview on Building Blocks and Applications of Efficient and Robust Extended 
 Tight Binding.
 https://doi.org/10.1021/acs.jpca.4c08263

 T. D. Kühne, M. Iannuzzi, M. Del Ben, V. V. Rybkin, P. Seewald, F. Stein, T. 
 Laino, R. Z. Khaliullin, O. Schütt, F. Schiffmann, D. Golze, J. Wilhelm, S. 
 Chulkov, M. H. Bani-Hashemian, V. Weber, U. Borstnik, M. Taillefumier, A. S. 
 Jakobovits, A. Lazzaro, H. Pabst, T. Müller, R. Schade, M. Guidon, S. 
 Andermatt, N. Holmberg, G. K. Schenter, A. Hehn, A. Bussy, F. Belleflamme, G. 
 Tabacchi, A. Glöß, M. Lass, I. Bethune, C. J. Mundy, C. Plessl, M. Watkins, 
 J. VandeVondele, M. Krack, J. Hutter.
 J. Chem. Phys. 152, 194103 (2020).
 CP2K: An electronic structure and molecular dynamics software package - 
 Quickstep: Efficient and accurate electronic structure calculations.
 https://doi.org/10.1063/5.0007045

 P. Pracht, E. Caldeweyher, S. Ehlert, S. Grimme.
 ChemRxiv, (2019).
 A Robust Non-Self-Consistent Tight-Binding Quantum Chemistry Method for large 
 Molecules.
 https://doi.org/10.26434/chemrxiv.8326202.v1

 S. Grimme, C. Bannwarth, P. Shushkov.
 J. Chem. Theory Comput. 13, 1989 (2017).
 A Robust and Accurate Tight-Binding Quantum Chemical Method for Structures, 
 Vibrational Frequencies, and Noncovalent Interactions of Large Molecular 
 Systems Parametrized for All spd-Block Elements (Z = 1-86).
 https://doi.org/10.1021/acs.jctc.7b00118

 O. Schuett, P. Messmer, J. Hutter, J. VandeVondele.
 Electronic Structure Calculations on Graphics Processing Units, 173-190 (2016).
 GPU-Accelerated Sparse Matrix-Matrix Multiplication for Linear Scaling Density 
 Functional Theory.
 https://doi.org/10.1002/9781118670712.ch8

 A. Heinecke, G. Henry, M. Hutchinson, H. Pabst.
 Proceedings of Intl. Supercomputing Conference, 981-991 (2016).
 LIBXSMM: Accelerating Small Matrix Multiplications by Runtime Code Generation.
 https://doi.org/10.1109/SC.2016.83

 U. Borstnik, J. VandeVondele, V. Weber, J. Hutter.
 Parallel Comput. 40, 47-58 (2014).
 Sparse matrix multiplication: The distributed block-compressed sparse row 
 library.
 https://doi.org/10.1016/j.parco.2014.03.012

 M. Frigo, S. G. Johnson.
 Proc. IEEE 93, 216-231 (2005).
 The design and implementation of FFTW3.
 https://doi.org/10.1109/JPROC.2004.840301

 N. D. Mermin.
 Phys. Rev. 137, A1441-A1443 (1965).
 Thermal Properties of the Inhomogeneous Electron Gas.
 https://doi.org/10.1103/PhysRev.137.A1441


 -------------------------------------------------------------------------------
 -                                                                             -
 -                                T I M I N G                                  -
 -                                                                             -
 -------------------------------------------------------------------------------
 SUBROUTINE                       CALLS  ASD         SELF TIME        TOTAL TIME
                                MAXIMUM       AVERAGE  MAXIMUM  AVERAGE  MAXIMUM
 CP2K                                 1  1.0    0.002    0.002    0.195    0.195
 qs_energies                          1  2.0    0.000    0.000    0.189    0.189
 scf_env_do_scf                       1  3.0    0.000    0.000    0.114    0.114
 scf_env_do_scf_inner_loop           18  4.0    0.003    0.003    0.114    0.114
 qs_scf_new_mos                      18  5.0    0.000    0.000    0.099    0.099
 qs_energies_init_hamiltonians        1  3.0    0.000    0.000    0.072    0.072
 build_tblite_matrices                1  4.0    0.069    0.069    0.070    0.070
 eigensolver                         18  6.0    0.000    0.000    0.042    0.042
 cp_fm_syevd                         18  7.0    0.000    0.000    0.033    0.033
 cp_fm_syevd_base                    18  8.0    0.031    0.031    0.031    0.031
 calculate_dm_sparse                 18  6.0    0.000    0.000    0.026    0.026
 cp_dbcsr_plus_fm_fm_t               18  7.0    0.000    0.000    0.026    0.026
 dbcsr_complete_redistribute         72  8.2    0.017    0.017    0.022    0.022
 copy_dbcsr_to_fm                    36  6.4    0.000    0.000    0.021    0.021
 qs_diis_b_step                      17  6.0    0.000    0.000    0.019    0.019
 dbcsr_multiply_generic              18  8.0    0.001    0.001    0.016    0.016
 copy_fm_to_dbcsr                    36  8.0    0.000    0.000    0.009    0.009
 qs_ks_update_qs_env                 18  5.0    0.000    0.000    0.009    0.009
 cp_fm_cholesky_restore              54  7.0    0.008    0.008    0.008    0.008
 rebuild_ks_matrix                   18  6.0    0.000    0.000    0.007    0.007
 build_tblite_ks_matrix              18  7.0    0.007    0.007    0.007    0.007
 make_m2s                            36  9.0    0.000    0.000    0.006    0.006
 multiply_cannon                     18  9.0    0.001    0.001    0.006    0.006
 dbcsr_desymmetrize_deep             36  7.4    0.004    0.004    0.006    0.006
 dbcsr_finalize                     246 10.0    0.000    0.000    0.004    0.004
 multiply_cannon_loop                18 10.0    0.000    0.000    0.004    0.004
 multiply_cannon_multrec             18 11.0    0.004    0.004    0.004    0.004
 cp_fm_symm                          34  7.0    0.004    0.004    0.004    0.004
 parallel_gemm_fm_gemm               34  7.0    0.000    0.000    0.004    0.004
 cp_fm_gemm                          34  8.0    0.004    0.004    0.004    0.004
 -------------------------------------------------------------------------------

 The number of warnings for this run is : 0
 
 -------------------------------------------------------------------------------
  **** **** ******  **  PROGRAM ENDED AT                 2026-05-23 22:46:22.008
 ***** ** ***  *** **   PROGRAM RAN ON                                spark-c86c
 **    ****   ******    PROGRAM RAN BY                                  kuehne88
 ***** **    ** ** **   PROGRAM PROCESS ID                               2231633
  **** **  *******  **  PROGRAM STOPPED IN /home/kuehne88/periodic-gfn2-benchmar
                                           ks/X23b/runs/crystal_sp/gamma/GFN1/cy
                                           tosine_GFN1_gamma_sp
