 DBCSR| CPU Multiplication driver                                           BLAS (U)
 DBCSR| Multrec recursion limit                                              512 (U)
 DBCSR| Multiplication stack size                                           1000 (D)
 DBCSR| Maximum elements for images                                    UNLIMITED (U)
 DBCSR| Multiplicative factor virtual images                                   1 (U)
 DBCSR| Use multiplication densification                                       T (D)
 DBCSR| Multiplication size stacks                                             3 (U)
 DBCSR| Use memory pool for CPU allocation                                     F (U)
 DBCSR| Number of 3D layers                                               SINGLE (U)
 DBCSR| Use MPI memory allocation                                              F (U)
 DBCSR| Use RMA algorithm                                                      F (U)
 DBCSR| Use Communication thread                                               T (U)
 DBCSR| Communication thread load                                             87 (D)
 DBCSR| MPI: My process id                                                     0
 DBCSR| MPI: Number of processes                                               1
 DBCSR| OMP: Current number of threads                                         1
 DBCSR| OMP: Max number of threads                                             1
 DBCSR| Split modifier for TAS multiplication algorithm                  1.0E+00 (U)


  **** **** ******  **  PROGRAM STARTED AT               2026-07-21 17:58:16.158
 ***** ** ***  *** **   PROGRAM STARTED ON                                 terok
 **    ****   ******    PROGRAM STARTED BY                              kuehne88
 ***** **    ** ** **   PROGRAM PROCESS ID                               1533294
  **** **  *******  **  PROGRAM STARTED IN /home/kuehne88/work/h2o-molecular-lim
                                           it-fix-20260721/stress/raw/H2O_stress
                                           _L12

 CP2K| version string:                 CP2K version 2026.2 (Development Version)
 CP2K| source code revision number:                                    8520b2e59
 CP2K| cp2kflags: omp parallel scalapack spglib s_dftd3 mctc-lib tblite tblite_g
 CP2K|            xtb
 CP2K| is freely available from                            https://www.cp2k.org/
 CP2K| Program compiled at                                   2026-07-18 23:48:15
 CP2K| Program compiled on                                                 terok
 CP2K| Program compiled for                                               x86_64
 CP2K| Data directory path                            /usr/local/share/cp2k/data
 CP2K| Input file name        /home/kuehne88/work/h2o-molecular-limit-fix-202607

 GLOBAL| Force Environment number                                              1
 GLOBAL| Basis set file name                                           BASIS_SET
 GLOBAL| Potential file name                                           POTENTIAL
 GLOBAL| MM Potential file name                                     MM_POTENTIAL
 GLOBAL| Coordinate file name                                      __STD_INPUT__
 GLOBAL| Method name                                                        CP2K
 GLOBAL| Project name                                             H2O_stress_L12
 GLOBAL| Run type                                                          DEBUG
 GLOBAL| FFT library                                                       FFTW3
 GLOBAL| Diagonalization library                                       ScaLAPACK
 GLOBAL| Cholesky decomposition library                                ScaLAPACK
 GLOBAL| DGEMM library                                                      BLAS
 GLOBAL| Direct generalized diagonalization requested                          F
 GLOBAL| Orthonormality check for eigenvectors                          DISABLED
 GLOBAL| Matrix multiplication library                                 ScaLAPACK
 GLOBAL| All-to-all communication in single precision                          F
 GLOBAL| FFTs using library dependent lengths                                  F
 GLOBAL| Grid backend                                                       AUTO
 GLOBAL| Global print level                                               MEDIUM
 GLOBAL| MPI I/O enabled                                                       T
 GLOBAL| Total number of message passing processes                             1
 GLOBAL| Number of distributed systems (nodes)                                 1
 GLOBAL| Number of threads for this process                                    1
 GLOBAL| This output is from process                                           0
 GLOBAL| OpenMP stack size per thread (OMP_STACKSIZE)                    default
 GLOBAL| CPU model name                                       AMD EPYC Processor
 GLOBAL| CPUID                                                              1002

 MEMORY| system memory details [Kb]
 MEMORY|                        rank 0           min           max       average
 MEMORY| MemTotal            528104804     528104804     528104804     528104804
 MEMORY| MemFree             507910708     507910708     507910708     507910708
 MEMORY| Buffers                    20            20            20            20
 MEMORY| Cached               15188260      15188260      15188260      15188260
 MEMORY| Slab                  2493600       2493600       2493600       2493600
 MEMORY| SReclaimable          1120044       1120044       1120044       1120044
 MEMORY| MemLikelyFree       524219032     524219032     524219032     524219032


 *** WARNING in environment.F:1098 :: FFT library FFTW3 is not available. ***
 *** Trying FFT library FFTSG.                                            ***


 *** Fundamental physical constants (SI units) ***

 *** Literature: B. J. Mohr and B. N. Taylor,
 ***             CODATA recommended values of the fundamental physical
 ***             constants: 2006, Web Version 5.1
 ***             http://physics.nist.gov/constants

 Speed of light in vacuum [m/s]                             2.99792458000000E+08
 Magnetic constant or permeability of vacuum [N/A**2]       1.25663706143592E-06
 Electric constant or permittivity of vacuum [F/m]          8.85418781762039E-12
 Planck constant (h) [J*s]                                  6.62606896000000E-34
 Planck constant (h-bar) [J*s]                              1.05457162825177E-34
 Elementary charge [C]                                      1.60217648700000E-19
 Electron mass [kg]                                         9.10938215000000E-31
 Electron g factor [ ]                                     -2.00231930436220E+00
 Proton mass [kg]                                           1.67262163700000E-27
 Fine-structure constant                                    7.29735253760000E-03
 Rydberg constant [1/m]                                     1.09737315685270E+07
 Avogadro constant [1/mol]                                  6.02214179000000E+23
 Boltzmann constant [J/K]                                   1.38065040000000E-23
 Atomic mass unit [kg]                                      1.66053878200000E-27
 Bohr radius [m]                                            5.29177208590000E-11

 *** Conversion factors ***

 [u] -> [a.u.]                                              1.82288848426455E+03
 [Angstrom] -> [Bohr] = [a.u.]                              1.88972613288564E+00
 [a.u.] = [Bohr] -> [Angstrom]                              5.29177208590000E-01
 [a.u.] -> [s]                                              2.41888432650478E-17
 [a.u.] -> [fs]                                             2.41888432650478E-02
 [a.u.] -> [J]                                              4.35974393937059E-18
 [a.u.] -> [N]                                              8.23872205491840E-08
 [a.u.] -> [K]                                              3.15774647902944E+05
 [a.u.] -> [kJ/mol]                                         2.62549961709828E+03
 [a.u.] -> [kcal/mol]                                       6.27509468713739E+02
 [a.u.] -> [Pa]                                             2.94210107994716E+13
 [a.u.] -> [bar]                                            2.94210107994716E+08
 [a.u.] -> [atm]                                            2.90362800883016E+08
 [a.u.] -> [eV]                                             2.72113838565563E+01
 [a.u.] -> [Hz]                                             6.57968392072181E+15
 [a.u.] -> [1/cm] (wave numbers)                            2.19474631370540E+05
 [a.u./Bohr**2] -> [1/cm]                                   5.14048714338585E+03
 

 CELL| Volume [angstrom^3]:                                          1728.000000
 CELL| Vector a [angstrom]:      12.000     0.000     0.000   |a| =    12.000000
 CELL| Vector b [angstrom]:       0.000    12.000     0.000   |b| =    12.000000
 CELL| Vector c [angstrom]:       0.000     0.000    12.000   |c| =    12.000000
 CELL| Angle (b,c), alpha [degree]:                                    90.000000
 CELL| Angle (a,c), beta  [degree]:                                    90.000000
 CELL| Angle (a,b), gamma [degree]:                                    90.000000
 CELL| Numerically orthorhombic:                                             YES
 CELL| Periodicity                                                           XYZ

 CELL_REF| Volume [angstrom^3]:                                      1728.000000
 CELL_REF| Vector a [angstrom    12.000     0.000     0.000   |a| =    12.000000
 CELL_REF| Vector b [angstrom     0.000    12.000     0.000   |b| =    12.000000
 CELL_REF| Vector c [angstrom     0.000     0.000    12.000   |c| =    12.000000
 CELL_REF| Angle (b,c), alpha [degree]:                                90.000000
 CELL_REF| Angle (a,c), beta  [degree]:                                90.000000
 CELL_REF| Angle (a,b), gamma [degree]:                                90.000000
 CELL_REF| Numerically orthorhombic:                                         YES
 CELL_REF| Periodicity                                                       XYZ

 GENERATE|  Preliminary Number of Bonds generated:                             0
 GENERATE|  Achieved consistency in connectivity generation.


                  #####   #####        #     #   #     #       #          
                 #     # #     #      #    ##### #     #   # #####  ####  
                 #     # #           #       #   ###   #       #   #    # 
                 #     #  #####     #        #   #  #  #   #   #   ###### 
                 #   # #       #   #         #   #   # #   #   #   #      
                 #    #  #     #  #          #   #  #  # # #   #    #   # 
                  #### #  #####  #           #   ###   ##  #   #     ###  

                                     g-xTB   
                                 Version 0.0                       
                            Johann V. Pototschnig                  

                tblite provider: SAVE
                tblite source revision: 15915c9435644eb257178ca8f8bf7220c38b1a84
                g-xTB support: enabled

 xTB| Parameter file                                             xTB1_parameters
 xTB| Basis expansion STO-NG                                                   6
 xTB| Basis expansion STO-NG for Hydrogen                                      4
 xTB| Repulsive pair potential accuracy                               0.1000E-09
 xTB| Repulsive enhancement factor                                      0.000000
 xTB| Halogen interaction potential                                            T
 xTB| Halogen interaction potential cutoff radius                         20.000
 xTB| Nonbonded interactions                                                   F
 xTB| vdW potential type:                                              DFTD3(BJ)
 xTB| D3 Dispersion: Parameter                                         dftd3.dat
 xTB| Huckel constants ks kp kd                        1.850     2.250     2.000
 xTB| Huckel constants ksp k2sh                                  2.080     2.850
 xTB| Mataga-Nishimoto exponent                                            2.000
 xTB| Repulsion potential exponent                                         1.500
 xTB| Coordination number scaling kcn(s) kcn(p) kc     0.006    -0.003    -0.005
 xTB| Electronegativity scaling                                           -0.007
 xTB| Halogen potential scaling kxr kx2                          1.300     0.440
 xTB| SCC mixer:                                                       TBLITE
 xTB| tblite accuracy:                                                 1.000E-01
 xTB| tblite SCC mixer damping:                                            0.400
 xTB| tblite SCC mixer iterations:                                           300
 xTB| tblite SCC mixer memory:                                               300
 xTB| tblite SCC mixer solver:                                         GVD
 xTB| tblite SCC mixer omega0:                                         1.000E-02
 xTB| tblite SCC mixer min weight:                                     1.000E+00
 xTB| tblite SCC mixer max weight:                                     1.000E+05
 xTB| tblite SCC mixer weight factor:                                  1.000E-02




 ATOMIC KIND INFORMATION

  1. Atomic kind: H                                     Number of atoms:       2

     Orbital Basis Set                                                 H _STO-8G

       Number of orbital shell sets:                                           1
       Number of orbital shells:                                               1
       Number of primitive Cartesian functions:                                8
       Number of Cartesian basis functions:                                    1
       Number of spherical basis functions:                                    1
       Norm type:                                                              3

       Normalised Cartesian orbitals:

                        Set   Shell   Orbital            Exponent    Coefficient

                          1       1    1s              337.005012       0.037374
                                                        53.310531       0.063272
                                                        12.208253       0.115774
                                                         3.418827       0.175156
                                                         1.108790       0.218995
                                                         0.478718       0.126311
                                                         0.212137       0.088533
                                                         0.069058       0.001978

     AE Potential information for                                       Hydrogen

       Description:                                       Bare Coulomb Potential
                                                              Full atomic charge

       Gaussian exponent of the core charge distribution:              12.500000
       Electronic configuration (s p d ...):                       1   0   0   0

  2. Atomic kind: O                                     Number of atoms:       1

     Orbital Basis Set                                                 O _STO-6G

       Number of orbital shell sets:                                           2
       Number of orbital shells:                                               2
       Number of primitive Cartesian functions:                               12
       Number of Cartesian basis functions:                                    4
       Number of spherical basis functions:                                    4
       Norm type:                                                              3

       Normalised Cartesian orbitals:

                        Set   Shell   Orbital            Exponent    Coefficient

                          1       1    1s                3.483595      -1.312778
                                                         2.859866       1.114640
                                                         0.740681       0.294469
                                                         0.344927       0.081374
                                                         0.261979       0.039450
                                                         0.094616       0.012404

                          2       1    2px              37.641471       1.473846
                                                         9.713089       1.793230
                                                         3.137177       1.302657
                                                         1.121381       0.632971
                                                         0.398078       0.183037
                                                         0.123048       0.019201
                          2       1    2py              37.641471       1.473846
                                                         9.713089       1.793230
                                                         3.137177       1.302657
                                                         1.121381       0.632971
                                                         0.398078       0.183037
                                                         0.123048       0.019201
                          2       1    2pz              37.641471       1.473846
                                                         9.713089       1.793230
                                                         3.137177       1.302657
                                                         1.121381       0.632971
                                                         0.398078       0.183037
                                                         0.123048       0.019201

     AE Potential information for                                         Oxygen

       Description:                                       Bare Coulomb Potential
                                                             Valence charge only

       Gaussian exponent of the core charge distribution:               3.753049
       Electronic configuration (s p d ...):                       2   4   0   0


 MOLECULE KIND INFORMATION


 All atoms are their own molecule, skipping detailed information


 TOTAL NUMBERS AND MAXIMUM NUMBERS

  Total number of            - Atomic kinds:                                   2
                             - Atoms:                                          3
                             - Shell sets:                                     4
                             - Shells:                                         4
                             - Primitive Cartesian functions:                 28
                             - Cartesian basis functions:                      6
                             - Spherical basis functions:                      6

  Maximum angular momentum of the orbital basis functions:                     1


 MODULE QUICKSTEP: ATOMIC COORDINATES IN ANGSTROM

   Atom Kind Element         X             Y             Z       Z(eff)     Mass
      1    1 H     1     -0.012165      0.000000     -0.932352   1.0000   1.0079
      2    1 H     1      0.875098      0.000000      0.321998   1.0000   1.0079
      3    2 O     8     -0.054364      0.000000      0.038451   6.0000  15.9994



 SCF PARAMETERS         Density guess:                                     MOPAC
                        --------------------------------------------------------
                        max_scf:                                             300
                        max_scf_history:                                       0
                        max_diis:                                              4
                        --------------------------------------------------------
                        eps_scf:                                        1.00E-10
                        eps_scf_history:                                0.00E+00
                        eps_diis:                                       1.00E-01
                        eps_eigval:                                     1.00E-05
                        --------------------------------------------------------
                        level_shift [a.u.]:                             0.000000
                        added MOs                                         2    0
                        --------------------------------------------------------
                        Mixing method:                           DIRECT_P_MIXING
                        --------------------------------------------------------
                        No outer SCF

 PW_GRID| Information for grid number                                          1
 PW_GRID| Cutoff [a.u.]                                                      1.0
 PW_GRID| spherical cutoff:                                                   NO
 PW_GRID|   Bounds   1             -6       5                Points:          12
 PW_GRID|   Bounds   2             -6       5                Points:          12
 PW_GRID|   Bounds   3             -6       5                Points:          12
 PW_GRID| Volume element (a.u.^3)   6.748         Volume (a.u.^3)     11661.1222
 PW_GRID| Grid span                                                    FULLSPACE

 POISSON| Solver                                                        PERIODIC
 POISSON| Periodicity                                                        XYZ

 RS_GRID| Information for grid number                                          1
 RS_GRID|   Bounds   1             -6       5                Points:          12
 RS_GRID|   Bounds   2             -6       5                Points:          12
 RS_GRID|   Bounds   3             -6       5                Points:          12

 Extrapolation method: initial_guess

 Number of electrons:                                                          8
 Number of occupied orbitals:                                                  4
 Number of molecular orbitals:                                                 6

 Number of orbital functions:                                                  6
 Number of independent orbital functions:                                      6


 SCF WAVEFUNCTION OPTIMIZATION

  Step     Update method      Time    Convergence         Total energy    Change
  ------------------------------------------------------------------------------
     1 GXTB-Raw    0.10E+01    0.0     0.74485247       -76.4440929415 -7.64E+01
     2 GXTB-Simple 0.20E+00    0.0     0.05477344       -76.4579217605 -1.38E-02
     3 GXTB-Simple 0.20E+00    0.0     0.03805877       -76.4649562348 -7.03E-03
     4 GXTB-FDIIS  0.10E+01    0.0     0.07752025       -76.4722422085 -7.29E-03
     5 GXTB-FDIIS  0.10E+01    0.0     0.00650647       -76.4722918792 -4.97E-05
     6 GXTB-FDIIS  0.10E+01    0.0     0.00118592       -76.4722924369 -5.58E-07
     7 GXTB-FDIIS  0.10E+01    0.0     0.00006065       -76.4722924388 -1.90E-09
     8 GXTB-FDIIS  0.10E+01    0.0     0.00000540       -76.4722924389 -1.73E-11
     9 GXTB-FDIIS  0.10E+01    0.0     0.00000091       -76.4722924389  7.11E-14
    10 GXTB-FDIIS  0.10E+01    0.0     0.00000056       -76.4722924389 -1.14E-13
    11 GXTB-FDIIS  0.10E+01    0.0     9.9879E-11       -76.4722924389  0.00E+00

  *** SCF run converged in    11 steps ***


  Core Hamiltonian energy:                                     -6.23604109463830
  Repulsive potential energy:                                   0.31817753426361
  Electrostatic energy:                                         0.14909045600935
  Self-consistent dispersion energy:                           -0.00004449498581
  Non-self consistent dispersion energy:                        0.00000029964859
  Correction for halogen bonding:                               0.00000000000000

  Total energy:                                               -76.47229243885772


 MULLIKEN POPULATION ANALYSIS

  # Atom   Element   Kind        Atomic population                    Net charge
       1     H          1                 0.675801                      0.324199
       2     H          1                 0.675805                      0.324195
       3     O          2                 6.648394                     -0.648394
 # Total charge                           8.000000                     -0.000000


 tblite reference CLI check
 Executable: tblite
 Method:     gxtb
 Guess:      auto
 Solver:     gvd
 Spin-pol.:  F
 Grad file:  H2O_stress_L12_cli.grad
 JSON file:  H2O_stress_L12_cli.json
 Log file:   H2O_stress_L12_cli.log
 Energy CP2K/CLI/absdiff:   -7.647229243886E+01   -7.647229243951E+01    6.544951247633E-10
 Gradient diff sum/max:    1.087912824161E-07    3.022544819986E-08
 Virial diff sum/max:    9.519091506956E-08    4.546634075481E-08

 ENERGY| Total FORCE_EVAL ( QS ) energy [hartree]            -76.472292438857721

 -------------------------------------------------------------------------------
 ----                             MULTIGRID INFO                            ----
 -------------------------------------------------------------------------------
 total grid count     :           420              cutoff [a.u.]            1.00

 PW_GRID| Information for grid number                                          2
 PW_GRID| Cutoff [a.u.]                                                      1.0
 PW_GRID| spherical cutoff:                                                   NO
 PW_GRID|   Bounds   1             -6       5                Points:          12
 PW_GRID|   Bounds   2             -6       5                Points:          12
 PW_GRID|   Bounds   3             -6       5                Points:          12
 PW_GRID| Volume element (a.u.^3)   6.748         Volume (a.u.^3)     11661.1736
 PW_GRID| Grid span                                                    FULLSPACE

 POISSON| Solver                                                        PERIODIC
 POISSON| Periodicity                                                        XYZ

 RS_GRID| Information for grid number                                          2
 RS_GRID|   Bounds   1             -6       5                Points:          12
 RS_GRID|   Bounds   2             -6       5                Points:          12
 RS_GRID|   Bounds   3             -6       5                Points:          12

 Parameters for the always stable predictor-corrector (ASPC) method:

  ASPC order: 0

  B(1) =   1.000000

 Extrapolation method: ASPC

 Number of electrons:                                                          8
 Number of occupied orbitals:                                                  4
 Number of molecular orbitals:                                                 6

 Number of orbital functions:                                                  6
 Number of independent orbital functions:                                      6


 SCF WAVEFUNCTION OPTIMIZATION

  Step     Update method      Time    Convergence         Total energy    Change
  ------------------------------------------------------------------------------
     1 GXTB-Raw    0.10E+01    0.0     0.00000157       -76.4722921890 -7.65E+01
     2 GXTB-Simple 0.20E+00    0.0     0.00000032       -76.4722921890 -3.27E-13
     3 GXTB-Simple 0.20E+00    0.0     0.00000027       -76.4722921890 -2.27E-13
     4 GXTB-FDIIS  0.10E+01    0.0     0.00000125       -76.4722921890 -4.83E-13
     5 GXTB-FDIIS  0.10E+01    0.0     0.00000005       -76.4722921890 -1.42E-14
     6 GXTB-FDIIS  0.10E+01    0.0     0.00000003       -76.4722921890  1.42E-14
     7 GXTB-FDIIS  0.10E+01    0.0     1.0873E-09       -76.4722921890 -1.42E-14
     8 GXTB-FDIIS  0.10E+01    0.0     1.1598E-10       -76.4722921890  1.42E-14
     9 GXTB-FDIIS  0.10E+01    0.0     2.5457E-13       -76.4722921890  0.00E+00

  *** SCF run converged in     9 steps ***


  Core Hamiltonian energy:                                     -6.23603829187154
  Repulsive potential energy:                                   0.31817488271824
  Electrostatic energy:                                         0.14909045842694
  Self-consistent dispersion energy:                           -0.00004449520176
  Non-self consistent dispersion energy:                        0.00000029965231
  Correction for halogen bonding:                               0.00000000000000

  Total energy:                                               -76.47229218899786


 MULLIKEN POPULATION ANALYSIS

  # Atom   Element   Kind        Atomic population                    Net charge
       1     H          1                 0.675801                      0.324199
       2     H          1                 0.675806                      0.324194
       3     O          2                 6.648393                     -0.648393
 # Total charge                           8.000000                     -0.000000


 tblite reference CLI check
 Executable: tblite
 Method:     gxtb
 Guess:      auto
 Solver:     gvd
 Spin-pol.:  F
 Grad file:  H2O_stress_L12_cli.grad
 JSON file:  H2O_stress_L12_cli.json
 Log file:   H2O_stress_L12_cli.log
 Energy CP2K/CLI/absdiff:   -7.647229218900E+01   -7.647229218965E+01    6.545093356181E-10
 Gradient diff sum/max:    8.207137925957E-06    3.125852985935E-06
 Virial diff sum/max:    1.539154665959E-01    5.666274602680E-02
 tblite reference CLI deviation exceeded ERROR_LIMIT =   1.0000E-05

 ENERGY| Total FORCE_EVAL ( QS ) energy [hartree]            -76.472292188997855

 -------------------------------------------------------------------------------
 ----                             MULTIGRID INFO                            ----
 -------------------------------------------------------------------------------
 total grid count     :           420              cutoff [a.u.]            1.00

 PW_GRID| Information for grid number                                          3
 PW_GRID| Cutoff [a.u.]                                                      1.0
 PW_GRID| spherical cutoff:                                                   NO
 PW_GRID|   Bounds   1             -6       5                Points:          12
 PW_GRID|   Bounds   2             -6       5                Points:          12
 PW_GRID|   Bounds   3             -6       5                Points:          12
 PW_GRID| Volume element (a.u.^3)   6.748         Volume (a.u.^3)     11661.0707
 PW_GRID| Grid span                                                    FULLSPACE

 POISSON| Solver                                                        PERIODIC
 POISSON| Periodicity                                                        XYZ

 RS_GRID| Information for grid number                                          3
 RS_GRID|   Bounds   1             -6       5                Points:          12
 RS_GRID|   Bounds   2             -6       5                Points:          12
 RS_GRID|   Bounds   3             -6       5                Points:          12

 Parameters for the always stable predictor-corrector (ASPC) method:

  ASPC order: 0

  B(1) =   2.000000
  B(2) =  -1.000000

 Extrapolation method: ASPC

 Number of electrons:                                                          8
 Number of occupied orbitals:                                                  4
 Number of molecular orbitals:                                                 6

 Number of orbital functions:                                                  6
 Number of independent orbital functions:                                      6


 SCF WAVEFUNCTION OPTIMIZATION

  Step     Update method      Time    Convergence         Total energy    Change
  ------------------------------------------------------------------------------
     1 GXTB-Raw    0.10E+01    0.0     0.00000313       -76.4722926887 -7.65E+01
     2 GXTB-Simple 0.20E+00    0.0     0.00000064       -76.4722926887 -1.35E-12
     3 GXTB-Simple 0.20E+00    0.0     0.00000053       -76.4722926887 -8.95E-13
     4 GXTB-FDIIS  0.10E+01    0.0     0.00000250       -76.4722926887 -1.95E-12
     5 GXTB-FDIIS  0.10E+01    0.0     0.00000010       -76.4722926887  0.00E+00
     6 GXTB-FDIIS  0.10E+01    0.0     0.00000006       -76.4722926887  0.00E+00
     7 GXTB-FDIIS  0.10E+01    0.0     2.1746E-09       -76.4722926887  0.00E+00
     8 GXTB-FDIIS  0.10E+01    0.0     2.3195E-10       -76.4722926887  0.00E+00
     9 GXTB-FDIIS  0.10E+01    0.0     5.0904E-13       -76.4722926887  0.00E+00

  *** SCF run converged in     9 steps ***


  Core Hamiltonian energy:                                     -6.23604389741840
  Repulsive potential energy:                                   0.31818018584838
  Electrostatic energy:                                         0.14909045359336
  Self-consistent dispersion energy:                           -0.00004449476986
  Non-self consistent dispersion energy:                        0.00000029964486
  Correction for halogen bonding:                               0.00000000000000

  Total energy:                                               -76.47229268869523


 MULLIKEN POPULATION ANALYSIS

  # Atom   Element   Kind        Atomic population                    Net charge
       1     H          1                 0.675800                      0.324200
       2     H          1                 0.675805                      0.324195
       3     O          2                 6.648394                     -0.648394
 # Total charge                           8.000000                     -0.000000


 tblite reference CLI check
 Executable: tblite
 Method:     gxtb
 Guess:      auto
 Solver:     gvd
 Spin-pol.:  F
 Grad file:  H2O_stress_L12_cli.grad
 JSON file:  H2O_stress_L12_cli.json
 Log file:   H2O_stress_L12_cli.log
 Energy CP2K/CLI/absdiff:   -7.647229268870E+01   -7.647229268935E+01    6.544524921992E-10
 Gradient diff sum/max:    8.268848137032E-06    3.186374681455E-06
 Virial diff sum/max:    1.539105118088E-01    5.665210999581E-02
 tblite reference CLI deviation exceeded ERROR_LIMIT =   1.0000E-05

 ENERGY| Total FORCE_EVAL ( QS ) energy [hartree]            -76.472292688695234

 -------------------------------------------------------------------------------
 ----                             MULTIGRID INFO                            ----
 -------------------------------------------------------------------------------
 total grid count     :           420              cutoff [a.u.]            1.00

 PW_GRID| Information for grid number                                          4
 PW_GRID| Cutoff [a.u.]                                                      1.0
 PW_GRID| spherical cutoff:                                                   NO
 PW_GRID|   Bounds   1             -6       5                Points:          12
 PW_GRID|   Bounds   2             -6       5                Points:          12
 PW_GRID|   Bounds   3             -6       5                Points:          12
 PW_GRID| Volume element (a.u.^3)   6.748         Volume (a.u.^3)     11661.1222
 PW_GRID| Grid span                                                    FULLSPACE

 POISSON| Solver                                                        PERIODIC
 POISSON| Periodicity                                                        XYZ

 RS_GRID| Information for grid number                                          4
 RS_GRID|   Bounds   1             -6       5                Points:          12
 RS_GRID|   Bounds   2             -6       5                Points:          12
 RS_GRID|   Bounds   3             -6       5                Points:          12

 Parameters for the always stable predictor-corrector (ASPC) method:

  ASPC order: 1

  B(1) =   2.500000
  B(2) =  -2.000000
  B(3) =   0.500000

 Extrapolation method: ASPC

 Number of electrons:                                                          8
 Number of occupied orbitals:                                                  4
 Number of molecular orbitals:                                                 6

 Number of orbital functions:                                                  6
 Number of independent orbital functions:                                      6


 SCF WAVEFUNCTION OPTIMIZATION

  Step     Update method      Time    Convergence         Total energy    Change
  ------------------------------------------------------------------------------
     1 GXTB-Raw    0.10E+01    0.0     0.00000157       -76.4722924389 -7.65E+01
     2 GXTB-Simple 0.20E+00    0.0     0.00000032       -76.4722924389 -3.41E-13
     3 GXTB-Simple 0.20E+00    0.0     0.00000027       -76.4722924389 -2.13E-13
     4 GXTB-FDIIS  0.10E+01    0.0     0.00000125       -76.4722924389 -4.97E-13
     5 GXTB-FDIIS  0.10E+01    0.0     0.00000005       -76.4722924389  0.00E+00
     6 GXTB-FDIIS  0.10E+01    0.0     0.00000003       -76.4722924389  0.00E+00
     7 GXTB-FDIIS  0.10E+01    0.0     1.0873E-09       -76.4722924389  0.00E+00
     8 GXTB-FDIIS  0.10E+01    0.0     1.1598E-10       -76.4722924389  0.00E+00
     9 GXTB-FDIIS  0.10E+01    0.0     2.5491E-13       -76.4722924389  0.00E+00

  *** SCF run converged in     9 steps ***


  Core Hamiltonian energy:                                     -6.23604109463839
  Repulsive potential energy:                                   0.31817753426361
  Electrostatic energy:                                         0.14909045600940
  Self-consistent dispersion energy:                           -0.00004449498581
  Non-self consistent dispersion energy:                        0.00000029964859
  Correction for halogen bonding:                               0.00000000000000

  Total energy:                                               -76.47229243885735


 MULLIKEN POPULATION ANALYSIS

  # Atom   Element   Kind        Atomic population                    Net charge
       1     H          1                 0.675801                      0.324199
       2     H          1                 0.675805                      0.324195
       3     O          2                 6.648394                     -0.648394
 # Total charge                           8.000000                      0.000000


 tblite reference CLI check
 Executable: tblite
 Method:     gxtb
 Guess:      auto
 Solver:     gvd
 Spin-pol.:  F
 Grad file:  H2O_stress_L12_cli.grad
 JSON file:  H2O_stress_L12_cli.json
 Log file:   H2O_stress_L12_cli.log
 Energy CP2K/CLI/absdiff:   -7.647229243886E+01   -7.647229243951E+01    6.544951247633E-10
 Gradient diff sum/max:    1.095534154449E-07    3.022547768149E-08
 Virial diff sum/max:    1.539133261022E-01    5.665742804986E-02
 tblite reference CLI deviation exceeded ERROR_LIMIT =   1.0000E-05

 ENERGY| Total FORCE_EVAL ( QS ) energy [hartree]            -76.472292438857352

 -------------------------------------------------------------------------------
 ----                             MULTIGRID INFO                            ----
 -------------------------------------------------------------------------------
 total grid count     :           420              cutoff [a.u.]            1.00

 PW_GRID| Information for grid number                                          5
 PW_GRID| Cutoff [a.u.]                                                      1.0
 PW_GRID| spherical cutoff:                                                   NO
 PW_GRID|   Bounds   1             -6       5                Points:          12
 PW_GRID|   Bounds   2             -6       5                Points:          12
 PW_GRID|   Bounds   3             -6       5                Points:          12
 PW_GRID| Volume element (a.u.^3)   6.748         Volume (a.u.^3)     11661.1222
 PW_GRID| Grid span                                                    FULLSPACE

 POISSON| Solver                                                        PERIODIC
 POISSON| Periodicity                                                        XYZ

 RS_GRID| Information for grid number                                          5
 RS_GRID|   Bounds   1             -6       5                Points:          12
 RS_GRID|   Bounds   2             -6       5                Points:          12
 RS_GRID|   Bounds   3             -6       5                Points:          12

 Parameters for the always stable predictor-corrector (ASPC) method:

  ASPC order: 2

  B(1) =   2.800000
  B(2) =  -2.800000
  B(3) =   1.200000
  B(4) =  -0.200000

 Extrapolation method: ASPC

 Number of electrons:                                                          8
 Number of occupied orbitals:                                                  4
 Number of molecular orbitals:                                                 6

 Number of orbital functions:                                                  6
 Number of independent orbital functions:                                      6


 SCF WAVEFUNCTION OPTIMIZATION

  Step     Update method      Time    Convergence         Total energy    Change
  ------------------------------------------------------------------------------
     1 GXTB-Raw    0.10E+01    0.0     6.3499E-10       -76.4722924389 -7.65E+01
     2 GXTB-Simple 0.20E+00    0.0     2.7237E-11       -76.4722924389  0.00E+00

  *** SCF run converged in     2 steps ***


  Core Hamiltonian energy:                                     -6.23604109463839
  Repulsive potential energy:                                   0.31817753426361
  Electrostatic energy:                                         0.14909045600940
  Self-consistent dispersion energy:                           -0.00004449498581
  Non-self consistent dispersion energy:                        0.00000029964859
  Correction for halogen bonding:                               0.00000000000000

  Total energy:                                               -76.47229243885735


 MULLIKEN POPULATION ANALYSIS

  # Atom   Element   Kind        Atomic population                    Net charge
       1     H          1                 0.675801                      0.324199
       2     H          1                 0.675805                      0.324195
       3     O          2                 6.648394                     -0.648394
 # Total charge                           8.000000                      0.000000


 tblite reference CLI check
 Executable: tblite
 Method:     gxtb
 Guess:      auto
 Solver:     gvd
 Spin-pol.:  F
 Grad file:  H2O_stress_L12_cli.grad
 JSON file:  H2O_stress_L12_cli.json
 Log file:   H2O_stress_L12_cli.log
 Energy CP2K/CLI/absdiff:   -7.647229243886E+01   -7.647229243951E+01    6.544951247633E-10
 Gradient diff sum/max:    1.095534157061E-07    3.022547768149E-08
 Virial diff sum/max:    1.539133261022E-01    5.665742804986E-02
 tblite reference CLI deviation exceeded ERROR_LIMIT =   1.0000E-05

 ENERGY| Total FORCE_EVAL ( QS ) energy [hartree]            -76.472292438857352

 -------------------------------------------------------------------------------
 ----                             MULTIGRID INFO                            ----
 -------------------------------------------------------------------------------
 total grid count     :           420              cutoff [a.u.]            1.00

 PW_GRID| Information for grid number                                          6
 PW_GRID| Cutoff [a.u.]                                                      1.0
 PW_GRID| spherical cutoff:                                                   NO
 PW_GRID|   Bounds   1             -6       5                Points:          12
 PW_GRID|   Bounds   2             -6       5                Points:          12
 PW_GRID|   Bounds   3             -6       5                Points:          12
 PW_GRID| Volume element (a.u.^3)   6.748         Volume (a.u.^3)     11661.1222
 PW_GRID| Grid span                                                    FULLSPACE

 POISSON| Solver                                                        PERIODIC
 POISSON| Periodicity                                                        XYZ

 RS_GRID| Information for grid number                                          6
 RS_GRID|   Bounds   1             -6       5                Points:          12
 RS_GRID|   Bounds   2             -6       5                Points:          12
 RS_GRID|   Bounds   3             -6       5                Points:          12

 Parameters for the always stable predictor-corrector (ASPC) method:

  ASPC order: 3

  B(1) =   3.000000
  B(2) =  -3.428571
  B(3) =   1.928571
  B(4) =  -0.571429
  B(5) =   0.071429

 Extrapolation method: ASPC

 Number of electrons:                                                          8
 Number of occupied orbitals:                                                  4
 Number of molecular orbitals:                                                 6

 Number of orbital functions:                                                  6
 Number of independent orbital functions:                                      6


 SCF WAVEFUNCTION OPTIMIZATION

  Step     Update method      Time    Convergence         Total energy    Change
  ------------------------------------------------------------------------------
     1 GXTB-Raw    0.10E+01    0.0     0.00000065       -76.4722924474 -7.65E+01
     2 GXTB-Simple 0.20E+00    0.0     0.00000024       -76.4722924474 -2.27E-13
     3 GXTB-Simple 0.20E+00    0.0     0.00000020       -76.4722924474 -1.85E-13
     4 GXTB-FDIIS  0.10E+01    0.0     0.00000101       -76.4722924474 -3.69E-13
     5 GXTB-FDIIS  0.10E+01    0.0     0.00000004       -76.4722924474  0.00E+00
     6 GXTB-FDIIS  0.10E+01    0.0     6.1345E-09       -76.4722924474  0.00E+00
     7 GXTB-FDIIS  0.10E+01    0.0     7.6256E-10       -76.4722924474  0.00E+00
     8 GXTB-FDIIS  0.10E+01    0.0     6.8941E-11       -76.4722924474  0.00E+00

  *** SCF run converged in     8 steps ***


  Core Hamiltonian energy:                                     -6.23604065448931
  Repulsive potential energy:                                   0.31817681994915
  Electrostatic energy:                                         0.14909055248524
  Self-consistent dispersion energy:                           -0.00004449512158
  Non-self consistent dispersion energy:                        0.00000029964512
  Correction for halogen bonding:                               0.00000000000000

  Total energy:                                               -76.47229244735155


 MULLIKEN POPULATION ANALYSIS

  # Atom   Element   Kind        Atomic population                    Net charge
       1     H          1                 0.675800                      0.324200
       2     H          1                 0.675805                      0.324195
       3     O          2                 6.648394                     -0.648394
 # Total charge                           8.000000                      0.000000


 tblite reference CLI check
 Executable: tblite
 Method:     gxtb
 Guess:      auto
 Solver:     gvd
 Spin-pol.:  F
 Grad file:  H2O_stress_L12_cli.grad
 JSON file:  H2O_stress_L12_cli.json
 Log file:   H2O_stress_L12_cli.log
 Energy CP2K/CLI/absdiff:   -7.647229244735E+01   -7.647229244801E+01    6.545093356181E-10
 Gradient diff sum/max:    3.272910950018E-06    9.298766476314E-07
 Virial diff sum/max:    1.539121432814E-01    5.665907085164E-02
 tblite reference CLI deviation exceeded ERROR_LIMIT =   1.0000E-05

 ENERGY| Total FORCE_EVAL ( QS ) energy [hartree]            -76.472292447351549

 -------------------------------------------------------------------------------
 ----                             MULTIGRID INFO                            ----
 -------------------------------------------------------------------------------
 total grid count     :           420              cutoff [a.u.]            1.00

 PW_GRID| Information for grid number                                          7
 PW_GRID| Cutoff [a.u.]                                                      1.0
 PW_GRID| spherical cutoff:                                                   NO
 PW_GRID|   Bounds   1             -6       5                Points:          12
 PW_GRID|   Bounds   2             -6       5                Points:          12
 PW_GRID|   Bounds   3             -6       5                Points:          12
 PW_GRID| Volume element (a.u.^3)   6.748         Volume (a.u.^3)     11661.1222
 PW_GRID| Grid span                                                    FULLSPACE

 POISSON| Solver                                                        PERIODIC
 POISSON| Periodicity                                                        XYZ

 RS_GRID| Information for grid number                                          7
 RS_GRID|   Bounds   1             -6       5                Points:          12
 RS_GRID|   Bounds   2             -6       5                Points:          12
 RS_GRID|   Bounds   3             -6       5                Points:          12

 Parameters for the always stable predictor-corrector (ASPC) method:

  ASPC order: 3

  B(1) =   3.000000
  B(2) =  -3.428571
  B(3) =   1.928571
  B(4) =  -0.571429
  B(5) =   0.071429

 Extrapolation method: ASPC

 Number of electrons:                                                          8
 Number of occupied orbitals:                                                  4
 Number of molecular orbitals:                                                 6

 Number of orbital functions:                                                  6
 Number of independent orbital functions:                                      6


 SCF WAVEFUNCTION OPTIMIZATION

  Step     Update method      Time    Convergence         Total energy    Change
  ------------------------------------------------------------------------------
     1 GXTB-Raw    0.10E+01    0.0     0.00000131       -76.4722924304 -7.65E+01
     2 GXTB-Simple 0.20E+00    0.0     0.00000049       -76.4722924304 -9.24E-13
     3 GXTB-Simple 0.20E+00    0.0     0.00000041       -76.4722924304 -6.68E-13
     4 GXTB-FDIIS  0.10E+01    0.0     0.00000202       -76.4722924304 -1.52E-12
     5 GXTB-FDIIS  0.10E+01    0.0     0.00000008       -76.4722924304  0.00E+00
     6 GXTB-FDIIS  0.10E+01    0.0     0.00000001       -76.4722924304  0.00E+00
     7 GXTB-FDIIS  0.10E+01    0.0     1.5252E-09       -76.4722924304 -1.42E-14
     8 GXTB-FDIIS  0.10E+01    0.0     1.3789E-10       -76.4722924304  0.00E+00
     9 GXTB-FDIIS  0.10E+01    0.0     5.9855E-13       -76.4722924304  0.00E+00

  *** SCF run converged in     9 steps ***


  Core Hamiltonian energy:                                     -6.23604153477567
  Repulsive potential energy:                                   0.31817824856971
  Electrostatic energy:                                         0.14909035953560
  Self-consistent dispersion energy:                           -0.00004449485004
  Non-self consistent dispersion energy:                        0.00000029965205
  Correction for halogen bonding:                               0.00000000000000

  Total energy:                                               -76.47229243035768


 MULLIKEN POPULATION ANALYSIS

  # Atom   Element   Kind        Atomic population                    Net charge
       1     H          1                 0.675801                      0.324199
       2     H          1                 0.675806                      0.324194
       3     O          2                 6.648394                     -0.648394
 # Total charge                           8.000000                      0.000000


 tblite reference CLI check
 Executable: tblite
 Method:     gxtb
 Guess:      auto
 Solver:     gvd
 Spin-pol.:  F
 Grad file:  H2O_stress_L12_cli.grad
 JSON file:  H2O_stress_L12_cli.json
 Log file:   H2O_stress_L12_cli.log
 Energy CP2K/CLI/absdiff:   -7.647229243036E+01   -7.647229243101E+01    6.544809139086E-10
 Gradient diff sum/max:    3.292249629412E-06    9.791860386341E-07
 Virial diff sum/max:    1.539138351679E-01    5.665578524741E-02
 tblite reference CLI deviation exceeded ERROR_LIMIT =   1.0000E-05

 ENERGY| Total FORCE_EVAL ( QS ) energy [hartree]            -76.472292430357683

 -------------------------------------------------------------------------------
 ----                             MULTIGRID INFO                            ----
 -------------------------------------------------------------------------------
 total grid count     :           420              cutoff [a.u.]            1.00

 PW_GRID| Information for grid number                                          8
 PW_GRID| Cutoff [a.u.]                                                      1.0
 PW_GRID| spherical cutoff:                                                   NO
 PW_GRID|   Bounds   1             -6       5                Points:          12
 PW_GRID|   Bounds   2             -6       5                Points:          12
 PW_GRID|   Bounds   3             -6       5                Points:          12
 PW_GRID| Volume element (a.u.^3)   6.748         Volume (a.u.^3)     11661.1222
 PW_GRID| Grid span                                                    FULLSPACE

 POISSON| Solver                                                        PERIODIC
 POISSON| Periodicity                                                        XYZ

 RS_GRID| Information for grid number                                          8
 RS_GRID|   Bounds   1             -6       5                Points:          12
 RS_GRID|   Bounds   2             -6       5                Points:          12
 RS_GRID|   Bounds   3             -6       5                Points:          12

 Parameters for the always stable predictor-corrector (ASPC) method:

  ASPC order: 3

  B(1) =   3.000000
  B(2) =  -3.428571
  B(3) =   1.928571
  B(4) =  -0.571429
  B(5) =   0.071429

 Extrapolation method: ASPC

 Number of electrons:                                                          8
 Number of occupied orbitals:                                                  4
 Number of molecular orbitals:                                                 6

 Number of orbital functions:                                                  6
 Number of independent orbital functions:                                      6


 SCF WAVEFUNCTION OPTIMIZATION

  Step     Update method      Time    Convergence         Total energy    Change
  ------------------------------------------------------------------------------
     1 GXTB-Raw    0.10E+01    0.0     0.00000085       -76.4722924389 -7.65E+01
     2 GXTB-Simple 0.20E+00    0.0     0.00000039       -76.4722924389 -5.83E-13
     3 GXTB-Simple 0.20E+00    0.0     0.00000033       -76.4722924389 -3.98E-13
     4 GXTB-FDIIS  0.10E+01    0.0     0.00000172       -76.4722924389 -9.81E-13
     5 GXTB-FDIIS  0.10E+01    0.0     0.00000009       -76.4722924389  0.00E+00
     6 GXTB-FDIIS  0.10E+01    0.0     6.7392E-09       -76.4722924389 -1.42E-14
     7 GXTB-FDIIS  0.10E+01    0.0     6.8279E-10       -76.4722924389  0.00E+00
     8 GXTB-FDIIS  0.10E+01    0.0     2.6714E-10       -76.4722924389  0.00E+00
     9 GXTB-FDIIS  0.10E+01    0.0     2.6626E-11       -76.4722924389  1.42E-14

  *** SCF run converged in     9 steps ***


  Core Hamiltonian energy:                                     -6.23604109463228
  Repulsive potential energy:                                   0.31817753425776
  Electrostatic energy:                                         0.14909045600949
  Self-consistent dispersion energy:                           -0.00004449498581
  Non-self consistent dispersion energy:                        0.00000029964859
  Correction for halogen bonding:                               0.00000000000000

  Total energy:                                               -76.47229243885717


 MULLIKEN POPULATION ANALYSIS

  # Atom   Element   Kind        Atomic population                    Net charge
       1     H          1                 0.675801                      0.324199
       2     H          1                 0.675805                      0.324195
       3     O          2                 6.648394                     -0.648394
 # Total charge                           8.000000                      0.000000


 tblite reference CLI check
 Executable: tblite
 Method:     gxtb
 Guess:      auto
 Solver:     gvd
 Spin-pol.:  F
 Grad file:  H2O_stress_L12_cli.grad
 JSON file:  H2O_stress_L12_cli.json
 Log file:   H2O_stress_L12_cli.log
 Energy CP2K/CLI/absdiff:   -7.647229243886E+01   -7.647229243951E+01    6.544951247633E-10
 Gradient diff sum/max:    2.316968818011E-07    6.145959186183E-08
 Virial diff sum/max:    1.539135038612E-01    5.665742805977E-02
 tblite reference CLI deviation exceeded ERROR_LIMIT =   1.0000E-05

 ENERGY| Total FORCE_EVAL ( QS ) energy [hartree]            -76.472292438857167

 -------------------------------------------------------------------------------
 ----                             MULTIGRID INFO                            ----
 -------------------------------------------------------------------------------
 total grid count     :           420              cutoff [a.u.]            1.00

 PW_GRID| Information for grid number                                          9
 PW_GRID| Cutoff [a.u.]                                                      1.0
 PW_GRID| spherical cutoff:                                                   NO
 PW_GRID|   Bounds   1             -6       5                Points:          12
 PW_GRID|   Bounds   2             -6       5                Points:          12
 PW_GRID|   Bounds   3             -6       5                Points:          12
 PW_GRID| Volume element (a.u.^3)   6.748         Volume (a.u.^3)     11661.1222
 PW_GRID| Grid span                                                    FULLSPACE

 POISSON| Solver                                                        PERIODIC
 POISSON| Periodicity                                                        XYZ

 RS_GRID| Information for grid number                                          9
 RS_GRID|   Bounds   1             -6       5                Points:          12
 RS_GRID|   Bounds   2             -6       5                Points:          12
 RS_GRID|   Bounds   3             -6       5                Points:          12

 Parameters for the always stable predictor-corrector (ASPC) method:

  ASPC order: 3

  B(1) =   3.000000
  B(2) =  -3.428571
  B(3) =   1.928571
  B(4) =  -0.571429
  B(5) =   0.071429

 Extrapolation method: ASPC

 Number of electrons:                                                          8
 Number of occupied orbitals:                                                  4
 Number of molecular orbitals:                                                 6

 Number of orbital functions:                                                  6
 Number of independent orbital functions:                                      6


 SCF WAVEFUNCTION OPTIMIZATION

  Step     Update method      Time    Convergence         Total energy    Change
  ------------------------------------------------------------------------------
     1 GXTB-Raw    0.10E+01    0.0     0.00000171       -76.4722924389 -7.65E+01
     2 GXTB-Simple 0.20E+00    0.0     0.00000079       -76.4722924389 -1.35E-12
     3 GXTB-Simple 0.20E+00    0.0     0.00000066       -76.4722924389 -9.66E-13
     4 GXTB-FDIIS  0.10E+01    0.0     0.00000348       -76.4722924389 -2.40E-12
     5 GXTB-FDIIS  0.10E+01    0.0     0.00000015       -76.4722924389  0.00E+00
     6 GXTB-FDIIS  0.10E+01    0.0     3.6595E-09       -76.4722924389  0.00E+00
     7 GXTB-FDIIS  0.10E+01    0.0     7.9181E-13       -76.4722924389  0.00E+00

  *** SCF run converged in     7 steps ***


  Core Hamiltonian energy:                                     -6.23604109463229
  Repulsive potential energy:                                   0.31817753425776
  Electrostatic energy:                                         0.14909045600947
  Self-consistent dispersion energy:                           -0.00004449498581
  Non-self consistent dispersion energy:                        0.00000029964859
  Correction for halogen bonding:                               0.00000000000000

  Total energy:                                               -76.47229243885717


 MULLIKEN POPULATION ANALYSIS

  # Atom   Element   Kind        Atomic population                    Net charge
       1     H          1                 0.675801                      0.324199
       2     H          1                 0.675805                      0.324195
       3     O          2                 6.648394                     -0.648394
 # Total charge                           8.000000                      0.000000


 tblite reference CLI check
 Executable: tblite
 Method:     gxtb
 Guess:      auto
 Solver:     gvd
 Spin-pol.:  F
 Grad file:  H2O_stress_L12_cli.grad
 JSON file:  H2O_stress_L12_cli.json
 Log file:   H2O_stress_L12_cli.log
 Energy CP2K/CLI/absdiff:   -7.647229243886E+01   -7.647229243951E+01    6.544951247633E-10
 Gradient diff sum/max:    2.316968815382E-07    6.145959173036E-08
 Virial diff sum/max:    1.539135038612E-01    5.665742805977E-02
 tblite reference CLI deviation exceeded ERROR_LIMIT =   1.0000E-05

 ENERGY| Total FORCE_EVAL ( QS ) energy [hartree]            -76.472292438857167

 -------------------------------------------------------------------------------
 ----                             MULTIGRID INFO                            ----
 -------------------------------------------------------------------------------
 total grid count     :           420              cutoff [a.u.]            1.00

 PW_GRID| Information for grid number                                         10
 PW_GRID| Cutoff [a.u.]                                                      1.0
 PW_GRID| spherical cutoff:                                                   NO
 PW_GRID|   Bounds   1             -6       5                Points:          12
 PW_GRID|   Bounds   2             -6       5                Points:          12
 PW_GRID|   Bounds   3             -6       5                Points:          12
 PW_GRID| Volume element (a.u.^3)   6.748         Volume (a.u.^3)     11661.1736
 PW_GRID| Grid span                                                    FULLSPACE

 POISSON| Solver                                                        PERIODIC
 POISSON| Periodicity                                                        XYZ

 RS_GRID| Information for grid number                                         10
 RS_GRID|   Bounds   1             -6       5                Points:          12
 RS_GRID|   Bounds   2             -6       5                Points:          12
 RS_GRID|   Bounds   3             -6       5                Points:          12

 Parameters for the always stable predictor-corrector (ASPC) method:

  ASPC order: 3

  B(1) =   3.000000
  B(2) =  -3.428571
  B(3) =   1.928571
  B(4) =  -0.571429
  B(5) =   0.071429

 Extrapolation method: ASPC

 Number of electrons:                                                          8
 Number of occupied orbitals:                                                  4
 Number of molecular orbitals:                                                 6

 Number of orbital functions:                                                  6
 Number of independent orbital functions:                                      6


 SCF WAVEFUNCTION OPTIMIZATION

  Step     Update method      Time    Convergence         Total energy    Change
  ------------------------------------------------------------------------------
     1 GXTB-Raw    0.10E+01    0.0     0.00000085       -76.4722922696 -7.65E+01
     2 GXTB-Simple 0.20E+00    0.0     0.00000039       -76.4722922696 -3.27E-13
     3 GXTB-Simple 0.20E+00    0.0     0.00000033       -76.4722922696 -2.42E-13
     4 GXTB-FDIIS  0.10E+01    0.0     0.00000173       -76.4722922696 -6.11E-13
     5 GXTB-FDIIS  0.10E+01    0.0     0.00000008       -76.4722922696  0.00E+00
     6 GXTB-FDIIS  0.10E+01    0.0     6.4378E-09       -76.4722922696  0.00E+00
     7 GXTB-FDIIS  0.10E+01    0.0     8.7979E-10       -76.4722922696  0.00E+00
     8 GXTB-FDIIS  0.10E+01    0.0     5.1820E-12       -76.4722922696  0.00E+00

  *** SCF run converged in     8 steps ***


  Core Hamiltonian energy:                                     -6.23604105447934
  Repulsive potential energy:                                   0.31817753469041
  Electrostatic energy:                                         0.14909042464083
  Self-consistent dispersion energy:                           -0.00004449498177
  Non-self consistent dispersion energy:                        0.00000029964832
  Correction for halogen bonding:                               0.00000000000000

  Total energy:                                               -76.47229226964360


 MULLIKEN POPULATION ANALYSIS

  # Atom   Element   Kind        Atomic population                    Net charge
       1     H          1                 0.675801                      0.324199
       2     H          1                 0.675806                      0.324194
       3     O          2                 6.648394                     -0.648394
 # Total charge                           8.000000                     -0.000000


 tblite reference CLI check
 Executable: tblite
 Method:     gxtb
 Guess:      auto
 Solver:     gvd
 Spin-pol.:  F
 Grad file:  H2O_stress_L12_cli.grad
 JSON file:  H2O_stress_L12_cli.json
 Log file:   H2O_stress_L12_cli.log
 Energy CP2K/CLI/absdiff:   -7.647229226964E+01   -7.647229227030E+01    6.544809139086E-10
 Gradient diff sum/max:    1.425328137803E-07    4.174824743026E-08
 Virial diff sum/max:    1.539126923873E-01    5.665741588072E-02
 tblite reference CLI deviation exceeded ERROR_LIMIT =   1.0000E-05

 ENERGY| Total FORCE_EVAL ( QS ) energy [hartree]            -76.472292269643603

 -------------------------------------------------------------------------------
 ----                             MULTIGRID INFO                            ----
 -------------------------------------------------------------------------------
 total grid count     :           420              cutoff [a.u.]            1.00

 PW_GRID| Information for grid number                                         11
 PW_GRID| Cutoff [a.u.]                                                      1.0
 PW_GRID| spherical cutoff:                                                   NO
 PW_GRID|   Bounds   1             -6       5                Points:          12
 PW_GRID|   Bounds   2             -6       5                Points:          12
 PW_GRID|   Bounds   3             -6       5                Points:          12
 PW_GRID| Volume element (a.u.^3)   6.748         Volume (a.u.^3)     11661.0707
 PW_GRID| Grid span                                                    FULLSPACE

 POISSON| Solver                                                        PERIODIC
 POISSON| Periodicity                                                        XYZ

 RS_GRID| Information for grid number                                         11
 RS_GRID|   Bounds   1             -6       5                Points:          12
 RS_GRID|   Bounds   2             -6       5                Points:          12
 RS_GRID|   Bounds   3             -6       5                Points:          12

 Parameters for the always stable predictor-corrector (ASPC) method:

  ASPC order: 3

  B(1) =   3.000000
  B(2) =  -3.428571
  B(3) =   1.928571
  B(4) =  -0.571429
  B(5) =   0.071429

 Extrapolation method: ASPC

 Number of electrons:                                                          8
 Number of occupied orbitals:                                                  4
 Number of molecular orbitals:                                                 6

 Number of orbital functions:                                                  6
 Number of independent orbital functions:                                      6


 SCF WAVEFUNCTION OPTIMIZATION

  Step     Update method      Time    Convergence         Total energy    Change
  ------------------------------------------------------------------------------
     1 GXTB-Raw    0.10E+01    0.0     2.6540E-09       -76.4722926081 -7.65E+01
     2 GXTB-Simple 0.20E+00    0.0     0.00000004       -76.4722926081 -1.42E-14
     3 GXTB-Simple 0.20E+00    0.0     0.00000003       -76.4722926081  0.00E+00
     4 GXTB-FDIIS  0.10E+01    0.0     0.00000007       -76.4722926081  0.00E+00
     5 GXTB-FDIIS  0.10E+01    0.0     8.1136E-09       -76.4722926081 -1.42E-14
     6 GXTB-FDIIS  0.10E+01    0.0     1.0520E-09       -76.4722926081  1.42E-14
     7 GXTB-FDIIS  0.10E+01    0.0     3.0854E-11       -76.4722926081  0.00E+00

  *** SCF run converged in     7 steps ***


  Core Hamiltonian energy:                                     -6.23604113479801
  Repulsive potential energy:                                   0.31817753383681
  Electrostatic energy:                                         0.14909048737843
  Self-consistent dispersion energy:                           -0.00004449498984
  Non-self consistent dispersion energy:                        0.00000029964885
  Correction for halogen bonding:                               0.00000000000000

  Total energy:                                               -76.47229260807374


 MULLIKEN POPULATION ANALYSIS

  # Atom   Element   Kind        Atomic population                    Net charge
       1     H          1                 0.675801                      0.324199
       2     H          1                 0.675805                      0.324195
       3     O          2                 6.648394                     -0.648394
 # Total charge                           8.000000                     -0.000000


 tblite reference CLI check
 Executable: tblite
 Method:     gxtb
 Guess:      auto
 Solver:     gvd
 Spin-pol.:  F
 Grad file:  H2O_stress_L12_cli.grad
 JSON file:  H2O_stress_L12_cli.json
 Log file:   H2O_stress_L12_cli.log
 Energy CP2K/CLI/absdiff:   -7.647229260807E+01   -7.647229260873E+01    6.544809139086E-10
 Gradient diff sum/max:    7.874549821502E-08    2.031910203287E-08
 Virial diff sum/max:    1.539132860323E-01    5.665744008005E-02
 tblite reference CLI deviation exceeded ERROR_LIMIT =   1.0000E-05

 ENERGY| Total FORCE_EVAL ( QS ) energy [hartree]            -76.472292608073744

 -------------------------------------------------------------------------------
 ----                             MULTIGRID INFO                            ----
 -------------------------------------------------------------------------------
 total grid count     :           420              cutoff [a.u.]            1.00

 PW_GRID| Information for grid number                                         12
 PW_GRID| Cutoff [a.u.]                                                      1.0
 PW_GRID| spherical cutoff:                                                   NO
 PW_GRID|   Bounds   1             -6       5                Points:          12
 PW_GRID|   Bounds   2             -6       5                Points:          12
 PW_GRID|   Bounds   3             -6       5                Points:          12
 PW_GRID| Volume element (a.u.^3)   6.748         Volume (a.u.^3)     11661.1222
 PW_GRID| Grid span                                                    FULLSPACE

 POISSON| Solver                                                        PERIODIC
 POISSON| Periodicity                                                        XYZ

 RS_GRID| Information for grid number                                         12
 RS_GRID|   Bounds   1             -6       5                Points:          12
 RS_GRID|   Bounds   2             -6       5                Points:          12
 RS_GRID|   Bounds   3             -6       5                Points:          12

 Parameters for the always stable predictor-corrector (ASPC) method:

  ASPC order: 3

  B(1) =   3.000000
  B(2) =  -3.428571
  B(3) =   1.928571
  B(4) =  -0.571429
  B(5) =   0.071429

 Extrapolation method: ASPC

 Number of electrons:                                                          8
 Number of occupied orbitals:                                                  4
 Number of molecular orbitals:                                                 6

 Number of orbital functions:                                                  6
 Number of independent orbital functions:                                      6


 SCF WAVEFUNCTION OPTIMIZATION

  Step     Update method      Time    Convergence         Total energy    Change
  ------------------------------------------------------------------------------
     1 GXTB-Raw    0.10E+01    0.0     0.00000088       -76.4722924389 -7.65E+01
     2 GXTB-Simple 0.20E+00    0.0     0.00000041       -76.4722924389 -4.12E-13
     3 GXTB-Simple 0.20E+00    0.0     0.00000035       -76.4722924389 -2.98E-13
     4 GXTB-FDIIS  0.10E+01    0.0     0.00000183       -76.4722924389 -7.25E-13
     5 GXTB-FDIIS  0.10E+01    0.0     0.00000009       -76.4722924389 -1.42E-14
     6 GXTB-FDIIS  0.10E+01    0.0     7.0901E-09       -76.4722924389  1.42E-14
     7 GXTB-FDIIS  0.10E+01    0.0     7.2355E-10       -76.4722924389 -1.42E-14
     8 GXTB-FDIIS  0.10E+01    0.0     5.5151E-12       -76.4722924389  0.00E+00

  *** SCF run converged in     8 steps ***


  Core Hamiltonian energy:                                     -6.23604109463163
  Repulsive potential energy:                                   0.31817753425665
  Electrostatic energy:                                         0.14909045600963
  Self-consistent dispersion energy:                           -0.00004449498581
  Non-self consistent dispersion energy:                        0.00000029964859
  Correction for halogen bonding:                               0.00000000000000

  Total energy:                                               -76.47229243885720


 MULLIKEN POPULATION ANALYSIS

  # Atom   Element   Kind        Atomic population                    Net charge
       1     H          1                 0.675801                      0.324199
       2     H          1                 0.675805                      0.324195
       3     O          2                 6.648394                     -0.648394
 # Total charge                           8.000000                     -0.000000


 tblite reference CLI check
 Executable: tblite
 Method:     gxtb
 Guess:      auto
 Solver:     gvd
 Spin-pol.:  F
 Grad file:  H2O_stress_L12_cli.grad
 JSON file:  H2O_stress_L12_cli.json
 Log file:   H2O_stress_L12_cli.log
 Energy CP2K/CLI/absdiff:   -7.647229243886E+01   -7.647229243951E+01    6.544809139086E-10
 Gradient diff sum/max:    1.954878720514E-07    4.335667885298E-08
 Virial diff sum/max:    1.539134904437E-01    5.665742805019E-02
 tblite reference CLI deviation exceeded ERROR_LIMIT =   1.0000E-05

 ENERGY| Total FORCE_EVAL ( QS ) energy [hartree]            -76.472292438857195

 -------------------------------------------------------------------------------
 ----                             MULTIGRID INFO                            ----
 -------------------------------------------------------------------------------
 total grid count     :           420              cutoff [a.u.]            1.00

 PW_GRID| Information for grid number                                         13
 PW_GRID| Cutoff [a.u.]                                                      1.0
 PW_GRID| spherical cutoff:                                                   NO
 PW_GRID|   Bounds   1             -6       5                Points:          12
 PW_GRID|   Bounds   2             -6       5                Points:          12
 PW_GRID|   Bounds   3             -6       5                Points:          12
 PW_GRID| Volume element (a.u.^3)   6.748         Volume (a.u.^3)     11661.1222
 PW_GRID| Grid span                                                    FULLSPACE

 POISSON| Solver                                                        PERIODIC
 POISSON| Periodicity                                                        XYZ

 RS_GRID| Information for grid number                                         13
 RS_GRID|   Bounds   1             -6       5                Points:          12
 RS_GRID|   Bounds   2             -6       5                Points:          12
 RS_GRID|   Bounds   3             -6       5                Points:          12

 Parameters for the always stable predictor-corrector (ASPC) method:

  ASPC order: 3

  B(1) =   3.000000
  B(2) =  -3.428571
  B(3) =   1.928571
  B(4) =  -0.571429
  B(5) =   0.071429

 Extrapolation method: ASPC

 Number of electrons:                                                          8
 Number of occupied orbitals:                                                  4
 Number of molecular orbitals:                                                 6

 Number of orbital functions:                                                  6
 Number of independent orbital functions:                                      6


 SCF WAVEFUNCTION OPTIMIZATION

  Step     Update method      Time    Convergence         Total energy    Change
  ------------------------------------------------------------------------------
     1 GXTB-Raw    0.10E+01    0.0     0.00000176       -76.4722924389 -7.65E+01
     2 GXTB-Simple 0.20E+00    0.0     0.00000083       -76.4722924389 -1.62E-12
     3 GXTB-Simple 0.20E+00    0.0     0.00000070       -76.4722924389 -1.17E-12
     4 GXTB-FDIIS  0.10E+01    0.0     0.00000368       -76.4722924389 -2.93E-12
     5 GXTB-FDIIS  0.10E+01    0.0     0.00000017       -76.4722924389 -1.42E-14
     6 GXTB-FDIIS  0.10E+01    0.0     3.0230E-09       -76.4722924389  1.42E-14
     7 GXTB-FDIIS  0.10E+01    0.0     1.0183E-12       -76.4722924389  0.00E+00

  *** SCF run converged in     7 steps ***


  Core Hamiltonian energy:                                     -6.23604109463161
  Repulsive potential energy:                                   0.31817753425665
  Electrostatic energy:                                         0.14909045600962
  Self-consistent dispersion energy:                           -0.00004449498581
  Non-self consistent dispersion energy:                        0.00000029964859
  Correction for halogen bonding:                               0.00000000000000

  Total energy:                                               -76.47229243885718


 MULLIKEN POPULATION ANALYSIS

  # Atom   Element   Kind        Atomic population                    Net charge
       1     H          1                 0.675801                      0.324199
       2     H          1                 0.675805                      0.324195
       3     O          2                 6.648394                     -0.648394
 # Total charge                           8.000000                     -0.000000


 tblite reference CLI check
 Executable: tblite
 Method:     gxtb
 Guess:      auto
 Solver:     gvd
 Spin-pol.:  F
 Grad file:  H2O_stress_L12_cli.grad
 JSON file:  H2O_stress_L12_cli.json
 Log file:   H2O_stress_L12_cli.log
 Energy CP2K/CLI/absdiff:   -7.647229243886E+01   -7.647229243951E+01    6.544951247633E-10
 Gradient diff sum/max:    1.954878723143E-07    4.335667898446E-08
 Virial diff sum/max:    1.539134904437E-01    5.665742805019E-02
 tblite reference CLI deviation exceeded ERROR_LIMIT =   1.0000E-05

 ENERGY| Total FORCE_EVAL ( QS ) energy [hartree]            -76.472292438857181

 -------------------------------------------------------------------------------
 ----                             MULTIGRID INFO                            ----
 -------------------------------------------------------------------------------
 total grid count     :           420              cutoff [a.u.]            1.00

[...]
     7 GXTB-FDIIS  0.10E+01    0.0     1.9927E-09       -76.4722926815  0.00E+00
     8 GXTB-FDIIS  0.10E+01    0.0     3.1643E-10       -76.4722926815  0.00E+00
     9 GXTB-FDIIS  0.10E+01    0.0     5.3346E-13       -76.4722926815  0.00E+00

  *** SCF run converged in     9 steps ***


  Core Hamiltonian energy:                                     -6.23604420647795
  Repulsive potential energy:                                   0.31818069073820
  Electrostatic energy:                                         0.14909038457347
  Self-consistent dispersion energy:                           -0.00004449467451
  Non-self consistent dispersion energy:                        0.00000029964713
  Correction for halogen bonding:                               0.00000000000000

  Total energy:                                               -76.47229268151324


 MULLIKEN POPULATION ANALYSIS

  # Atom   Element   Kind        Atomic population                    Net charge
       1     H          1                 0.675800                      0.324200
       2     H          1                 0.675805                      0.324195
       3     O          2                 6.648394                     -0.648394
 # Total charge                           8.000000                     -0.000000


 tblite reference CLI check
 Executable: tblite
 Method:     gxtb
 Guess:      auto
 Solver:     gvd
 Spin-pol.:  F
 Grad file:  H2O_stress_L12_cli.grad
 JSON file:  H2O_stress_L12_cli.json
 Log file:   H2O_stress_L12_cli.log
 Energy CP2K/CLI/absdiff:   -7.647229268151E+01   -7.647229268217E+01    6.544667030539E-10
 Gradient diff sum/max:    7.980082151004E-06    3.687371960248E-06
 Virial diff sum/max:    1.539064423951E-01    5.665695404143E-02
 tblite reference CLI deviation exceeded ERROR_LIMIT =   1.0000E-05

 ENERGY| Total FORCE_EVAL ( QS ) energy [hartree]            -76.472292681513238

 -------------------------------------------------------------------------------
 ----                             MULTIGRID INFO                            ----
 -------------------------------------------------------------------------------
 total grid count     :           420              cutoff [a.u.]            1.00

 PW_GRID| Information for grid number                                         20
 PW_GRID| Cutoff [a.u.]                                                      1.0
 PW_GRID| spherical cutoff:                                                   NO
 PW_GRID|   Bounds   1             -6       5                Points:          12
 PW_GRID|   Bounds   2             -6       5                Points:          12
 PW_GRID|   Bounds   3             -6       5                Points:          12
 PW_GRID| Volume element (a.u.^3)   6.748         Volume (a.u.^3)     11661.1222
 PW_GRID| Grid span                                                    FULLSPACE

 POISSON| Solver                                                        PERIODIC
 POISSON| Periodicity                                                        XYZ

 RS_GRID| Information for grid number                                         20
 RS_GRID|   Bounds   1             -6       5                Points:          12
 RS_GRID|   Bounds   2             -6       5                Points:          12
 RS_GRID|   Bounds   3             -6       5                Points:          12

 Parameters for the always stable predictor-corrector (ASPC) method:

  ASPC order: 3

  B(1) =   3.000000
  B(2) =  -3.428571
  B(3) =   1.928571
  B(4) =  -0.571429
  B(5) =   0.071429

 Extrapolation method: ASPC

 Number of electrons:                                                          8
 Number of occupied orbitals:                                                  4
 Number of molecular orbitals:                                                 6

 Number of orbital functions:                                                  6
 Number of independent orbital functions:                                      6


 SCF WAVEFUNCTION OPTIMIZATION

  Step     Update method      Time    Convergence         Total energy    Change
  ------------------------------------------------------------------------------
     1 GXTB-Raw    0.10E+01    0.0     0.00000203       -76.4722924389 -7.65E+01
     2 GXTB-Simple 0.20E+00    0.0     0.00000031       -76.4722924389 -3.27E-13
     3 GXTB-Simple 0.20E+00    0.0     0.00000026       -76.4722924389 -2.27E-13
     4 GXTB-FDIIS  0.10E+01    0.0     0.00000119       -76.4722924389 -4.55E-13
     5 GXTB-FDIIS  0.10E+01    0.0     0.00000004       -76.4722924389  0.00E+00
     6 GXTB-FDIIS  0.10E+01    0.0     0.00000003       -76.4722924389  0.00E+00
     7 GXTB-FDIIS  0.10E+01    0.0     9.9639E-10       -76.4722924389  0.00E+00
     8 GXTB-FDIIS  0.10E+01    0.0     1.5822E-10       -76.4722924389  0.00E+00
     9 GXTB-FDIIS  0.10E+01    0.0     2.6698E-13       -76.4722924389  0.00E+00

  *** SCF run converged in     9 steps ***


  Core Hamiltonian energy:                                     -6.23604109463847
  Repulsive potential energy:                                   0.31817753426361
  Electrostatic energy:                                         0.14909045600947
  Self-consistent dispersion energy:                           -0.00004449498581
  Non-self consistent dispersion energy:                        0.00000029964859
  Correction for halogen bonding:                               0.00000000000000

  Total energy:                                               -76.47229243885772


 MULLIKEN POPULATION ANALYSIS

  # Atom   Element   Kind        Atomic population                    Net charge
       1     H          1                 0.675801                      0.324199
       2     H          1                 0.675805                      0.324195
       3     O          2                 6.648394                     -0.648394
 # Total charge                           8.000000                      0.000000


 tblite reference CLI check
 Executable: tblite
 Method:     gxtb
 Guess:      auto
 Solver:     gvd
 Spin-pol.:  F
 Grad file:  H2O_stress_L12_cli.grad
 JSON file:  H2O_stress_L12_cli.json
 Log file:   H2O_stress_L12_cli.log
 Energy CP2K/CLI/absdiff:   -7.647229243886E+01   -7.647229243951E+01    6.544951247633E-10
 Gradient diff sum/max:    1.087912824161E-07    3.022544819986E-08
 Virial diff sum/max:    1.539129892101E-01    5.665742804915E-02
 tblite reference CLI deviation exceeded ERROR_LIMIT =   1.0000E-05

 ENERGY| Total FORCE_EVAL ( QS ) energy [hartree]            -76.472292438857721
 DEBUG| Numerical pv_virial [a.u.]
 DEBUG|                  -0.056657471691      0.000000000000      0.001926825146
 DEBUG|                   0.000000000000     -0.038372416874      0.000000000806
 DEBUG|                   0.001926825146      0.000000000806     -0.055029528837

 DEBUG| Analytical pv_virial [a.u.]
 DEBUG|                  -0.056657471407     -0.000000000000      0.001926826427
 DEBUG|                  -0.000000000000     -0.038372417668     -0.000000000000
 DEBUG|                   0.001926826427     -0.000000000000     -0.055029529738

 DEBUG| Difference pv_virial [a.u.]
 DEBUG|                  -0.000000000284      0.000000000000     -0.000000001281
 DEBUG|                   0.000000000000      0.000000000794      0.000000000806
 DEBUG|                  -0.000000001281      0.000000000806      0.000000000901
 DEBUG| Sum of differences                                        0.000000006153

 DEBUG| Relative error pv_virial
 DEBUG| Threshold value for error check [a.u.]                    1.00000000E-05
 DEBUG|                           0.00 %                 - %             -0.00 %
 DEBUG|                              - %             -0.00 %                 - %
 DEBUG|                          -0.00 %                 - %             -0.00 %
 DEBUG| Maximum accepted error                                            0.20 %

 -------------------------------------------------------------------------------
 -                                                                             -
 -                                DBCSR STATISTICS                             -
 -                                                                             -
 -------------------------------------------------------------------------------
 COUNTER                                    TOTAL       BLAS       SMM       ACC
 flops     1 x     6 x     1                 3168     100.0%      0.0%      0.0%     
 flops     4 x     6 x     1                 6336     100.0%      0.0%      0.0%     
 flops     1 x     6 x     4                 6336     100.0%      0.0%      0.0%     
 flops     1 x     1 x     6                 6408     100.0%      0.0%      0.0%     
 flops     4 x     1 x     6                 8544     100.0%      0.0%      0.0%     
 flops     1 x     4 x     6                 8544     100.0%      0.0%      0.0%     
 flops     4 x     6 x     4                12672     100.0%      0.0%      0.0%     
 flops     4 x     4 x     6                34176     100.0%      0.0%      0.0%     
 flops inhomo. stacks                           0       0.0%      0.0%      0.0%
 flops total                        86.184000E+03     100.0%      0.0%      0.0%
 flops max/rank                     86.184000E+03     100.0%      0.0%      0.0%
 matmuls inhomo. stacks                         0       0.0%      0.0%      0.0%
 matmuls total                               1662     100.0%      0.0%      0.0%
 number of processed stacks                   976     100.0%      0.0%      0.0%
 average stack size                                     1.7       0.0       0.0
 marketing flops                    79.776000E+03
 -------------------------------------------------------------------------------
 # multiplications                            244
 max memory usage/rank               9.875952E+09
 # max total images/rank                        1
 # max 3D layers                                1
 # MPI messages exchanged                       0
 -------------------------------------------------------------------------------
 -                                                                             -
 -                      DBCSR MESSAGE PASSING PERFORMANCE                      -
 -                                                                             -
 -------------------------------------------------------------------------------
 ROUTINE             CALLS      AVE VOLUME [Bytes]
 MP_Bcast                9                     12.
 MP_Allreduce         1123                      9.
 MP_Alltoall          6370                    294.
 MP_ISend              976                     76.
 MP_IRecv              976                     76.
 -------------------------------------------------------------------------------

 -------------------------------------------------------------------------------
 -                                                                             -
 -                          OFFLOAD MEMPOOL STATISTICS                         -
 -                                                                             -
 -------------------------------------------------------------------------------
 Memory consumption                Number of allocations  Used [MiB]  Size [MiB]
 Host                                                  1           0           0
 -------------------------------------------------------------------------------

 MEMORY| Estimated peak process memory [MiB]                                 116

 -------------------------------------------------------------------------------
 ----                             MULTIGRID INFO                            ----
 -------------------------------------------------------------------------------
 total grid count     :           420              cutoff [a.u.]            1.00

 -------------------------------------------------------------------------------
 -                                                                             -
 -                         MESSAGE PASSING PERFORMANCE                         -
 -                                                                             -
 -------------------------------------------------------------------------------

 ROUTINE             CALLS      AVE VOLUME [Bytes]
 MP_Group               20
 MP_Bcast              316                     26.
 MP_Allreduce         5107                     50.
 MP_Sync               178
 MP_comm_split         158
 -------------------------------------------------------------------------------


 -------------------------------------------------------------------------------
 -                                                                             -
 -                           R E F E R E N C E S                               -
 -                                                                             -
 -------------------------------------------------------------------------------
 
 CP2K version 2026.2 (Development Version), the CP2K developers group (2026).
 CP2K is freely available from https://www.cp2k.org/ .
 
 M. Iannuzzi, J. Wilhelm, F. Stein, A. Bussy, H. Elgabarty, D. Golze, A. Hehn, 
 M. Graml, S. Marek, B. Sertcan Gökmen, C. Schran, H. Forbert, R. Z. 
 Khaliullin, A. Kozhevnikov, M. Taillefumier, R. Meli, V. V. Rybkin, M. Brehm, 
 R. Schade, O. Schütt, J. V. Pototschnig, H. Mirhosseini, A. Knüpfer, D. Marx, 
 M. Krack, J. Hutter, T. D. Kühne.
 J. Phys. Chem. B 130, 1237-1310 (2026).
 The CP2K Program Package Made Simple.
 https://doi.org/10.1021/acs.jpcb.5c05851

 A. Katbashev, M. Stahn, T. Rose, V. Alizadeh, M. Friede, C. Plett, P. 
 Steinbach, S. Ehlert.
 J. Phys. Chem. A 129, 2667-2682 (2025).
 Overview on Building Blocks and Applications of Efficient and Robust Extended 
 Tight Binding.
 https://doi.org/10.1021/acs.jpca.4c08263

 T. D. Kühne, M. Iannuzzi, M. Del Ben, V. V. Rybkin, P. Seewald, F. Stein, T. 
 Laino, R. Z. Khaliullin, O. Schütt, F. Schiffmann, D. Golze, J. Wilhelm, S. 
 Chulkov, M. H. Bani-Hashemian, V. Weber, U. Borstnik, M. Taillefumier, A. S. 
 Jakobovits, A. Lazzaro, H. Pabst, T. Müller, R. Schade, M. Guidon, S. 
 Andermatt, N. Holmberg, G. K. Schenter, A. Hehn, A. Bussy, F. Belleflamme, G. 
 Tabacchi, A. Glöß, M. Lass, I. Bethune, C. J. Mundy, C. Plessl, M. Watkins, 
 J. VandeVondele, M. Krack, J. Hutter.
 J. Chem. Phys. 152, 194103 (2020).
 CP2K: An electronic structure and molecular dynamics software package - 
 Quickstep: Efficient and accurate electronic structure calculations.
 https://doi.org/10.1063/5.0007045

 P. Pracht, E. Caldeweyher, S. Ehlert, S. Grimme.
 ChemRxiv, (2019).
 A Robust Non-Self-Consistent Tight-Binding Quantum Chemistry Method for large 
 Molecules.
 https://doi.org/10.26434/chemrxiv.8326202.v1

 S. Grimme, C. Bannwarth, P. Shushkov.
 J. Chem. Theory Comput. 13, 1989 (2017).
 A Robust and Accurate Tight-Binding Quantum Chemical Method for Structures, 
 Vibrational Frequencies, and Noncovalent Interactions of Large Molecular 
 Systems Parametrized for All spd-Block Elements (Z = 1-86).
 https://doi.org/10.1021/acs.jctc.7b00118

 O. Schuett, P. Messmer, J. Hutter, J. VandeVondele.
 Electronic Structure Calculations on Graphics Processing Units, 173-190 (2016).
 GPU-Accelerated Sparse Matrix-Matrix Multiplication for Linear Scaling Density 
 Functional Theory.
 https://doi.org/10.1002/9781118670712.ch8

 U. Borstnik, J. VandeVondele, V. Weber, J. Hutter.
 Parallel Comput. 40, 47-58 (2014).
 Sparse matrix multiplication: The distributed block-compressed sparse row 
 library.
 https://doi.org/10.1016/j.parco.2014.03.012

 T. D. Kühne, M. Krack, F. R. Mohamed, M. Parrinello.
 Phys. Rev. Lett. 98, 066401 (2007).
 Efficient and accurate Car-Parrinello-like approach to Born-Oppenheimer 
 molecular dynamics.
 https://doi.org/10.1103/PhysRevLett.98.066401

 M. Frigo, S. G. Johnson.
 Proc. IEEE 93, 216-231 (2005).
 The design and implementation of FFTW3.
 https://doi.org/10.1109/JPROC.2004.840301

 J. Kolafa.
 J. Comput. Chem. 25, 335-342 (2004).
 Time-reversible always stable predictor-corrector method for molecular dynamics 
 of polarizable molecules.
 https://doi.org/10.1002/jcc.10385


 -------------------------------------------------------------------------------
 -                                                                             -
 -                                T I M I N G                                  -
 -                                                                             -
 -------------------------------------------------------------------------------
 SUBROUTINE                       CALLS  ASD         SELF TIME        TOTAL TIME
                                MAXIMUM       AVERAGE  MAXIMUM  AVERAGE  MAXIMUM
 CP2K                                 1  1.0    0.005    0.005    0.809    0.809
 qs_energies                         20  2.0    0.001    0.001    0.764    0.764
 tb_reference_cli_compare            20  3.0    0.412    0.412    0.412    0.412
 scf_env_do_scf                      20  3.0    0.000    0.000    0.215    0.215
 scf_env_do_scf_inner_loop          158  4.1    0.025    0.025    0.215    0.215
 qs_scf_new_mos                     158  5.1    0.003    0.003    0.150    0.150
 calculate_dm_sparse                177  6.1    0.001    0.001    0.105    0.105
 cp_dbcsr_plus_fm_fm_t              178  7.1    0.002    0.002    0.104    0.104
 dbcsr_multiply_generic             244  8.0    0.006    0.006    0.094    0.094
 build_tblite_matrices               21  4.0    0.077    0.077    0.084    0.084
 qs_energies_init_hamiltonians       20  3.0    0.000    0.000    0.082    0.082
 init_scf_run                        20  3.0    0.000    0.000    0.056    0.056
 qs_forces                            1  2.0    0.000    0.000    0.052    0.052
 scf_env_initial_rho_setup           20  4.0    0.000    0.000    0.052    0.052
 wfi_extrapolate                     20  5.0    0.001    0.001    0.051    0.051
 make_m2s                           488  9.0    0.003    0.003    0.050    0.050
 dbcsr_complete_redistribute        666  8.3    0.016    0.016    0.039    0.039
 copy_dbcsr_to_fm                   244  6.2    0.002    0.002    0.038    0.038
 rebuild_ks_matrix                  178  5.8    0.000    0.000    0.036    0.036
 build_tblite_ks_matrix             178  6.8    0.030    0.030    0.036    0.036
 cp_dbcsr_sm_fm_multiply             66  6.0    0.001    0.001    0.033    0.033
 qs_ks_update_qs_env                177  4.8    0.000    0.000    0.032    0.032
 eigensolver                        158  6.1    0.008    0.008    0.029    0.029
 copy_fm_to_dbcsr                   422  7.9    0.001    0.001    0.027    0.027
 make_images                        488 10.0    0.006    0.006    0.023    0.023
 multiply_cannon                    244  9.0    0.013    0.013    0.022    0.022
 cp_fm_syevd                        158  7.1    0.000    0.000    0.019    0.019
 dbcsr_finalize                    3602  8.8    0.005    0.005    0.017    0.017
 cp_dbcsr_sm_fm_multiply_core        66  7.0    0.000    0.000    0.017    0.017
 dbcsr_create_new                  5546  9.4    0.013    0.013    0.017    0.017
 -------------------------------------------------------------------------------

 The number of warnings for this run is : 1
 
 -------------------------------------------------------------------------------
  **** **** ******  **  PROGRAM ENDED AT                 2026-07-21 17:58:19.021
 ***** ** ***  *** **   PROGRAM RAN ON                                     terok
 **    ****   ******    PROGRAM RAN BY                                  kuehne88
 ***** **    ** ** **   PROGRAM PROCESS ID                               1533294
  **** **  *******  **  PROGRAM STOPPED IN /home/kuehne88/work/h2o-molecular-lim
                                           it-fix-20260721/stress/raw/H2O_stress
                                           _L12
