 DBCSR| CPU Multiplication driver                                           XSMM (U)
 DBCSR| Multrec recursion limit                                              512 (U)
 DBCSR| Multiplication stack size                                           1000 (D)
 DBCSR| Maximum elements for images                                    UNLIMITED (U)
 DBCSR| Multiplicative factor virtual images                                   1 (U)
 DBCSR| Use multiplication densification                                       T (D)
 DBCSR| Multiplication size stacks                                             3 (U)
 DBCSR| Use memory pool for CPU allocation                                     F (U)
 DBCSR| Number of 3D layers                                               SINGLE (U)
 DBCSR| Use MPI memory allocation                                              F (U)
 DBCSR| Use RMA algorithm                                                      F (U)
 DBCSR| Use Communication thread                                               T (U)
 DBCSR| Communication thread load                                             87 (D)
 DBCSR| MPI: My process id                                                     0
 DBCSR| MPI: Number of processes                                               1
 DBCSR| OMP: Current number of threads                                         1
 DBCSR| OMP: Max number of threads                                             1
 DBCSR| Split modifier for TAS multiplication algorithm                  1.0E+00 (U)


  **** **** ******  **  PROGRAM STARTED AT               2026-05-23 22:47:26.679
 ***** ** ***  *** **   PROGRAM STARTED ON                            spark-c86c
 **    ****   ******    PROGRAM STARTED BY                              kuehne88
 ***** **    ** ** **   PROGRAM PROCESS ID                               2269361
  **** **  *******  **  PROGRAM STARTED IN /home/kuehne88/periodic-gfn2-benchmar
                                           ks/X23b/runs/cellopt_gamma/GFN2/forma
                                           mide_GFN2_gamma_cellopt

 CP2K| version string:                 CP2K version 2026.1 (Development Version)
 CP2K| source code revision number:                                   0622d442e4
 CP2K| cp2kflags: omp fftw3 libxc parallel scalapack mpi_f08 xsmm spglib libdftd
 CP2K|            4 dftd4_v3 mctc-lib tblite
 CP2K| is freely available from                            https://www.cp2k.org/
 CP2K| Program compiled at                                   2026-05-23 22:05:08
 CP2K| Program compiled on                                            spark-c86c
 CP2K| Program compiled for                                              aarch64
 CP2K| Data directory path    /home/kuehne88/cp2k-master-tblite-20260523/install
 CP2K| Input file name                          formamide_GFN2_gamma_cellopt.inp

 GLOBAL| Force Environment number                                              1
 GLOBAL| Basis set file name                                           BASIS_SET
 GLOBAL| Potential file name                                           POTENTIAL
 GLOBAL| MM Potential file name                                     MM_POTENTIAL
 GLOBAL| Coordinate file name                                      __STD_INPUT__
 GLOBAL| Method name                                                        CP2K
 GLOBAL| Project name                              formamide_GFN2_gamma_cell_opt
 GLOBAL| Run type                                                       CELL_OPT
 GLOBAL| FFT library                                                       FFTW3
 GLOBAL| Diagonalization library                                       ScaLAPACK
 GLOBAL| Cholesky decomposition library                                ScaLAPACK
 GLOBAL| DGEMM library                                                      BLAS
 GLOBAL| Direct generalized diagonalization requested                          F
 GLOBAL| Orthonormality check for eigenvectors                          DISABLED
 GLOBAL| Matrix multiplication library                                 ScaLAPACK
 GLOBAL| All-to-all communication in single precision                          F
 GLOBAL| FFTs using library dependent lengths                                  F
 GLOBAL| Grid backend                                                       AUTO
 GLOBAL| Global print level                                                  LOW
 GLOBAL| MPI I/O enabled                                                       T
 GLOBAL| Total number of message passing processes                             1
 GLOBAL| Number of distributed systems (nodes)                                 1
 GLOBAL| Number of threads for this process                                    1
 GLOBAL| This output is from process                                           0
 GLOBAL| OpenMP stack size per thread (OMP_STACKSIZE)                    default
 GLOBAL| CPU model name                                                  UNKNOWN
 GLOBAL| CPUID                                                              2200
 GLOBAL| Compiled for CPUID                                                 2000

 *** HINT in environment.F:970 :: The compiler target flags (arm_arch64)   ***
 *** used to build this binary cannot exploit all extensions of this CPU   ***
 *** model (arm_sve256). Consider compiler target flags as part of FCFLAGS ***
 *** and CFLAGS (ARCH file).                                               ***


 MEMORY| system memory details [Kb]
 MEMORY|                        rank 0           min           max       average
 MEMORY| MemTotal            125508532     125508532     125508532     125508532
 MEMORY| MemFree             104380756     104380756     104380756     104380756
 MEMORY| Buffers                868052        868052        868052        868052
 MEMORY| Cached               14078556      14078556      14078556      14078556
 MEMORY| Slab                  1596820       1596820       1596820       1596820
 MEMORY| SReclaimable           918644        918644        918644        918644
 MEMORY| MemLikelyFree       120246008     120246008     120246008     120246008


 GENERATE|  Preliminary Number of Bonds generated:                             0
 GENERATE|  Achieved consistency in connectivity generation.


                  #####   #####        #     #   #     #       #          
                 #     # #     #      #    ##### #     #   # #####  ####  
                 #     # #           #       #   ###   #       #   #    # 
                 #     #  #####     #        #   #  #  #   #   #   ###### 
                 #   # #       #   #         #   #   # #   #   #   #      
                 #    #  #     #  #          #   #  #  # # #   #    #   # 
                  #### #  #####  #           #   ###   ##  #   #     ###  

                                   GFN2-xTB  
                                 Version 0.0                       
                            Johann V. Pototschnig                  



 TOTAL NUMBERS AND MAXIMUM NUMBERS

  Total number of            - Atomic kinds:                                   4
                             - Atoms:                                         24
                             - Shell sets:                                    36
                             - Shells:                                        36
                             - Primitive Cartesian functions:                132
                             - Cartesian basis functions:                     60
                             - Spherical basis functions:                     60

  Maximum angular momentum of the orbital basis functions:                     1


 SCF PARAMETERS         Density guess:                                     MOPAC
                        --------------------------------------------------------
                        max_scf:                                             300
                        max_scf_history:                                       0
                        max_diis:                                              4
                        --------------------------------------------------------
                        eps_scf:                                        1.00E-09
                        eps_scf_history:                                0.00E+00
                        eps_diis:                                       1.00E-01
                        eps_eigval:                                     1.00E-05
                        --------------------------------------------------------
                        level_shift [a.u.]:                             0.000000
                        added MOs                                        24    0
                        --------------------------------------------------------
                        Mixing method:                           DIRECT_P_MIXING
                        --------------------------------------------------------
                        Smear method:                                FERMI_DIRAC
                        Electronic temperature [K]:                        300.0
                        Electronic temperature [a.u.]:                  9.50E-04
                        Accuracy threshold:                             1.00E-06
                        --------------------------------------------------------
                        No outer SCF

 CELL_OPT| Pressure tolerance [bar]:                                       100.0
 CELL_OPT| Keep volume of cell:                                               NO
 CELL_OPT| Keep angles between the cell vectors:                              NO
 CELL_OPT| Keep cell symmetry:                                                NO
 CELL_OPT| Constraint:                                                      NONE

 BFGS| Use rational function optimization for step estimation:                NO
 BFGS| Use model Hessian for initial guess:                                   NO
 BFGS| Restart Hessian:                                                       NO
 BFGS| Trust radius:                                                       0.472

 *******************************************************************************
 ***                     STARTING   CELL   OPTIMIZATION                      ***
 ***                                   BFGS                                  ***
 *******************************************************************************

 CELL| Volume [angstrom^3]:                                           224.074792
 CELL| Vector a [angstrom]:       3.604     0.000     0.000   |a| =     3.604000
 CELL| Vector b [angstrom]:       0.000     9.041     0.000   |b| =     9.041000
 CELL| Vector c [angstrom]:      -1.275     0.000     6.877   |c| =     6.994000
 CELL| Angle (b,c), alpha [degree]:                                    90.000000
 CELL| Angle (a,c), beta  [degree]:                                   100.500000
 CELL| Angle (a,b), gamma [degree]:                                    90.000000
 CELL| Numerically orthorhombic:                                              NO
 CELL| Periodicity                                                           XYZ

 Extrapolation method: initial_guess

 Number of electrons:                                                         72
 Number of occupied orbitals:                                                 36
 Number of molecular orbitals:                                                60

 Number of orbital functions:                                                 60
 Number of independent orbital functions:                                     60


 SCF WAVEFUNCTION OPTIMIZATION

  Step     Update method      Time    Convergence         Total energy    Change
  ------------------------------------------------------------------------------
     1 TBLite/Diag 0.40E+00    0.0     1.14527655       -41.9783164118 -4.20E+01
     2 TBLite/Diag 0.40E+00    0.0     0.27209767       -42.4614878459 -4.83E-01
     3 TBLite/Diag 0.40E+00    0.0     0.06063968       -42.4735867609 -1.21E-02
     4 TBLite/Diag 0.40E+00    0.0     0.04364332       -42.4791777863 -5.59E-03
     5 TBLite/Diag 0.40E+00    0.0     0.02070834       -42.4808882131 -1.71E-03
     6 TBLite/Diag 0.40E+00    0.0     0.00515494       -42.4809669253 -7.87E-05
     7 TBLite/Diag 0.40E+00    0.0     0.00508289       -42.4809866652 -1.97E-05
     8 TBLite/Diag 0.40E+00    0.0     0.00158535       -42.4810064794 -1.98E-05
     9 TBLite/Diag 0.40E+00    0.0     0.00037453       -42.4810070248 -5.45E-07
    10 TBLite/Diag 0.40E+00    0.0     0.00012023       -42.4810071384 -1.14E-07
    11 TBLite/Diag 0.40E+00    0.0     0.00001197       -42.4810071398 -1.30E-09
    12 TBLite/Diag 0.40E+00    0.0     0.00000657       -42.4810071400 -2.26E-10
    13 TBLite/Diag 0.40E+00    0.0     0.00000204       -42.4810071400 -9.49E-12
    14 TBLite/Diag 0.40E+00    0.0     0.00000018       -42.4810071400 -1.85E-13
    15 TBLite/Diag 0.40E+00    0.0     0.00000014       -42.4810071400 -8.53E-14
    16 TBLite/Diag 0.40E+00    0.0     0.00000002       -42.4810071400  0.00E+00
    17 TBLite/Diag 0.40E+00    0.0     9.9542E-09       -42.4810071400  1.42E-14
    18 TBLite/Diag 0.40E+00    0.0     3.8221E-09       -42.4810071400 -7.11E-15
    19 TBLite/Diag 0.40E+00    0.0     2.5242E-09       -42.4810071400 -2.13E-14
    20 TBLite/Diag 0.40E+00    0.0     9.7659E-10       -42.4810071400  7.11E-15

  *** SCF run converged in    20 steps ***


  Core Hamiltonian energy:                                    -43.38530199381627
  Repulsive potential energy:                                   0.80353410447026
  Electrostatic energy:                                         0.14256014689020
  Self-consistent dispersion energy:                           -0.05156676245490
  Non-self consistent dispersion energy:                        0.00976736492436
  Correction for halogen bonding:                               0.00000000000000
  Electronic entropic energy:                                  -0.00000000000000
  Fermi energy:                                                -0.26657941113137

  Total energy:                                               -42.48100713998635
  Total energy (extrapolated to T->0):                        -42.48100713998635

 ENERGY| Total FORCE_EVAL ( QS ) energy [hartree]            -42.481007139986353

 OPT| **************************************************************************
 OPT| Step number                                                              0
 OPT| Optimization method                                                   BFGS
 OPT| Total energy [hartree]                                      -42.4810071400
 OPT| Internal pressure [bar]                                  201889.5373324056
 OPT| Used time [s]                                                        1.236
 OPT| **************************************************************************
 OPT| Estimated peak process memory [MiB]                                    163

 --------------------------
 OPTIMIZATION STEP:      1
 --------------------------

 CELL| Volume [angstrom^3]:                                           230.069439
 CELL| Vector a [angstrom]:       3.660     0.000     0.000   |a| =     3.660478
 CELL| Vector b [angstrom]:       0.000     9.071     0.000   |b| =     9.071158
 CELL| Vector c [angstrom]:      -1.305    -0.000     6.929   |c| =     7.050578
 CELL| Angle (b,c), alpha [degree]:                                    90.000000
 CELL| Angle (a,c), beta  [degree]:                                   100.664144
 CELL| Angle (a,b), gamma [degree]:                                    90.000000
 CELL| Numerically orthorhombic:                                              NO
 CELL| Periodicity                                                           XYZ

 Extrapolation method: ASPC

 Number of electrons:                                                         72
 Number of occupied orbitals:                                                 36
 Number of molecular orbitals:                                                60

 Number of orbital functions:                                                 60
 Number of independent orbital functions:                                     60


 SCF WAVEFUNCTION OPTIMIZATION

  Step     Update method      Time    Convergence         Total energy    Change
  ------------------------------------------------------------------------------
     1 TBLite/Diag 0.40E+00    0.0     0.12302450       -42.6286570857 -4.26E+01
     2 TBLite/Diag 0.40E+00    0.0     0.01578824       -42.6300212276 -1.36E-03
     3 TBLite/Diag 0.40E+00    0.0     0.00572537       -42.6300722598 -5.10E-05
     4 TBLite/Diag 0.40E+00    0.0     0.00304384       -42.6301284004 -5.61E-05
     5 TBLite/Diag 0.40E+00    0.0     0.00044527       -42.6301296777 -1.28E-06
     6 TBLite/Diag 0.40E+00    0.0     0.00026898       -42.6301299187 -2.41E-07
     7 TBLite/Diag 0.40E+00    0.0     0.00006140       -42.6301299376 -1.89E-08
     8 TBLite/Diag 0.40E+00    0.0     0.00001045       -42.6301299380 -3.36E-10
     9 TBLite/Diag 0.40E+00    0.0     0.00000663       -42.6301299382 -2.12E-10
    10 TBLite/Diag 0.40E+00    0.0     0.00000084       -42.6301299382 -8.53E-13
    11 TBLite/Diag 0.40E+00    0.0     0.00000042       -42.6301299382 -6.75E-13
    12 TBLite/Diag 0.40E+00    0.0     0.00000003       -42.6301299382  2.13E-14
    13 TBLite/Diag 0.40E+00    0.0     9.9719E-09       -42.6301299382 -2.84E-14
    14 TBLite/Diag 0.40E+00    0.0     2.4726E-09       -42.6301299382  7.11E-15
    15 TBLite/Diag 0.40E+00    0.0     1.0484E-09       -42.6301299382  0.00E+00
    16 TBLite/Diag 0.40E+00    0.0     4.2955E-10       -42.6301299382 -4.97E-14

  *** SCF run converged in    16 steps ***


  Core Hamiltonian energy:                                    -43.29138401073012
  Repulsive potential energy:                                   0.55938812719604
  Electrostatic energy:                                         0.14325440421621
  Self-consistent dispersion energy:                           -0.05066270994646
  Non-self consistent dispersion energy:                        0.00927425107784
  Correction for halogen bonding:                               0.00000000000000
  Electronic entropic energy:                                  -0.00000000000000
  Fermi energy:                                                -0.23422419141468

  Total energy:                                               -42.63012993818649
  Total energy (extrapolated to T->0):                        -42.63012993818649

 ENERGY| Total FORCE_EVAL ( QS ) energy [hartree]            -42.630129938186485

 OPT| **************************************************************************
 OPT| Step number                                                              1
 OPT| Optimization method                                                   BFGS
 OPT| Total energy [hartree]                                      -42.6301299382
 OPT| Internal pressure [bar]                                   91806.3253859090
 OPT| Effective energy change [hartree]                            -0.1491227982
 OPT| Predicted energy change [hartree]                            -0.2177761351
 OPT| Scaling factor                                                0.0000000000
 OPT| Step size                                                     0.1726959058
 OPT| Trust radius                                                  0.4724315332
 OPT| Decrease in energy                                                     YES
 OPT| Used time [s]                                                        1.190
 OPT|
 OPT| Maximum step size                                             0.1726959058
 OPT| Convergence limit for maximum step size                       0.0030000000
 OPT| Maximum step size is converged                                          NO
 OPT|
 OPT| RMS step size                                                 0.0747261899
 OPT| Convergence limit for RMS step size                           0.0015000000
 OPT| RMS step size is converged                                              NO
 OPT|
 OPT| Maximum gradient                                              0.0883221625
 OPT| Convergence limit for maximum gradient                        0.0004500000
 OPT| Maximum gradient is converged                                           NO
 OPT|
 OPT| RMS gradient                                                  0.0342274136
 OPT| Convergence limit for RMS gradient                            0.0003000000
 OPT| RMS gradient is converged                                               NO
 OPT|
 OPT| Pressure deviation [bar]                                  91806.3253859090
 OPT| Pressure tolerance [bar]                                    100.0000000000
 OPT| Pressure is converged                                                   NO
 OPT| **************************************************************************
 OPT| Estimated peak process memory after this step [MiB]                    163

 --------------------------
 OPTIMIZATION STEP:      2
 --------------------------

 CELL| Volume [angstrom^3]:                                           233.192775
 CELL| Vector a [angstrom]:       3.689     0.000     0.000   |a| =     3.688778
 CELL| Vector b [angstrom]:       0.000     9.091     0.000   |b| =     9.091415
 CELL| Vector c [angstrom]:      -1.312    -0.000     6.953   |c| =     7.076074
 CELL| Angle (b,c), alpha [degree]:                                    90.000000
 CELL| Angle (a,c), beta  [degree]:                                   100.681591
 CELL| Angle (a,b), gamma [degree]:                                    90.000000
 CELL| Numerically orthorhombic:                                              NO
 CELL| Periodicity                                                           XYZ

 Extrapolation method: ASPC

 Number of electrons:                                                         72
 Number of occupied orbitals:                                                 36
 Number of molecular orbitals:                                                60

 Number of orbital functions:                                                 60
 Number of independent orbital functions:                                     60


 SCF WAVEFUNCTION OPTIMIZATION

  Step     Update method      Time    Convergence         Total energy    Change
  ------------------------------------------------------------------------------
     1 TBLite/Diag 0.40E+00    0.0     0.06593863       -42.6610294084 -4.27E+01
     2 TBLite/Diag 0.40E+00    0.0     0.03463951       -42.6651968158 -4.17E-03
     3 TBLite/Diag 0.40E+00    0.0     0.00414518       -42.6652734283 -7.66E-05
     4 TBLite/Diag 0.40E+00    0.0     0.00157409       -42.6652838245 -1.04E-05
     5 TBLite/Diag 0.40E+00    0.0     0.00054174       -42.6652851091 -1.28E-06
     6 TBLite/Diag 0.40E+00    0.0     0.00018607       -42.6652853038 -1.95E-07
     7 TBLite/Diag 0.40E+00    0.0     0.00006048       -42.6652853057 -1.86E-09
     8 TBLite/Diag 0.40E+00    0.0     0.00002676       -42.6652853115 -5.88E-09
     9 TBLite/Diag 0.40E+00    0.0     0.00000303       -42.6652853116 -5.60E-11
    10 TBLite/Diag 0.40E+00    0.0     0.00000054       -42.6652853116 -7.53E-13
    11 TBLite/Diag 0.40E+00    0.0     0.00000022       -42.6652853116 -7.11E-14
    12 TBLite/Diag 0.40E+00    0.0     0.00000007       -42.6652853116  3.55E-14
    13 TBLite/Diag 0.40E+00    0.0     0.00000003       -42.6652853116 -2.84E-14
    14 TBLite/Diag 0.40E+00    0.0     5.5389E-09       -42.6652853116  7.11E-15
    15 TBLite/Diag 0.40E+00    0.0     1.1739E-09       -42.6652853116  3.55E-14
    16 TBLite/Diag 0.40E+00    0.0     5.6088E-10       -42.6652853116 -3.55E-14

  *** SCF run converged in    16 steps ***


  Core Hamiltonian energy:                                    -43.22733868097745
  Repulsive potential energy:                                   0.46604899726366
  Electrostatic energy:                                         0.13669557227180
  Self-consistent dispersion energy:                           -0.04971304950799
  Non-self consistent dispersion energy:                        0.00902184934881
  Correction for halogen bonding:                               0.00000000000000
  Electronic entropic energy:                                  -0.00000000000000
  Fermi energy:                                                -0.25840801926417

  Total energy:                                               -42.66528531160117
  Total energy (extrapolated to T->0):                        -42.66528531160117

 ENERGY| Total FORCE_EVAL ( QS ) energy [hartree]            -42.665285311601174

 OPT| **************************************************************************
 OPT| Step number                                                              2
 OPT| Optimization method                                                   BFGS
 OPT| Total energy [hartree]                                      -42.6652853116
 OPT| Internal pressure [bar]                                   15605.2682917910
 OPT| Effective energy change [hartree]                            -0.0351553734
 OPT| Predicted energy change [hartree]                            -0.0343492476
 OPT| Scaling factor                                                0.0000000000
 OPT| Step size                                                     0.0588376264
 OPT| Trust radius                                                  0.4724315332
 OPT| Decrease in energy                                                     YES
 OPT| Used time [s]                                                        1.160
 OPT|
 OPT| Maximum step size                                             0.0588376264
 OPT| Convergence limit for maximum step size                       0.0030000000
 OPT| Maximum step size is converged                                          NO
 OPT|
 OPT| RMS step size                                                 0.0273767701
 OPT| Convergence limit for RMS step size                           0.0015000000
 OPT| RMS step size is converged                                              NO
 OPT|
 OPT| Maximum gradient                                              0.0378842711
 OPT| Convergence limit for maximum gradient                        0.0004500000
 OPT| Maximum gradient is converged                                           NO
 OPT|
 OPT| RMS gradient                                                  0.0078267833
 OPT| Convergence limit for RMS gradient                            0.0003000000
 OPT| RMS gradient is converged                                               NO
 OPT|
 OPT| Pressure deviation [bar]                                  15605.2682917910
 OPT| Pressure tolerance [bar]                                    100.0000000000
 OPT| Pressure is converged                                                   NO
 OPT| **************************************************************************
 OPT| Estimated peak process memory after this step [MiB]                    164

 --------------------------
 OPTIMIZATION STEP:      3
 --------------------------

 CELL| Volume [angstrom^3]:                                           234.812957
 CELL| Vector a [angstrom]:       3.713     0.000     0.000   |a| =     3.712984
 CELL| Vector b [angstrom]:       0.000     9.093     0.000   |b| =     9.092786
 CELL| Vector c [angstrom]:      -1.314    -0.000     6.955   |c| =     7.078064
 CELL| Angle (b,c), alpha [degree]:                                    90.000000
 CELL| Angle (a,c), beta  [degree]:                                   100.696445
 CELL| Angle (a,b), gamma [degree]:                                    90.000000
 CELL| Numerically orthorhombic:                                              NO
 CELL| Periodicity                                                           XYZ

 Extrapolation method: ASPC

 Number of electrons:                                                         72
 Number of occupied orbitals:                                                 36
 Number of molecular orbitals:                                                60

 Number of orbital functions:                                                 60
 Number of independent orbital functions:                                     60


 SCF WAVEFUNCTION OPTIMIZATION

  Step     Update method      Time    Convergence         Total energy    Change
  ------------------------------------------------------------------------------
     1 TBLite/Diag 0.40E+00    0.0     0.02914837       -42.6678416583 -4.27E+01
     2 TBLite/Diag 0.40E+00    0.0     0.01367926       -42.6683042905 -4.63E-04
     3 TBLite/Diag 0.40E+00    0.0     0.00210069       -42.6683341908 -2.99E-05
     4 TBLite/Diag 0.40E+00    0.0     0.00074203       -42.6683350834 -8.93E-07
     5 TBLite/Diag 0.40E+00    0.0     0.00042614       -42.6683359309 -8.47E-07
     6 TBLite/Diag 0.40E+00    0.0     0.00007764       -42.6683359771 -4.62E-08
     7 TBLite/Diag 0.40E+00    0.0     0.00001406       -42.6683359776 -5.36E-10
     8 TBLite/Diag 0.40E+00    0.0     0.00000689       -42.6683359778 -1.80E-10
     9 TBLite/Diag 0.40E+00    0.0     0.00000135       -42.6683359778 -1.80E-12
    10 TBLite/Diag 0.40E+00    0.0     0.00000072       -42.6683359778 -2.22E-12
    11 TBLite/Diag 0.40E+00    0.0     0.00000010       -42.6683359778  1.42E-14
    12 TBLite/Diag 0.40E+00    0.0     0.00000005       -42.6683359778 -7.11E-15
    13 TBLite/Diag 0.40E+00    0.0     6.8988E-09       -42.6683359778  2.13E-14
    14 TBLite/Diag 0.40E+00    0.0     3.3003E-09       -42.6683359778 -7.11E-15
    15 TBLite/Diag 0.40E+00    0.0     1.0513E-09       -42.6683359778 -3.55E-14
    16 TBLite/Diag 0.40E+00    0.0     1.1659E-09       -42.6683359778  7.11E-14
    17 TBLite/Diag 0.40E+00    0.0     3.2936E-10       -42.6683359778 -9.95E-14

  *** SCF run converged in    17 steps ***


  Core Hamiltonian energy:                                    -43.21287723196566
  Repulsive potential energy:                                   0.44305180806852
  Electrostatic energy:                                         0.14182381143336
  Self-consistent dispersion energy:                           -0.04923577468769
  Non-self consistent dispersion energy:                        0.00890140937895
  Correction for halogen bonding:                               0.00000000000000
  Electronic entropic energy:                                  -0.00000000000000
  Fermi energy:                                                -0.26424498914614

  Total energy:                                               -42.66833597777252
  Total energy (extrapolated to T->0):                        -42.66833597777252

 ENERGY| Total FORCE_EVAL ( QS ) energy [hartree]            -42.668335977772522

 OPT| **************************************************************************
 OPT| Step number                                                              3
 OPT| Optimization method                                                   BFGS
 OPT| Total energy [hartree]                                      -42.6683359778
 OPT| Internal pressure [bar]                                   -6202.8342161014
 OPT| Effective energy change [hartree]                            -0.0030506662
 OPT| Predicted energy change [hartree]                            -0.0027200963
 OPT| Scaling factor                                                0.0000000000
 OPT| Step size                                                     0.0457425256
 OPT| Trust radius                                                  0.4724315332
 OPT| Decrease in energy                                                     YES
 OPT| Used time [s]                                                        1.165
 OPT|
 OPT| Maximum step size                                             0.0457425256
 OPT| Convergence limit for maximum step size                       0.0030000000
 OPT| Maximum step size is converged                                          NO
 OPT|
 OPT| RMS step size                                                 0.0091004118
 OPT| Convergence limit for RMS step size                           0.0015000000
 OPT| RMS step size is converged                                              NO
 OPT|
 OPT| Maximum gradient                                              0.0291633737
 OPT| Convergence limit for maximum gradient                        0.0004500000
 OPT| Maximum gradient is converged                                           NO
 OPT|
 OPT| RMS gradient                                                  0.0050453090
 OPT| Convergence limit for RMS gradient                            0.0003000000
 OPT| RMS gradient is converged                                               NO
 OPT|
 OPT| Pressure deviation [bar]                                  -6202.8342161014
 OPT| Pressure tolerance [bar]                                    100.0000000000
 OPT| Pressure is converged                                                   NO
 OPT| **************************************************************************
 OPT| Estimated peak process memory after this step [MiB]                    164

 --------------------------
 OPTIMIZATION STEP:      4
 --------------------------

 CELL| Volume [angstrom^3]:                                           236.469564
 CELL| Vector a [angstrom]:       3.743     0.000     0.000   |a| =     3.743198
 CELL| Vector b [angstrom]:       0.000     9.086     0.000   |b| =     9.085770
 CELL| Vector c [angstrom]:      -1.315    -0.000     6.953   |c| =     7.076285
 CELL| Angle (b,c), alpha [degree]:                                    90.000000
 CELL| Angle (a,c), beta  [degree]:                                   100.711832
 CELL| Angle (a,b), gamma [degree]:                                    90.000000
 CELL| Numerically orthorhombic:                                              NO
 CELL| Periodicity                                                           XYZ

 Extrapolation method: ASPC

 Number of electrons:                                                         72
 Number of occupied orbitals:                                                 36
 Number of molecular orbitals:                                                60

 Number of orbital functions:                                                 60
 Number of independent orbital functions:                                     60


 SCF WAVEFUNCTION OPTIMIZATION

  Step     Update method      Time    Convergence         Total energy    Change
  ------------------------------------------------------------------------------
     1 TBLite/Diag 0.40E+00    0.0     0.00544200       -42.6705242921 -4.27E+01
     2 TBLite/Diag 0.40E+00    0.0     0.00243404       -42.6705421394 -1.78E-05
     3 TBLite/Diag 0.40E+00    0.0     0.00047900       -42.6705426555 -5.16E-07
     4 TBLite/Diag 0.40E+00    0.0     0.00025141       -42.6705428817 -2.26E-07
     5 TBLite/Diag 0.40E+00    0.0     0.00008206       -42.6705429079 -2.63E-08
     6 TBLite/Diag 0.40E+00    0.0     0.00002588       -42.6705429109 -2.90E-09
     7 TBLite/Diag 0.40E+00    0.0     0.00000420       -42.6705429109 -6.57E-11
     8 TBLite/Diag 0.40E+00    0.0     0.00000109       -42.6705429109 -2.68E-12
     9 TBLite/Diag 0.40E+00    0.0     0.00000080       -42.6705429109 -1.13E-12
    10 TBLite/Diag 0.40E+00    0.0     0.00000030       -42.6705429109 -2.98E-13
    11 TBLite/Diag 0.40E+00    0.0     0.00000005       -42.6705429109  0.00E+00
    12 TBLite/Diag 0.40E+00    0.0     5.4466E-09       -42.6705429109  8.53E-14
    13 TBLite/Diag 0.40E+00    0.0     2.6365E-09       -42.6705429109 -7.82E-14
    14 TBLite/Diag 0.40E+00    0.0     6.7268E-10       -42.6705429109  0.00E+00

  *** SCF run converged in    14 steps ***


  Core Hamiltonian energy:                                    -43.20885753882570
  Repulsive potential energy:                                   0.43742029967271
  Electrostatic energy:                                         0.14096610353948
  Self-consistent dispersion energy:                           -0.04885367038127
  Non-self consistent dispersion energy:                        0.00878189507330
  Correction for halogen bonding:                               0.00000000000000
  Electronic entropic energy:                                  -0.00000000000000
  Fermi energy:                                                -0.26476440041243

  Total energy:                                               -42.67054291092146
  Total energy (extrapolated to T->0):                        -42.67054291092146

 ENERGY| Total FORCE_EVAL ( QS ) energy [hartree]            -42.670542910921462

 OPT| **************************************************************************
 OPT| Step number                                                              4
 OPT| Optimization method                                                   BFGS
 OPT| Total energy [hartree]                                      -42.6705429109
 OPT| Internal pressure [bar]                                  -11966.4938969535
 OPT| Effective energy change [hartree]                            -0.0022069331
 OPT| Predicted energy change [hartree]                            -0.0013374434
 OPT| Scaling factor                                                0.0000000000
 OPT| Step size                                                     0.0570955532
 OPT| Trust radius                                                  0.4724315332
 OPT| Decrease in energy                                                     YES
 OPT| Used time [s]                                                        1.133
 OPT|
 OPT| Maximum step size                                             0.0570955532
 OPT| Convergence limit for maximum step size                       0.0030000000
 OPT| Maximum step size is converged                                          NO
 OPT|
 OPT| RMS step size                                                 0.0082126894
 OPT| Convergence limit for RMS step size                           0.0015000000
 OPT| RMS step size is converged                                              NO
 OPT|
 OPT| Maximum gradient                                              0.0249344147
 OPT| Convergence limit for maximum gradient                        0.0004500000
 OPT| Maximum gradient is converged                                           NO
 OPT|
 OPT| RMS gradient                                                  0.0044872933
 OPT| Convergence limit for RMS gradient                            0.0003000000
 OPT| RMS gradient is converged                                               NO
 OPT|
 OPT| Pressure deviation [bar]                                 -11966.4938969535
 OPT| Pressure tolerance [bar]                                    100.0000000000
 OPT| Pressure is converged                                                   NO
 OPT| **************************************************************************
 OPT| Estimated peak process memory after this step [MiB]                    164

 --------------------------
 OPTIMIZATION STEP:      5
 --------------------------

 CELL| Volume [angstrom^3]:                                           241.321694
 CELL| Vector a [angstrom]:       3.841     0.000     0.000   |a| =     3.841035
 CELL| Vector b [angstrom]:      -0.000     9.057     0.000   |b| =     9.056716
 CELL| Vector c [angstrom]:      -1.318    -0.000     6.937   |c| =     7.061104
 CELL| Angle (b,c), alpha [degree]:                                    90.000000
 CELL| Angle (a,c), beta  [degree]:                                   100.754055
 CELL| Angle (a,b), gamma [degree]:                                    90.000000
 CELL| Numerically orthorhombic:                                              NO
 CELL| Periodicity                                                           XYZ

 Extrapolation method: ASPC

 Number of electrons:                                                         72
 Number of occupied orbitals:                                                 36
 Number of molecular orbitals:                                                60

 Number of orbital functions:                                                 60
 Number of independent orbital functions:                                     60


 SCF WAVEFUNCTION OPTIMIZATION

  Step     Update method      Time    Convergence         Total energy    Change
  ------------------------------------------------------------------------------
     1 TBLite/Diag 0.40E+00    0.0     0.01171124       -42.6749299142 -4.27E+01
     2 TBLite/Diag 0.40E+00    0.0     0.00447536       -42.6749912023 -6.13E-05
     3 TBLite/Diag 0.40E+00    0.0     0.00101301       -42.6749929381 -1.74E-06
     4 TBLite/Diag 0.40E+00    0.0     0.00073035       -42.6749949341 -2.00E-06
     5 TBLite/Diag 0.40E+00    0.0     0.00016775       -42.6749950415 -1.07E-07
     6 TBLite/Diag 0.40E+00    0.0     0.00005605       -42.6749950585 -1.70E-08
     7 TBLite/Diag 0.40E+00    0.0     0.00001156       -42.6749950590 -4.40E-10
     8 TBLite/Diag 0.40E+00    0.0     0.00000100       -42.6749950590 -9.42E-12
     9 TBLite/Diag 0.40E+00    0.0     0.00000062       -42.6749950590 -2.45E-12
    10 TBLite/Diag 0.40E+00    0.0     0.00000030       -42.6749950590 -1.42E-13
    11 TBLite/Diag 0.40E+00    0.0     0.00000012       -42.6749950590 -4.97E-14
    12 TBLite/Diag 0.40E+00    0.0     0.00000001       -42.6749950590  2.84E-14
    13 TBLite/Diag 0.40E+00    0.0     5.6662E-09       -42.6749950590 -6.39E-14
    14 TBLite/Diag 0.40E+00    0.0     1.6115E-09       -42.6749950590  7.11E-14
    15 TBLite/Diag 0.40E+00    0.0     1.0397E-09       -42.6749950590 -3.55E-14
    16 TBLite/Diag 0.40E+00    0.0     4.9209E-10       -42.6749950590 -6.39E-14

  *** SCF run converged in    16 steps ***


  Core Hamiltonian energy:                                    -43.20718547201969
  Repulsive potential energy:                                   0.43257386168841
  Electrostatic energy:                                         0.13887249334301
  Self-consistent dispersion energy:                           -0.04770902880932
  Non-self consistent dispersion energy:                        0.00845308680952
  Correction for halogen bonding:                               0.00000000000000
  Electronic entropic energy:                                  -0.00000000000000
  Fermi energy:                                                -0.26420595708047

  Total energy:                                               -42.67499505898807
  Total energy (extrapolated to T->0):                        -42.67499505898807

 ENERGY| Total FORCE_EVAL ( QS ) energy [hartree]            -42.674995058988067

 OPT| **************************************************************************
 OPT| Step number                                                              5
 OPT| Optimization method                                                   BFGS
 OPT| Total energy [hartree]                                      -42.6749950590
 OPT| Internal pressure [bar]                                  -19099.1079114834
 OPT| Effective energy change [hartree]                            -0.0044521481
 OPT| Predicted energy change [hartree]                            -0.0033627907
 OPT| Scaling factor                                                0.0000000000
 OPT| Step size                                                     0.1848852287
 OPT| Trust radius                                                  0.4724315332
 OPT| Decrease in energy                                                     YES
 OPT| Used time [s]                                                        1.120
 OPT|
 OPT| Maximum step size                                             0.1848852287
 OPT| Convergence limit for maximum step size                       0.0030000000
 OPT| Maximum step size is converged                                          NO
 OPT|
 OPT| RMS step size                                                 0.0251223017
 OPT| Convergence limit for RMS step size                           0.0015000000
 OPT| RMS step size is converged                                              NO
 OPT|
 OPT| Maximum gradient                                              0.0150972513
 OPT| Convergence limit for maximum gradient                        0.0004500000
 OPT| Maximum gradient is converged                                           NO
 OPT|
 OPT| RMS gradient                                                  0.0047822026
 OPT| Convergence limit for RMS gradient                            0.0003000000
 OPT| RMS gradient is converged                                               NO
 OPT|
 OPT| Pressure deviation [bar]                                 -19099.1079114834
 OPT| Pressure tolerance [bar]                                    100.0000000000
 OPT| Pressure is converged                                                   NO
 OPT| **************************************************************************
 OPT| Estimated peak process memory after this step [MiB]                    164

 --------------------------
 OPTIMIZATION STEP:      6
 --------------------------

 CELL| Volume [angstrom^3]:                                           245.057822
 CELL| Vector a [angstrom]:       3.926     0.000     0.000   |a| =     3.925847
 CELL| Vector b [angstrom]:      -0.000     9.027     0.000   |b| =     9.026722
 CELL| Vector c [angstrom]:      -1.317     0.000     6.915   |c| =     7.039549
 CELL| Angle (b,c), alpha [degree]:                                    90.000000
 CELL| Angle (a,c), beta  [degree]:                                   100.784947
 CELL| Angle (a,b), gamma [degree]:                                    90.000000
 CELL| Numerically orthorhombic:                                              NO
 CELL| Periodicity                                                           XYZ

 Extrapolation method: ASPC

 Number of electrons:                                                         72
 Number of occupied orbitals:                                                 36
 Number of molecular orbitals:                                                60

 Number of orbital functions:                                                 60
 Number of independent orbital functions:                                     60


 SCF WAVEFUNCTION OPTIMIZATION

  Step     Update method      Time    Convergence         Total energy    Change
  ------------------------------------------------------------------------------
     1 TBLite/Diag 0.40E+00    0.0     0.00925026       -42.6778373130 -4.27E+01
     2 TBLite/Diag 0.40E+00    0.0     0.00149873       -42.6778455974 -8.28E-06
     3 TBLite/Diag 0.40E+00    0.0     0.00071675       -42.6778461275 -5.30E-07
     4 TBLite/Diag 0.40E+00    0.0     0.00058033       -42.6778473268 -1.20E-06
     5 TBLite/Diag 0.40E+00    0.0     0.00008683       -42.6778473593 -3.25E-08
     6 TBLite/Diag 0.40E+00    0.0     0.00003979       -42.6778473667 -7.34E-09
     7 TBLite/Diag 0.40E+00    0.0     0.00000784       -42.6778473670 -3.04E-10
     8 TBLite/Diag 0.40E+00    0.0     0.00000184       -42.6778473670 -1.17E-11
     9 TBLite/Diag 0.40E+00    0.0     0.00000109       -42.6778473670 -4.86E-12
    10 TBLite/Diag 0.40E+00    0.0     0.00000027       -42.6778473670 -2.77E-13
    11 TBLite/Diag 0.40E+00    0.0     0.00000006       -42.6778473670  0.00E+00
    12 TBLite/Diag 0.40E+00    0.0     0.00000003       -42.6778473670 -2.13E-14
    13 TBLite/Diag 0.40E+00    0.0     7.2096E-09       -42.6778473670  2.84E-14
    14 TBLite/Diag 0.40E+00    0.0     2.4902E-09       -42.6778473670 -5.68E-14
    15 TBLite/Diag 0.40E+00    0.0     1.3620E-09       -42.6778473670  2.13E-14
    16 TBLite/Diag 0.40E+00    0.0     1.1659E-09       -42.6778473670  2.84E-14
    17 TBLite/Diag 0.40E+00    0.0     1.8523E-10       -42.6778473670 -7.11E-15

  *** SCF run converged in    17 steps ***


  Core Hamiltonian energy:                                    -43.21295858566194
  Repulsive potential energy:                                   0.43594712445271
  Electrostatic energy:                                         0.13774178734782
  Self-consistent dispersion energy:                           -0.04679843659101
  Non-self consistent dispersion energy:                        0.00822074343945
  Correction for halogen bonding:                               0.00000000000000
  Electronic entropic energy:                                  -0.00000000000000
  Fermi energy:                                                -0.26267703853910

  Total energy:                                               -42.67784736701297
  Total energy (extrapolated to T->0):                        -42.67784736701297

 ENERGY| Total FORCE_EVAL ( QS ) energy [hartree]            -42.677847367012973

 OPT| **************************************************************************
 OPT| Step number                                                              6
 OPT| Optimization method                                                   BFGS
 OPT| Total energy [hartree]                                      -42.6778473670
 OPT| Internal pressure [bar]                                  -18260.5163632655
 OPT| Effective energy change [hartree]                            -0.0028523080
 OPT| Predicted energy change [hartree]                            -0.0019082244
 OPT| Scaling factor                                                0.0000000000
 OPT| Step size                                                     0.1602724217
 OPT| Trust radius                                                  0.4724315332
 OPT| Decrease in energy                                                     YES
 OPT| Used time [s]                                                        1.126
 OPT|
 OPT| Maximum step size                                             0.1602724217
 OPT| Convergence limit for maximum step size                       0.0030000000
 OPT| Maximum step size is converged                                          NO
 OPT|
 OPT| RMS step size                                                 0.0215989946
 OPT| Convergence limit for RMS step size                           0.0015000000
 OPT| RMS step size is converged                                              NO
 OPT|
 OPT| Maximum gradient                                              0.0159980849
 OPT| Convergence limit for maximum gradient                        0.0004500000
 OPT| Maximum gradient is converged                                           NO
 OPT|
 OPT| RMS gradient                                                  0.0046050049
 OPT| Convergence limit for RMS gradient                            0.0003000000
 OPT| RMS gradient is converged                                               NO
 OPT|
 OPT| Pressure deviation [bar]                                 -18260.5163632655
 OPT| Pressure tolerance [bar]                                    100.0000000000
 OPT| Pressure is converged                                                   NO
 OPT| **************************************************************************
 OPT| Estimated peak process memory after this step [MiB]                    164

 --------------------------
 OPTIMIZATION STEP:      7
 --------------------------

 CELL| Volume [angstrom^3]:                                           249.030860
 CELL| Vector a [angstrom]:       4.028     0.000     0.000   |a| =     4.027796
 CELL| Vector b [angstrom]:      -0.000     8.987     0.000   |b| =     8.987284
 CELL| Vector c [angstrom]:      -1.314     0.000     6.880   |c| =     7.003872
 CELL| Angle (b,c), alpha [degree]:                                    90.000000
 CELL| Angle (a,c), beta  [degree]:                                   100.813512
 CELL| Angle (a,b), gamma [degree]:                                    90.000000
 CELL| Numerically orthorhombic:                                              NO
 CELL| Periodicity                                                           XYZ

 Extrapolation method: ASPC

 Number of electrons:                                                         72
 Number of occupied orbitals:                                                 36
 Number of molecular orbitals:                                                60

 Number of orbital functions:                                                 60
 Number of independent orbital functions:                                     60


 SCF WAVEFUNCTION OPTIMIZATION

  Step     Update method      Time    Convergence         Total energy    Change
  ------------------------------------------------------------------------------
     1 TBLite/Diag 0.40E+00    0.0     0.01337987       -42.6806175482 -4.27E+01
     2 TBLite/Diag 0.40E+00    0.0     0.00110247       -42.6806275460 -1.00E-05
     3 TBLite/Diag 0.40E+00    0.0     0.00136530       -42.6806276165 -7.05E-08
     4 TBLite/Diag 0.40E+00    0.0     0.00067135       -42.6806302532 -2.64E-06
     5 TBLite/Diag 0.40E+00    0.0     0.00008173       -42.6806302785 -2.53E-08
     6 TBLite/Diag 0.40E+00    0.0     0.00003938       -42.6806302845 -6.02E-09
     7 TBLite/Diag 0.40E+00    0.0     0.00001079       -42.6806302851 -6.54E-10
     8 TBLite/Diag 0.40E+00    0.0     0.00000197       -42.6806302852 -1.60E-11
     9 TBLite/Diag 0.40E+00    0.0     0.00000065       -42.6806302852 -9.24E-13
    10 TBLite/Diag 0.40E+00    0.0     0.00000022       -42.6806302852 -9.95E-14
    11 TBLite/Diag 0.40E+00    0.0     0.00000008       -42.6806302852 -7.82E-14
    12 TBLite/Diag 0.40E+00    0.0     0.00000001       -42.6806302852  2.84E-14
    13 TBLite/Diag 0.40E+00    0.0     7.2585E-09       -42.6806302852  2.84E-14
    14 TBLite/Diag 0.40E+00    0.0     1.2732E-09       -42.6806302852  1.42E-14
    15 TBLite/Diag 0.40E+00    0.0     7.4562E-10       -42.6806302852 -4.26E-14

  *** SCF run converged in    15 steps ***


  Core Hamiltonian energy:                                    -43.22410490322786
  Repulsive potential energy:                                   0.44404528222591
  Electrostatic energy:                                         0.13722159479834
  Self-consistent dispersion energy:                           -0.04578904432461
  Non-self consistent dispersion energy:                        0.00799678537131
  Correction for halogen bonding:                               0.00000000000000
  Electronic entropic energy:                                  -0.00000000000000
  Fermi energy:                                                -0.26080780169731

  Total energy:                                               -42.68063028515691
  Total energy (extrapolated to T->0):                        -42.68063028515691

 ENERGY| Total FORCE_EVAL ( QS ) energy [hartree]            -42.680630285156909

 OPT| **************************************************************************
 OPT| Step number                                                              7
 OPT| Optimization method                                                   BFGS
 OPT| Total energy [hartree]                                      -42.6806302852
 OPT| Internal pressure [bar]                                  -13221.9419255448
 OPT| Effective energy change [hartree]                            -0.0027829181
 OPT| Predicted energy change [hartree]                            -0.0020006385
 OPT| Scaling factor                                                0.0000000000
 OPT| Step size                                                     0.1926558153
 OPT| Trust radius                                                  0.4724315332
 OPT| Decrease in energy                                                     YES
 OPT| Used time [s]                                                        1.085
 OPT|
 OPT| Maximum step size                                             0.1926558153
 OPT| Convergence limit for maximum step size                       0.0030000000
 OPT| Maximum step size is converged                                          NO
 OPT|
 OPT| RMS step size                                                 0.0265020335
 OPT| Convergence limit for RMS step size                           0.0015000000
 OPT| RMS step size is converged                                              NO
 OPT|
 OPT| Maximum gradient                                              0.0138340287
 OPT| Convergence limit for maximum gradient                        0.0004500000
 OPT| Maximum gradient is converged                                           NO
 OPT|
 OPT| RMS gradient                                                  0.0034074941
 OPT| Convergence limit for RMS gradient                            0.0003000000
 OPT| RMS gradient is converged                                               NO
 OPT|
 OPT| Pressure deviation [bar]                                 -13221.9419255448
 OPT| Pressure tolerance [bar]                                    100.0000000000
 OPT| Pressure is converged                                                   NO
 OPT| **************************************************************************
 OPT| Estimated peak process memory after this step [MiB]                    164

 --------------------------
 OPTIMIZATION STEP:      8
 --------------------------

 CELL| Volume [angstrom^3]:                                           251.316457
 CELL| Vector a [angstrom]:       4.097     0.000     0.000   |a| =     4.096792
 CELL| Vector b [angstrom]:      -0.000     8.959     0.000   |b| =     8.959201
 CELL| Vector c [angstrom]:      -1.309     0.000     6.847   |c| =     6.971121
 CELL| Angle (b,c), alpha [degree]:                                    90.000000
 CELL| Angle (a,c), beta  [degree]:                                   100.823086
 CELL| Angle (a,b), gamma [degree]:                                    90.000000
 CELL| Numerically orthorhombic:                                              NO
 CELL| Periodicity                                                           XYZ

 Extrapolation method: ASPC

 Number of electrons:                                                         72
 Number of occupied orbitals:                                                 36
 Number of molecular orbitals:                                                60

 Number of orbital functions:                                                 60
 Number of independent orbital functions:                                     60


 SCF WAVEFUNCTION OPTIMIZATION

  Step     Update method      Time    Convergence         Total energy    Change
  ------------------------------------------------------------------------------
     1 TBLite/Diag 0.40E+00    0.0     0.01309898       -42.6820312138 -4.27E+01
     2 TBLite/Diag 0.40E+00    0.0     0.00120740       -42.6820394842 -8.27E-06
     3 TBLite/Diag 0.40E+00    0.0     0.00095107       -42.6820394600  2.42E-08
     4 TBLite/Diag 0.40E+00    0.0     0.00048434       -42.6820408166 -1.36E-06
     5 TBLite/Diag 0.40E+00    0.0     0.00009137       -42.6820408401 -2.35E-08
     6 TBLite/Diag 0.40E+00    0.0     0.00003635       -42.6820408451 -4.93E-09
     7 TBLite/Diag 0.40E+00    0.0     0.00000742       -42.6820408454 -3.64E-10
     8 TBLite/Diag 0.40E+00    0.0     0.00000146       -42.6820408454 -9.76E-12
     9 TBLite/Diag 0.40E+00    0.0     0.00000043       -42.6820408454 -2.84E-13
    10 TBLite/Diag 0.40E+00    0.0     0.00000014       -42.6820408454 -7.82E-14
    11 TBLite/Diag 0.40E+00    0.0     0.00000005       -42.6820408454 -7.11E-15
    12 TBLite/Diag 0.40E+00    0.0     8.7422E-09       -42.6820408454  7.11E-15
    13 TBLite/Diag 0.40E+00    0.0     5.2508E-09       -42.6820408454  2.13E-14
    14 TBLite/Diag 0.40E+00    0.0     1.6752E-09       -42.6820408454 -1.42E-14
    15 TBLite/Diag 0.40E+00    0.0     1.0527E-09       -42.6820408454  2.13E-14
    16 TBLite/Diag 0.40E+00    0.0     4.1626E-10       -42.6820408454 -4.26E-14

  *** SCF run converged in    16 steps ***


  Core Hamiltonian energy:                                    -43.23225306279526
  Repulsive potential energy:                                   0.45023754632484
  Electrostatic energy:                                         0.13728513098171
  Self-consistent dispersion energy:                           -0.04518112416788
  Non-self consistent dispersion energy:                        0.00787066423105
  Correction for halogen bonding:                               0.00000000000000
  Electronic entropic energy:                                  -0.00000000000000
  Fermi energy:                                                -0.26014924673189

  Total energy:                                               -42.68204084542553
  Total energy (extrapolated to T->0):                        -42.68204084542553

 ENERGY| Total FORCE_EVAL ( QS ) energy [hartree]            -42.682040845425533

 OPT| **************************************************************************
 OPT| Step number                                                              8
 OPT| Optimization method                                                   BFGS
 OPT| Total energy [hartree]                                      -42.6820408454
 OPT| Internal pressure [bar]                                   -8705.3050713459
 OPT| Effective energy change [hartree]                            -0.0014105603
 OPT| Predicted energy change [hartree]                            -0.0010161276
 OPT| Scaling factor                                                0.0000000000
 OPT| Step size                                                     0.1303831543
 OPT| Trust radius                                                  0.4724315332
 OPT| Decrease in energy                                                     YES
 OPT| Used time [s]                                                        1.079
 OPT|
 OPT| Maximum step size                                             0.1303831543
 OPT| Convergence limit for maximum step size                       0.0030000000
 OPT| Maximum step size is converged                                          NO
 OPT|
 OPT| RMS step size                                                 0.0186778646
 OPT| Convergence limit for RMS step size                           0.0015000000
 OPT| RMS step size is converged                                              NO
 OPT|
 OPT| Maximum gradient                                              0.0106130394
 OPT| Convergence limit for maximum gradient                        0.0004500000
 OPT| Maximum gradient is converged                                           NO
 OPT|
 OPT| RMS gradient                                                  0.0027455194
 OPT| Convergence limit for RMS gradient                            0.0003000000
 OPT| RMS gradient is converged                                               NO
 OPT|
 OPT| Pressure deviation [bar]                                  -8705.3050713459
 OPT| Pressure tolerance [bar]                                    100.0000000000
 OPT| Pressure is converged                                                   NO
 OPT| **************************************************************************
 OPT| Estimated peak process memory after this step [MiB]                    164

 --------------------------
 OPTIMIZATION STEP:      9
 --------------------------

 CELL| Volume [angstrom^3]:                                           253.632634
 CELL| Vector a [angstrom]:       4.174     0.000     0.000   |a| =     4.173782
 CELL| Vector b [angstrom]:      -0.000     8.928     0.000   |b| =     8.928299
 CELL| Vector c [angstrom]:      -1.302     0.000     6.806   |c| =     6.929617
 CELL| Angle (b,c), alpha [degree]:                                    89.999999
 CELL| Angle (a,c), beta  [degree]:                                   100.828428
 CELL| Angle (a,b), gamma [degree]:                                    90.000000
 CELL| Numerically orthorhombic:                                              NO
 CELL| Periodicity                                                           XYZ

 Extrapolation method: ASPC

 Number of electrons:                                                         72
 Number of occupied orbitals:                                                 36
 Number of molecular orbitals:                                                60

 Number of orbital functions:                                                 60
 Number of independent orbital functions:                                     60


 SCF WAVEFUNCTION OPTIMIZATION

  Step     Update method      Time    Convergence         Total energy    Change
  ------------------------------------------------------------------------------
     1 TBLite/Diag 0.40E+00    0.0     0.01377329       -42.6832349230 -4.27E+01
     2 TBLite/Diag 0.40E+00    0.0     0.00094925       -42.6832400074 -5.08E-06
     3 TBLite/Diag 0.40E+00    0.0     0.00075294       -42.6832396176  3.90E-07
     4 TBLite/Diag 0.40E+00    0.0     0.00045134       -42.6832408659 -1.25E-06
     5 TBLite/Diag 0.40E+00    0.0     0.00007488       -42.6832408779 -1.20E-08
     6 TBLite/Diag 0.40E+00    0.0     0.00001954       -42.6832408789 -1.00E-09
     7 TBLite/Diag 0.40E+00    0.0     0.00000389       -42.6832408790 -9.31E-11
     8 TBLite/Diag 0.40E+00    0.0     0.00000121       -42.6832408790 -2.17E-12
     9 TBLite/Diag 0.40E+00    0.0     0.00000075       -42.6832408790 -1.44E-12
    10 TBLite/Diag 0.40E+00    0.0     0.00000011       -42.6832408790 -9.95E-14
    11 TBLite/Diag 0.40E+00    0.0     0.00000002       -42.6832408790  6.39E-14
    12 TBLite/Diag 0.40E+00    0.0     5.6279E-09       -42.6832408790 -3.55E-14
    13 TBLite/Diag 0.40E+00    0.0     2.4497E-09       -42.6832408790  1.42E-14
    14 TBLite/Diag 0.40E+00    0.0     7.4973E-10       -42.6832408790  1.42E-14

  *** SCF run converged in    14 steps ***


  Core Hamiltonian energy:                                    -43.23830629426072
  Repulsive potential energy:                                   0.45466153298355
  Electrostatic energy:                                         0.13724156490090
  Self-consistent dispersion energy:                           -0.04458224232757
  Non-self consistent dispersion energy:                        0.00774455972980
  Correction for halogen bonding:                               0.00000000000000
  Electronic entropic energy:                                  -0.00000000000000
  Fermi energy:                                                -0.26004185216105

  Total energy:                                               -42.68324087897404
  Total energy (extrapolated to T->0):                        -42.68324087897404

 ENERGY| Total FORCE_EVAL ( QS ) energy [hartree]            -42.683240878974040

 OPT| **************************************************************************
 OPT| Step number                                                              9
 OPT| Optimization method                                                   BFGS
 OPT| Total energy [hartree]                                      -42.6832408790
 OPT| Internal pressure [bar]                                   -4816.4489605867
 OPT| Effective energy change [hartree]                            -0.0012000335
 OPT| Predicted energy change [hartree]                            -0.0008418616
 OPT| Scaling factor                                                0.0000000000
 OPT| Step size                                                     0.1454907622
 OPT| Trust radius                                                  0.4724315332
 OPT| Decrease in energy                                                     YES
 OPT| Used time [s]                                                        1.036
 OPT|
 OPT| Maximum step size                                             0.1454907622
 OPT| Convergence limit for maximum step size                       0.0030000000
 OPT| Maximum step size is converged                                          NO
 OPT|
 OPT| RMS step size                                                 0.0212177112
 OPT| Convergence limit for RMS step size                           0.0015000000
 OPT| RMS step size is converged                                              NO
 OPT|
 OPT| Maximum gradient                                              0.0071850354
 OPT| Convergence limit for maximum gradient                        0.0004500000
 OPT| Maximum gradient is converged                                           NO
 OPT|
 OPT| RMS gradient                                                  0.0032641112
 OPT| Convergence limit for RMS gradient                            0.0003000000
 OPT| RMS gradient is converged                                               NO
 OPT|
 OPT| Pressure deviation [bar]                                  -4816.4489605867
 OPT| Pressure tolerance [bar]                                    100.0000000000
 OPT| Pressure is converged                                                   NO
 OPT| **************************************************************************
 OPT| Estimated peak process memory after this step [MiB]                    164

 --------------------------
 OPTIMIZATION STEP:     10
 --------------------------

 CELL| Volume [angstrom^3]:                                           259.595647
 CELL| Vector a [angstrom]:       4.379     0.000     0.000   |a| =     4.378717
 CELL| Vector b [angstrom]:      -0.000     8.849     0.000   |b| =     8.848585
 CELL| Vector c [angstrom]:      -1.284     0.000     6.700   |c| =     6.821909
 CELL| Angle (b,c), alpha [degree]:                                    89.999999
 CELL| Angle (a,c), beta  [degree]:                                   100.846681
 CELL| Angle (a,b), gamma [degree]:                                    90.000000
 CELL| Numerically orthorhombic:                                              NO
 CELL| Periodicity                                                           XYZ

 Extrapolation method: ASPC

 Number of electrons:                                                         72
 Number of occupied orbitals:                                                 36
 Number of molecular orbitals:                                                60

 Number of orbital functions:                                                 60
 Number of independent orbital functions:                                     60


 SCF WAVEFUNCTION OPTIMIZATION

  Step     Update method      Time    Convergence         Total energy    Change
  ------------------------------------------------------------------------------
     1 TBLite/Diag 0.40E+00    0.0     0.03088054       -42.6858015812 -4.27E+01
     2 TBLite/Diag 0.40E+00    0.0     0.00108080       -42.6858097551 -8.17E-06
     3 TBLite/Diag 0.40E+00    0.0     0.00104484       -42.6858094629  2.92E-07
     4 TBLite/Diag 0.40E+00    0.0     0.00062115       -42.6858115490 -2.09E-06
     5 TBLite/Diag 0.40E+00    0.0     0.00008671       -42.6858116052 -5.62E-08
     6 TBLite/Diag 0.40E+00    0.0     0.00000863       -42.6858116055 -3.31E-10
     7 TBLite/Diag 0.40E+00    0.0     0.00000398       -42.6858116056 -3.80E-11
     8 TBLite/Diag 0.40E+00    0.0     0.00000120       -42.6858116056 -2.93E-12
     9 TBLite/Diag 0.40E+00    0.0     0.00000059       -42.6858116056 -1.09E-12
    10 TBLite/Diag 0.40E+00    0.0     0.00000018       -42.6858116056 -5.68E-14
    11 TBLite/Diag 0.40E+00    0.0     0.00000004       -42.6858116056 -7.11E-15
    12 TBLite/Diag 0.40E+00    0.0     7.0571E-09       -42.6858116056  3.55E-14
    13 TBLite/Diag 0.40E+00    0.0     3.0990E-09       -42.6858116056 -2.13E-14
    14 TBLite/Diag 0.40E+00    0.0     1.9005E-09       -42.6858116056 -3.55E-14
    15 TBLite/Diag 0.40E+00    0.0     6.9648E-10       -42.6858116056  1.42E-14

  *** SCF run converged in    15 steps ***


  Core Hamiltonian energy:                                    -43.24789613505541
  Repulsive potential energy:                                   0.46094060544956
  Electrostatic energy:                                         0.13686813739511
  Self-consistent dispersion energy:                           -0.04316755658072
  Non-self consistent dispersion energy:                        0.00744334323139
  Correction for halogen bonding:                               0.00000000000000
  Electronic entropic energy:                                  -0.00000000000000
  Fermi energy:                                                -0.26044414705539

  Total energy:                                               -42.68581160556008
  Total energy (extrapolated to T->0):                        -42.68581160556008

 ENERGY| Total FORCE_EVAL ( QS ) energy [hartree]            -42.685811605560076

 OPT| **************************************************************************
 OPT| Step number                                                             10
 OPT| Optimization method                                                   BFGS
 OPT| Total energy [hartree]                                      -42.6858116056
 OPT| Internal pressure [bar]                                    2462.4091904889
 OPT| Effective energy change [hartree]                            -0.0025707266
 OPT| Predicted energy change [hartree]                            -0.0018412027
 OPT| Scaling factor                                                0.0000000000
 OPT| Step size                                                     0.3872695888
 OPT| Trust radius                                                  0.4724315332
 OPT| Decrease in energy                                                     YES
 OPT| Used time [s]                                                        1.019
 OPT|
 OPT| Maximum step size                                             0.3872695888
 OPT| Convergence limit for maximum step size                       0.0030000000
 OPT| Maximum step size is converged                                          NO
 OPT|
 OPT| RMS step size                                                 0.0559355712
 OPT| Convergence limit for RMS step size                           0.0015000000
 OPT| RMS step size is converged                                              NO
 OPT|
 OPT| Maximum gradient                                              0.0136107354
 OPT| Convergence limit for maximum gradient                        0.0004500000
 OPT| Maximum gradient is converged                                           NO
 OPT|
 OPT| RMS gradient                                                  0.0054233179
 OPT| Convergence limit for RMS gradient                            0.0003000000
 OPT| RMS gradient is converged                                               NO
 OPT|
 OPT| Pressure deviation [bar]                                   2462.4091904889
 OPT| Pressure tolerance [bar]                                    100.0000000000
 OPT| Pressure is converged                                                   NO
 OPT| **************************************************************************
 OPT| Estimated peak process memory after this step [MiB]                    164

 --------------------------
 OPTIMIZATION STEP:     11
 --------------------------

  Step is scaled; Scaling factor =  0.32267

 CELL| Volume [angstrom^3]:                                           266.500307
 CELL| Vector a [angstrom]:       4.629     0.000     0.000   |a| =     4.628717
 CELL| Vector b [angstrom]:      -0.000     8.753     0.000   |b| =     8.753470
 CELL| Vector c [angstrom]:      -1.264     0.000     6.577   |c| =     6.697845
 CELL| Angle (b,c), alpha [degree]:                                    89.999998
 CELL| Angle (a,c), beta  [degree]:                                   100.880397
 CELL| Angle (a,b), gamma [degree]:                                    90.000001
 CELL| Numerically orthorhombic:                                              NO
 CELL| Periodicity                                                           XYZ

 Extrapolation method: ASPC

 Number of electrons:                                                         72
 Number of occupied orbitals:                                                 36
 Number of molecular orbitals:                                                60

 Number of orbital functions:                                                 60
 Number of independent orbital functions:                                     60


 SCF WAVEFUNCTION OPTIMIZATION

  Step     Update method      Time    Convergence         Total energy    Change
  ------------------------------------------------------------------------------
     1 TBLite/Diag 0.40E+00    0.0     0.03076773       -42.6856314504 -4.27E+01
     2 TBLite/Diag 0.40E+00    0.0     0.00262288       -42.6856509393 -1.95E-05
     3 TBLite/Diag 0.40E+00    0.0     0.00088750       -42.6856509585 -1.92E-08
     4 TBLite/Diag 0.40E+00    0.0     0.00064365       -42.6856530523 -2.09E-06
     5 TBLite/Diag 0.40E+00    0.0     0.00010834       -42.6856531210 -6.87E-08
     6 TBLite/Diag 0.40E+00    0.0     0.00003982       -42.6856531271 -6.08E-09
     7 TBLite/Diag 0.40E+00    0.0     0.00000420       -42.6856531272 -1.14E-10
     8 TBLite/Diag 0.40E+00    0.0     0.00000055       -42.6856531272 -2.40E-12
     9 TBLite/Diag 0.40E+00    0.0     0.00000048       -42.6856531272 -4.62E-13
    10 TBLite/Diag 0.40E+00    0.0     0.00000017       -42.6856531272 -8.53E-14
    11 TBLite/Diag 0.40E+00    0.0     0.00000005       -42.6856531272 -7.11E-15
    12 TBLite/Diag 0.40E+00    0.0     5.4896E-09       -42.6856531272 -1.42E-14
    13 TBLite/Diag 0.40E+00    0.0     1.9227E-09       -42.6856531272  2.13E-14
    14 TBLite/Diag 0.40E+00    0.0     7.1823E-10       -42.6856531272  2.84E-14

  *** SCF run converged in    14 steps ***


  Core Hamiltonian energy:                                    -43.25412079764193
  Repulsive potential energy:                                   0.46685454504075
  Electrostatic energy:                                         0.13616134062006
  Self-consistent dispersion energy:                           -0.04165863784020
  Non-self consistent dispersion energy:                        0.00711042264849
  Correction for halogen bonding:                               0.00000000000000
  Electronic entropic energy:                                  -0.00000000000000
  Fermi energy:                                                -0.26084941705791

  Total energy:                                               -42.68565312717283
  Total energy (extrapolated to T->0):                        -42.68565312717283

 ENERGY| Total FORCE_EVAL ( QS ) energy [hartree]            -42.685653127172827

 OPT| **************************************************************************
 OPT| Step number                                                             11
 OPT| Optimization method                                                   BFGS
 OPT| Total energy [hartree]                                      -42.6856531272
 OPT| Internal pressure [bar]                                    4311.0763889693
 OPT| Effective energy change [hartree]                             0.0001584784
 OPT| Predicted energy change [hartree]                            -0.0031872681
 OPT| Scaling factor                                                0.3226661778
 OPT| Step size                                                     0.4724315332
 OPT| Trust radius                                                  0.4724315332
 OPT| Decrease in energy                                                      NO
 OPT| Used time [s]                                                        0.980
 OPT|
 OPT| Maximum step size                                             0.4724315332
[...]
 --------------------------

 CELL| Volume [angstrom^3]:                                           237.276524
 CELL| Vector a [angstrom]:       4.494     0.000     0.000   |a| =     4.494019
 CELL| Vector b [angstrom]:      -0.000     8.383     0.000   |b| =     8.382950
 CELL| Vector c [angstrom]:      -1.971     0.000     6.298   |c| =     6.599639
 CELL| Angle (b,c), alpha [degree]:                                    89.999946
 CELL| Angle (a,c), beta  [degree]:                                   107.381012
 CELL| Angle (a,b), gamma [degree]:                                    90.000005
 CELL| Numerically orthorhombic:                                              NO
 CELL| Periodicity                                                           XYZ

 Extrapolation method: ASPC

 Number of electrons:                                                         72
 Number of occupied orbitals:                                                 36
 Number of molecular orbitals:                                                60

 Number of orbital functions:                                                 60
 Number of independent orbital functions:                                     60


 SCF WAVEFUNCTION OPTIMIZATION

  Step     Update method      Time    Convergence         Total energy    Change
  ------------------------------------------------------------------------------
     1 TBLite/Diag 0.40E+00    0.0     0.00243521       -42.6977703728 -4.27E+01
     2 TBLite/Diag 0.40E+00    0.0     0.00006227       -42.6977703949 -2.21E-08
     3 TBLite/Diag 0.40E+00    0.0     0.00005195       -42.6977703934  1.47E-09
     4 TBLite/Diag 0.40E+00    0.0     0.00002695       -42.6977703987 -5.26E-09
     5 TBLite/Diag 0.40E+00    0.0     0.00000339       -42.6977703987 -3.42E-11
     6 TBLite/Diag 0.40E+00    0.0     0.00000139       -42.6977703987 -9.10E-12
     7 TBLite/Diag 0.40E+00    0.0     0.00000045       -42.6977703987 -7.25E-13
     8 TBLite/Diag 0.40E+00    0.0     0.00000012       -42.6977703987 -4.26E-14
     9 TBLite/Diag 0.40E+00    0.0     0.00000007       -42.6977703987 -3.55E-14
    10 TBLite/Diag 0.40E+00    0.0     0.00000002       -42.6977703987  5.68E-14
    11 TBLite/Diag 0.40E+00    0.0     9.1368E-09       -42.6977703987 -1.42E-14
    12 TBLite/Diag 0.40E+00    0.0     3.9336E-09       -42.6977703987 -6.39E-14
    13 TBLite/Diag 0.40E+00    0.0     7.9381E-10       -42.6977703987  1.07E-13

  *** SCF run converged in    13 steps ***


  Core Hamiltonian energy:                                    -43.23482685502647
  Repulsive potential energy:                                   0.44238680177630
  Electrostatic energy:                                         0.13371685226394
  Self-consistent dispersion energy:                           -0.04791486466875
  Non-self consistent dispersion energy:                        0.00886766694801
  Correction for halogen bonding:                               0.00000000000000
  Electronic entropic energy:                                  -0.00000000000000
  Fermi energy:                                                -0.26368072765669

  Total energy:                                               -42.69777039870696
  Total energy (extrapolated to T->0):                        -42.69777039870696

 ENERGY| Total FORCE_EVAL ( QS ) energy [hartree]            -42.697770398706957

 OPT| **************************************************************************
 OPT| Step number                                                             65
 OPT| Optimization method                                                   BFGS
 OPT| Total energy [hartree]                                      -42.6977703987
 OPT| Internal pressure [bar]                                     -34.4636749694
 OPT| Effective energy change [hartree]                            -0.0000062139
 OPT| Predicted energy change [hartree]                            -0.0000045812
 OPT| Scaling factor                                                0.3226661778
 OPT| Step size                                                     0.0016085311
 OPT| Trust radius                                                  0.4724315332
 OPT| Decrease in energy                                                     YES
 OPT| Used time [s]                                                        0.625
 OPT|
 OPT| Maximum step size                                             0.0016085311
 OPT| Convergence limit for maximum step size                       0.0030000000
 OPT| Maximum step size is converged                                         YES
 OPT|
 OPT| RMS step size                                                 0.0009439942
 OPT| Convergence limit for RMS step size                           0.0015000000
 OPT| RMS step size is converged                                             YES
 OPT|
 OPT| Maximum gradient                                              0.0004313900
 OPT| Convergence limit for maximum gradient                        0.0004500000
 OPT| Maximum gradient is converged                                          YES
 OPT|
 OPT| RMS gradient                                                  0.0001897221
 OPT| Convergence limit for RMS gradient                            0.0003000000
 OPT| RMS gradient is converged                                              YES
 OPT|
 OPT| Pressure deviation [bar]                                    -34.4636749694
 OPT| Pressure tolerance [bar]                                    100.0000000000
 OPT| Pressure is converged                                                  YES
 OPT| **************************************************************************
 OPT| Estimated peak process memory after this step [MiB]                    164

 *******************************************************************************
 ***                    GEOMETRY OPTIMIZATION COMPLETED                      ***
 *******************************************************************************

 write_final_structure: Optimization converged, writing XYZ file gladly:
  formamide_GFN2_gamma_cell_opt-FINAL-1_65.xyz

 write_final_structure: Optimization converged, writing CIF file gladly:
  formamide_GFN2_gamma_cell_opt-FINAL-1_65.cif

 write_final_structure: Done!

                    Reevaluating energy at the minimum

 CELL| Volume [angstrom^3]:                                           237.276524
 CELL| Vector a [angstrom]:       4.494     0.000     0.000   |a| =     4.494019
 CELL| Vector b [angstrom]:      -0.000     8.383     0.000   |b| =     8.382950
 CELL| Vector c [angstrom]:      -1.971     0.000     6.298   |c| =     6.599639
 CELL| Angle (b,c), alpha [degree]:                                    89.999946
 CELL| Angle (a,c), beta  [degree]:                                   107.381012
 CELL| Angle (a,b), gamma [degree]:                                    90.000005
 CELL| Numerically orthorhombic:                                              NO
 CELL| Periodicity                                                           XYZ

 Extrapolation method: ASPC

 Number of electrons:                                                         72
 Number of occupied orbitals:                                                 36
 Number of molecular orbitals:                                                60

 Number of orbital functions:                                                 60
 Number of independent orbital functions:                                     60


 SCF WAVEFUNCTION OPTIMIZATION

  Step     Update method      Time    Convergence         Total energy    Change
  ------------------------------------------------------------------------------
     1 TBLite/Diag 0.40E+00    0.0     7.4515E-10       -42.6977703987 -4.27E+01

  *** SCF run converged in     1 steps ***


  Core Hamiltonian energy:                                    -43.23482685505776
  Repulsive potential energy:                                   0.44238680177630
  Electrostatic energy:                                         0.13371685229624
  Self-consistent dispersion energy:                           -0.04791486466978
  Non-self consistent dispersion energy:                        0.00886766694801
  Correction for halogen bonding:                               0.00000000000000
  Electronic entropic energy:                                  -0.00000000000000
  Fermi energy:                                                -0.26368072766175

  Total energy:                                               -42.69777039870699
  Total energy (extrapolated to T->0):                        -42.69777039870699

 ENERGY| Total FORCE_EVAL ( QS ) energy [hartree]            -42.697770398706993

 -------------------------------------------------------------------------------
 -                                                                             -
 -                                DBCSR STATISTICS                             -
 -                                                                             -
 -------------------------------------------------------------------------------
 COUNTER                                    TOTAL       BLAS       SMM       ACC
 flops     1 x    28 x     1              2580480       0.0%    100.0%      0.0%     
 flops     1 x    32 x     1              2949120       0.0%    100.0%      0.0%     
 flops     1 x     1 x    60             10183680       0.0%    100.0%      0.0%     
 flops     4 x    28 x     1             10321920       0.0%    100.0%      0.0%     
 flops     1 x    28 x     4             10321920       0.0%    100.0%      0.0%     
 flops     4 x    32 x     1             11796480       0.0%    100.0%      0.0%     
 flops     1 x    32 x     4             11796480       0.0%    100.0%      0.0%     
 flops     4 x     1 x    60             37601280       0.0%    100.0%      0.0%     
 flops     1 x     4 x    60             37601280       0.0%    100.0%      0.0%     
 flops     4 x    28 x     4             41287680       0.0%    100.0%      0.0%     
 flops     4 x    32 x     4             47185920       0.0%    100.0%      0.0%     
 flops     4 x     4 x    60            162938880       0.0%    100.0%      0.0%     
 flops inhomo. stacks                           0       0.0%      0.0%      0.0%
 flops total                       386.565120E+06       0.0%    100.0%      0.0%
 flops max/rank                    386.565120E+06       0.0%    100.0%      0.0%
 matmuls inhomo. stacks                         0       0.0%      0.0%      0.0%
 matmuls total                             695040       0.0%    100.0%      0.0%
 number of processed stacks                  6912       0.0%    100.0%      0.0%
 average stack size                                     0.0     100.6       0.0
 marketing flops                   420.249600E+06
 -------------------------------------------------------------------------------
 # multiplications                           1408
 max memory usage/rank              13.670662E+09
 # max total images/rank                        1
 # max 3D layers                                1
 # MPI messages exchanged                       0
 -------------------------------------------------------------------------------
 -                                                                             -
 -                      DBCSR MESSAGE PASSING PERFORMANCE                      -
 -                                                                             -
 -------------------------------------------------------------------------------
 ROUTINE             CALLS      AVE VOLUME [Bytes]
 MP_Bcast               13                     12.
 MP_Allreduce         6443                      8.
 MP_Alltoall         47072                  20548.
 MP_ISend             5632                   2160.
 MP_IRecv             5632                   2160.
 -------------------------------------------------------------------------------

 -------------------------------------------------------------------------------
 -                                                                             -
 -                          OFFLOAD MEMPOOL STATISTICS                         -
 -                                                                             -
 -------------------------------------------------------------------------------
 Memory consumption                Number of allocations  Used [MiB]  Size [MiB]
 Device                                                2           0           0
 Host                                                  2           0           0
 -------------------------------------------------------------------------------

 MEMORY| Estimated peak process memory [MiB]                                 164

 -------------------------------------------------------------------------------
 -                                                                             -
 -                         MESSAGE PASSING PERFORMANCE                         -
 -                                                                             -
 -------------------------------------------------------------------------------

 ROUTINE             CALLS      AVE VOLUME [Bytes]
 MP_Group               66
 MP_Bcast             2174                    246.
 MP_Allreduce        34819                    174.
 MP_Sync              1153
 MP_comm_split        1087
 -------------------------------------------------------------------------------


 -------------------------------------------------------------------------------
 -                                                                             -
 -                           R E F E R E N C E S                               -
 -                                                                             -
 -------------------------------------------------------------------------------
 
 CP2K version 2026.1 (Development Version), the CP2K developers group (2026).
 CP2K is freely available from https://www.cp2k.org/ .
 
 M. Iannuzzi, J. Wilhelm, F. Stein, A. Bussy, H. Elgabarty, D. Golze, A. Hehn, 
 M. Graml, S. Marek, B. Sertcan Gökmen, C. Schran, H. Forbert, R. Z. 
 Khaliullin, A. Kozhevnikov, M. Taillefumier, R. Meli, V. V. Rybkin, M. Brehm, 
 R. Schade, O. Schütt, J. V. Pototschnig, H. Mirhosseini, A. Knüpfer, D. Marx, 
 M. Krack, J. Hutter, T. D. Kühne.
 J. Phys. Chem. B 130, 1237-1310 (2026).
 The CP2K Program Package Made Simple.
 https://doi.org/10.1021/acs.jpcb.5c05851

 A. Katbashev, M. Stahn, T. Rose, V. Alizadeh, M. Friede, C. Plett, P. 
 Steinbach, S. Ehlert.
 J. Phys. Chem. A 129, 2667-2682 (2025).
 Overview on Building Blocks and Applications of Efficient and Robust Extended 
 Tight Binding.
 https://doi.org/10.1021/acs.jpca.4c08263

 T. D. Kühne, M. Iannuzzi, M. Del Ben, V. V. Rybkin, P. Seewald, F. Stein, T. 
 Laino, R. Z. Khaliullin, O. Schütt, F. Schiffmann, D. Golze, J. Wilhelm, S. 
 Chulkov, M. H. Bani-Hashemian, V. Weber, U. Borstnik, M. Taillefumier, A. S. 
 Jakobovits, A. Lazzaro, H. Pabst, T. Müller, R. Schade, M. Guidon, S. 
 Andermatt, N. Holmberg, G. K. Schenter, A. Hehn, A. Bussy, F. Belleflamme, G. 
 Tabacchi, A. Glöß, M. Lass, I. Bethune, C. J. Mundy, C. Plessl, M. Watkins, 
 J. VandeVondele, M. Krack, J. Hutter.
 J. Chem. Phys. 152, 194103 (2020).
 CP2K: An electronic structure and molecular dynamics software package - 
 Quickstep: Efficient and accurate electronic structure calculations.
 https://doi.org/10.1063/5.0007045

 P. Pracht, E. Caldeweyher, S. Ehlert, S. Grimme.
 ChemRxiv, (2019).
 A Robust Non-Self-Consistent Tight-Binding Quantum Chemistry Method for large 
 Molecules.
 https://doi.org/10.26434/chemrxiv.8326202.v1

 S. Grimme, C. Bannwarth, P. Shushkov.
 J. Chem. Theory Comput. 13, 1989 (2017).
 A Robust and Accurate Tight-Binding Quantum Chemical Method for Structures, 
 Vibrational Frequencies, and Noncovalent Interactions of Large Molecular 
 Systems Parametrized for All spd-Block Elements (Z = 1-86).
 https://doi.org/10.1021/acs.jctc.7b00118

 O. Schuett, P. Messmer, J. Hutter, J. VandeVondele.
 Electronic Structure Calculations on Graphics Processing Units, 173-190 (2016).
 GPU-Accelerated Sparse Matrix-Matrix Multiplication for Linear Scaling Density 
 Functional Theory.
 https://doi.org/10.1002/9781118670712.ch8

 A. Heinecke, G. Henry, M. Hutchinson, H. Pabst.
 Proceedings of Intl. Supercomputing Conference, 981-991 (2016).
 LIBXSMM: Accelerating Small Matrix Multiplications by Runtime Code Generation.
 https://doi.org/10.1109/SC.2016.83

 U. Borstnik, J. VandeVondele, V. Weber, J. Hutter.
 Parallel Comput. 40, 47-58 (2014).
 Sparse matrix multiplication: The distributed block-compressed sparse row 
 library.
 https://doi.org/10.1016/j.parco.2014.03.012

 T. D. Kühne, M. Krack, F. R. Mohamed, M. Parrinello.
 Phys. Rev. Lett. 98, 066401 (2007).
 Efficient and accurate Car-Parrinello-like approach to Born-Oppenheimer 
 molecular dynamics.
 https://doi.org/10.1103/PhysRevLett.98.066401

 M. Frigo, S. G. Johnson.
 Proc. IEEE 93, 216-231 (2005).
 The design and implementation of FFTW3.
 https://doi.org/10.1109/JPROC.2004.840301

 J. Kolafa.
 J. Comput. Chem. 25, 335-342 (2004).
 Time-reversible always stable predictor-corrector method for molecular dynamics 
 of polarizable molecules.
 https://doi.org/10.1002/jcc.10385

 N. D. Mermin.
 Phys. Rev. 137, A1441-A1443 (1965).
 Thermal Properties of the Inhomogeneous Electron Gas.
 https://doi.org/10.1103/PhysRev.137.A1441


 -------------------------------------------------------------------------------
 -                                                                             -
 -                                T I M I N G                                  -
 -                                                                             -
 -------------------------------------------------------------------------------
 SUBROUTINE                       CALLS  ASD         SELF TIME        TOTAL TIME
                                MAXIMUM       AVERAGE  MAXIMUM  AVERAGE  MAXIMUM
 CP2K                                 1  1.0    0.002    0.002   46.773   46.773
 cp_cell_opt                          1  2.0    0.000    0.000   46.767   46.767
 geoopt_bfgs                          1  3.0    0.006    0.006   46.767   46.767
 cp_eval_at                          67  4.0    0.006    0.006   46.688   46.688
 qs_forces                           66  5.0    0.004    0.004   46.526   46.526
 build_tblite_matrices              133  7.0   39.248   39.248   40.133   40.133
 qs_energies                         67  6.0    0.002    0.002   13.987   13.987
 qs_energies_init_hamiltonians       67  7.0    0.000    0.000   11.372   11.372
 rebuild_ks_matrix                 1022  9.8    0.001    0.001    4.481    4.481
 build_tblite_ks_matrix            1022 10.8    4.463    4.463    4.480    4.480
 qs_ks_update_qs_env_forces          66  6.0    0.000    0.000    3.860    3.860
 scf_env_do_scf                      67  7.0    0.001    0.001    2.333    2.333
 scf_env_do_scf_inner_loop          956  8.0    0.325    0.325    2.330    2.330
 qs_scf_new_mos                     956  9.0    0.003    0.003    1.278    1.278
 -------------------------------------------------------------------------------

 The number of warnings for this run is : 0
 
 -------------------------------------------------------------------------------
  **** **** ******  **  PROGRAM ENDED AT                 2026-05-23 22:48:13.793
 ***** ** ***  *** **   PROGRAM RAN ON                                spark-c86c
 **    ****   ******    PROGRAM RAN BY                                  kuehne88
 ***** **    ** ** **   PROGRAM PROCESS ID                               2269361
  **** **  *******  **  PROGRAM STOPPED IN /home/kuehne88/periodic-gfn2-benchmar
                                           ks/X23b/runs/cellopt_gamma/GFN2/forma
                                           mide_GFN2_gamma_cellopt
