 DBCSR| CPU Multiplication driver                                           XSMM (U)
 DBCSR| Multrec recursion limit                                              512 (U)
 DBCSR| Multiplication stack size                                           1000 (D)
 DBCSR| Maximum elements for images                                    UNLIMITED (U)
 DBCSR| Multiplicative factor virtual images                                   1 (U)
 DBCSR| Use multiplication densification                                       T (D)
 DBCSR| Multiplication size stacks                                             3 (U)
 DBCSR| Use memory pool for CPU allocation                                     F (U)
 DBCSR| Number of 3D layers                                               SINGLE (U)
 DBCSR| Use MPI memory allocation                                              F (U)
 DBCSR| Use RMA algorithm                                                      F (U)
 DBCSR| Use Communication thread                                               T (U)
 DBCSR| Communication thread load                                             87 (D)
 DBCSR| MPI: My process id                                                     0
 DBCSR| MPI: Number of processes                                               1
 DBCSR| OMP: Current number of threads                                         1
 DBCSR| OMP: Max number of threads                                             1
 DBCSR| Split modifier for TAS multiplication algorithm                  1.0E+00 (U)


  **** **** ******  **  PROGRAM STARTED AT               2026-05-23 22:47:01.673
 ***** ** ***  *** **   PROGRAM STARTED ON                            spark-c86c
 **    ****   ******    PROGRAM STARTED BY                              kuehne88
 ***** **    ** ** **   PROGRAM PROCESS ID                               2266492
  **** **  *******  **  PROGRAM STARTED IN /home/kuehne88/periodic-gfn2-benchmar
                                           ks/X23b/runs/cellopt_gamma/GFN1/pyraz
                                           ole_GFN1_gamma_cellopt

 CP2K| version string:                 CP2K version 2026.1 (Development Version)
 CP2K| source code revision number:                                   0622d442e4
 CP2K| cp2kflags: omp fftw3 libxc parallel scalapack mpi_f08 xsmm spglib libdftd
 CP2K|            4 dftd4_v3 mctc-lib tblite
 CP2K| is freely available from                            https://www.cp2k.org/
 CP2K| Program compiled at                                   2026-05-23 22:05:08
 CP2K| Program compiled on                                            spark-c86c
 CP2K| Program compiled for                                              aarch64
 CP2K| Data directory path    /home/kuehne88/cp2k-master-tblite-20260523/install
 CP2K| Input file name                           pyrazole_GFN1_gamma_cellopt.inp

 GLOBAL| Force Environment number                                              1
 GLOBAL| Basis set file name                                           BASIS_SET
 GLOBAL| Potential file name                                           POTENTIAL
 GLOBAL| MM Potential file name                                     MM_POTENTIAL
 GLOBAL| Coordinate file name                                      __STD_INPUT__
 GLOBAL| Method name                                                        CP2K
 GLOBAL| Project name                               pyrazole_GFN1_gamma_cell_opt
 GLOBAL| Run type                                                       CELL_OPT
 GLOBAL| FFT library                                                       FFTW3
 GLOBAL| Diagonalization library                                       ScaLAPACK
 GLOBAL| Cholesky decomposition library                                ScaLAPACK
 GLOBAL| DGEMM library                                                      BLAS
 GLOBAL| Direct generalized diagonalization requested                          F
 GLOBAL| Orthonormality check for eigenvectors                          DISABLED
 GLOBAL| Matrix multiplication library                                 ScaLAPACK
 GLOBAL| All-to-all communication in single precision                          F
 GLOBAL| FFTs using library dependent lengths                                  F
 GLOBAL| Grid backend                                                       AUTO
 GLOBAL| Global print level                                                  LOW
 GLOBAL| MPI I/O enabled                                                       T
 GLOBAL| Total number of message passing processes                             1
 GLOBAL| Number of distributed systems (nodes)                                 1
 GLOBAL| Number of threads for this process                                    1
 GLOBAL| This output is from process                                           0
 GLOBAL| OpenMP stack size per thread (OMP_STACKSIZE)                    default
 GLOBAL| CPU model name                                                  UNKNOWN
 GLOBAL| CPUID                                                              2200
 GLOBAL| Compiled for CPUID                                                 2000

 *** HINT in environment.F:970 :: The compiler target flags (arm_arch64)   ***
 *** used to build this binary cannot exploit all extensions of this CPU   ***
 *** model (arm_sve256). Consider compiler target flags as part of FCFLAGS ***
 *** and CFLAGS (ARCH file).                                               ***


 MEMORY| system memory details [Kb]
 MEMORY|                        rank 0           min           max       average
 MEMORY| MemTotal            125508532     125508532     125508532     125508532
 MEMORY| MemFree             103630444     103630444     103630444     103630444
 MEMORY| Buffers                867608        867608        867608        867608
 MEMORY| Cached               14020724      14020724      14020724      14020724
 MEMORY| Slab                  1592356       1592356       1592356       1592356
 MEMORY| SReclaimable           914116        914116        914116        914116
 MEMORY| MemLikelyFree       119432892     119432892     119432892     119432892


 GENERATE|  Preliminary Number of Bonds generated:                             0
 GENERATE|  Achieved consistency in connectivity generation.


                  #####   #####        #     #   #     #       #          
                 #     # #     #      #    ##### #     #   # #####  ####  
                 #     # #           #       #   ###   #       #   #    # 
                 #     #  #####     #        #   #  #  #   #   #   ###### 
                 #   # #       #   #         #   #   # #   #   #   #      
                 #    #  #     #  #          #   #  #  # # #   #    #   # 
                  #### #  #####  #           #   ###   ##  #   #     ###  

                                   GFN1-xTB  
                                 Version 0.0                       
                            Johann V. Pototschnig                  



 TOTAL NUMBERS AND MAXIMUM NUMBERS

  Total number of            - Atomic kinds:                                   3
                             - Atoms:                                         72
                             - Shell sets:                                   144
                             - Shells:                                       144
                             - Primitive Cartesian functions:                832
                             - Cartesian basis functions:                    224
                             - Spherical basis functions:                    224

  Maximum angular momentum of the orbital basis functions:                     1


 SCF PARAMETERS         Density guess:                                     MOPAC
                        --------------------------------------------------------
                        max_scf:                                             300
                        max_scf_history:                                       0
                        max_diis:                                              4
                        --------------------------------------------------------
                        eps_scf:                                        1.00E-09
                        eps_scf_history:                                0.00E+00
                        eps_diis:                                       1.00E-01
                        eps_eigval:                                     1.00E-05
                        --------------------------------------------------------
                        level_shift [a.u.]:                             0.000000
                        added MOs                                       120    0
                        --------------------------------------------------------
                        Mixing method:                           DIRECT_P_MIXING
                        --------------------------------------------------------
                        Smear method:                                FERMI_DIRAC
                        Electronic temperature [K]:                        300.0
                        Electronic temperature [a.u.]:                  9.50E-04
                        Accuracy threshold:                             1.00E-06
                        --------------------------------------------------------
                        No outer SCF

 CELL_OPT| Pressure tolerance [bar]:                                       100.0
 CELL_OPT| Keep volume of cell:                                               NO
 CELL_OPT| Keep angles between the cell vectors:                              NO
 CELL_OPT| Keep cell symmetry:                                                NO
 CELL_OPT| Constraint:                                                      NONE

 BFGS| Use rational function optimization for step estimation:                NO
 BFGS| Use model Hessian for initial guess:                                   NO
 BFGS| Restart Hessian:                                                       NO
 BFGS| Trust radius:                                                       0.472

 *******************************************************************************
 ***                     STARTING   CELL   OPTIMIZATION                      ***
 ***                                   BFGS                                  ***
 *******************************************************************************

 CELL| Volume [angstrom^3]:                                           698.267312
 CELL| Vector a [angstrom]:       8.190     0.000     0.000   |a| =     8.190000
 CELL| Vector b [angstrom]:       0.000    12.588     0.000   |b| =    12.588000
 CELL| Vector c [angstrom]:       0.000     0.000     6.773   |c| =     6.773000
 CELL| Angle (b,c), alpha [degree]:                                    90.000000
 CELL| Angle (a,c), beta  [degree]:                                    90.000000
 CELL| Angle (a,b), gamma [degree]:                                    90.000000
 CELL| Numerically orthorhombic:                                             YES
 CELL| Periodicity                                                           XYZ

 Extrapolation method: initial_guess

 Number of electrons:                                                        208
 Number of occupied orbitals:                                                104
 Number of molecular orbitals:                                               224

 Number of orbital functions:                                                224
 Number of independent orbital functions:                                    224


 SCF WAVEFUNCTION OPTIMIZATION

  Step     Update method      Time    Convergence         Total energy    Change
  ------------------------------------------------------------------------------
     1 TBLite/Diag 0.40E+00    0.0     1.41656432      -117.9954453576 -1.18E+02
     2 TBLite/Diag 0.40E+00    0.0     0.24859223      -118.4077216796 -4.12E-01
     3 TBLite/Diag 0.40E+00    0.0     0.12567761      -118.3728634126  3.49E-02
     4 TBLite/Diag 0.40E+00    0.0     0.08816967      -118.4557661217 -8.29E-02
     5 TBLite/Diag 0.40E+00    0.0     0.01164501      -118.4569036730 -1.14E-03
     6 TBLite/Diag 0.40E+00    0.0     0.00154925      -118.4569433214 -3.96E-05
     7 TBLite/Diag 0.40E+00    0.0     0.00063159      -118.4569486077 -5.29E-06
     8 TBLite/Diag 0.40E+00    0.0     0.00017266      -118.4569488379 -2.30E-07
     9 TBLite/Diag 0.40E+00    0.0     0.00004149      -118.4569488525 -1.46E-08
    10 TBLite/Diag 0.40E+00    0.0     0.00000351      -118.4569488527 -1.94E-10
    11 TBLite/Diag 0.40E+00    0.0     0.00000081      -118.4569488527 -2.19E-12
    12 TBLite/Diag 0.40E+00    0.0     0.00000013      -118.4569488527 -3.13E-13
    13 TBLite/Diag 0.40E+00    0.0     0.00000006      -118.4569488527 -4.83E-13
    14 TBLite/Diag 0.40E+00    0.0     9.5399E-09      -118.4569488527  5.12E-13
    15 TBLite/Diag 0.40E+00    0.0     5.7953E-09      -118.4569488527  1.99E-13
    16 TBLite/Diag 0.40E+00    0.0     2.7040E-10      -118.4569488527 -7.25E-13

  *** SCF run converged in    16 steps ***


  Core Hamiltonian energy:                                   -121.02153710402943
  Repulsive potential energy:                                   2.57531778835897
  Electrostatic energy:                                         0.11732944662613
  Self-consistent dispersion energy:                            0.00000000000000
  Non-self consistent dispersion energy:                       -0.12805898366707
  Correction for halogen bonding:                               0.00000000000000
  Electronic entropic energy:                                  -0.00000000000000
  Fermi energy:                                                -0.28972664068422

  Total energy:                                              -118.45694885271141
  Total energy (extrapolated to T->0):                       -118.45694885271141

 ENERGY| Total FORCE_EVAL ( QS ) energy [hartree]           -118.456948852711406

 OPT| **************************************************************************
 OPT| Step number                                                              0
 OPT| Optimization method                                                   BFGS
 OPT| Total energy [hartree]                                     -118.4569488527
 OPT| Internal pressure [bar]                                  169927.4489417467
 OPT| Used time [s]                                                        1.418
 OPT| **************************************************************************
 OPT| Estimated peak process memory [MiB]                                    178

 --------------------------
 OPTIMIZATION STEP:      1
 --------------------------

 CELL| Volume [angstrom^3]:                                           720.276047
 CELL| Vector a [angstrom]:       8.318     0.000     0.000   |a| =     8.317617
 CELL| Vector b [angstrom]:       0.000    12.647     0.000   |b| =    12.646551
 CELL| Vector c [angstrom]:       0.000     0.000     6.847   |c| =     6.847435
 CELL| Angle (b,c), alpha [degree]:                                    90.000000
 CELL| Angle (a,c), beta  [degree]:                                    90.000000
 CELL| Angle (a,b), gamma [degree]:                                    90.000000
 CELL| Numerically orthorhombic:                                             YES
 CELL| Periodicity                                                           XYZ

 Extrapolation method: ASPC

 Number of electrons:                                                        208
 Number of occupied orbitals:                                                104
 Number of molecular orbitals:                                               224

 Number of orbital functions:                                                224
 Number of independent orbital functions:                                    224


 SCF WAVEFUNCTION OPTIMIZATION

  Step     Update method      Time    Convergence         Total energy    Change
  ------------------------------------------------------------------------------
     1 TBLite/Diag 0.40E+00    0.0     0.17320885      -118.7517174149 -1.19E+02
     2 TBLite/Diag 0.40E+00    0.0     0.01543127      -118.7546674912 -2.95E-03
     3 TBLite/Diag 0.40E+00    0.0     0.00626567      -118.7549209152 -2.53E-04
     4 TBLite/Diag 0.40E+00    0.0     0.00078511      -118.7549207741  1.41E-07
     5 TBLite/Diag 0.40E+00    0.0     0.00049663      -118.7549226118 -1.84E-06
     6 TBLite/Diag 0.40E+00    0.0     0.00017676      -118.7549229441 -3.32E-07
     7 TBLite/Diag 0.40E+00    0.0     0.00002717      -118.7549229508 -6.69E-09
     8 TBLite/Diag 0.40E+00    0.0     0.00000931      -118.7549229515 -7.30E-10
     9 TBLite/Diag 0.40E+00    0.0     0.00000068      -118.7549229515 -3.18E-12
    10 TBLite/Diag 0.40E+00    0.0     0.00000019      -118.7549229515  1.99E-13
    11 TBLite/Diag 0.40E+00    0.0     0.00000003      -118.7549229515 -1.42E-14
    12 TBLite/Diag 0.40E+00    0.0     8.2439E-09      -118.7549229515 -2.98E-13
    13 TBLite/Diag 0.40E+00    0.0     2.2841E-09      -118.7549229515  7.53E-13
    14 TBLite/Diag 0.40E+00    0.0     1.0551E-09      -118.7549229515 -2.42E-13
    15 TBLite/Diag 0.40E+00    0.0     4.1726E-11      -118.7549229515  2.27E-13

  *** SCF run converged in    15 steps ***


  Core Hamiltonian energy:                                   -120.66207536462272
  Repulsive potential energy:                                   1.91501297538562
  Electrostatic energy:                                         0.11008539315420
  Self-consistent dispersion energy:                            0.00000000000000
  Non-self consistent dispersion energy:                       -0.11794595541886
  Correction for halogen bonding:                               0.00000000000000
  Electronic entropic energy:                                  -0.00000000000000
  Fermi energy:                                                -0.27865072200519

  Total energy:                                              -118.75492295150177
  Total energy (extrapolated to T->0):                       -118.75492295150177

 ENERGY| Total FORCE_EVAL ( QS ) energy [hartree]           -118.754922951501769

 OPT| **************************************************************************
 OPT| Step number                                                              1
 OPT| Optimization method                                                   BFGS
 OPT| Total energy [hartree]                                     -118.7549229515
 OPT| Internal pressure [bar]                                   96749.3830091222
 OPT| Effective energy change [hartree]                            -0.2979740988
 OPT| Predicted energy change [hartree]                            -0.7090401632
 OPT| Scaling factor                                                0.0000000000
 OPT| Step size                                                     0.2411616524
 OPT| Trust radius                                                  0.4724315332
 OPT| Decrease in energy                                                     YES
 OPT| Used time [s]                                                        1.419
 OPT|
 OPT| Maximum step size                                             0.2411616524
 OPT| Convergence limit for maximum step size                       0.0030000000
 OPT| Maximum step size is converged                                          NO
 OPT|
 OPT| RMS step size                                                 0.0799233959
 OPT| Convergence limit for RMS step size                           0.0015000000
 OPT| RMS step size is converged                                              NO
 OPT|
 OPT| Maximum gradient                                              0.1349594583
 OPT| Convergence limit for maximum gradient                        0.0004500000
 OPT| Maximum gradient is converged                                           NO
 OPT|
 OPT| RMS gradient                                                  0.0465341157
 OPT| Convergence limit for RMS gradient                            0.0003000000
 OPT| RMS gradient is converged                                               NO
 OPT|
 OPT| Pressure deviation [bar]                                  96749.3830091222
 OPT| Pressure tolerance [bar]                                    100.0000000000
 OPT| Pressure is converged                                                   NO
 OPT| **************************************************************************
 OPT| Estimated peak process memory after this step [MiB]                    182

 --------------------------
 OPTIMIZATION STEP:      2
 --------------------------

 CELL| Volume [angstrom^3]:                                           732.513968
 CELL| Vector a [angstrom]:       8.385     0.000     0.000   |a| =     8.384992
 CELL| Vector b [angstrom]:       0.000    12.679     0.000   |b| =    12.679398
 CELL| Vector c [angstrom]:       0.000     0.000     6.890   |c| =     6.889927
 CELL| Angle (b,c), alpha [degree]:                                    90.000000
 CELL| Angle (a,c), beta  [degree]:                                    90.000000
 CELL| Angle (a,b), gamma [degree]:                                    90.000000
 CELL| Numerically orthorhombic:                                             YES
 CELL| Periodicity                                                           XYZ

 Extrapolation method: ASPC

 Number of electrons:                                                        208
 Number of occupied orbitals:                                                104
 Number of molecular orbitals:                                               224

 Number of orbital functions:                                                224
 Number of independent orbital functions:                                    224


 SCF WAVEFUNCTION OPTIMIZATION

  Step     Update method      Time    Convergence         Total energy    Change
  ------------------------------------------------------------------------------
     1 TBLite/Diag 0.40E+00    0.0     0.07092327      -118.9312310383 -1.19E+02
     2 TBLite/Diag 0.40E+00    0.0     0.01244918      -118.9324989876 -1.27E-03
     3 TBLite/Diag 0.40E+00    0.0     0.00342207      -118.9326125780 -1.14E-04
     4 TBLite/Diag 0.40E+00    0.0     0.00105524      -118.9326258922 -1.33E-05
     5 TBLite/Diag 0.40E+00    0.0     0.00036125      -118.9326268647 -9.73E-07
     6 TBLite/Diag 0.40E+00    0.0     0.00013160      -118.9326270002 -1.36E-07
     7 TBLite/Diag 0.40E+00    0.0     0.00001877      -118.9326270054 -5.13E-09
     8 TBLite/Diag 0.40E+00    0.0     0.00000511      -118.9326270057 -3.04E-10
     9 TBLite/Diag 0.40E+00    0.0     0.00000187      -118.9326270057 -1.88E-11
    10 TBLite/Diag 0.40E+00    0.0     0.00000013      -118.9326270057 -2.56E-13
    11 TBLite/Diag 0.40E+00    0.0     0.00000004      -118.9326270057  7.11E-13
    12 TBLite/Diag 0.40E+00    0.0     4.5398E-09      -118.9326270057 -5.83E-13
    13 TBLite/Diag 0.40E+00    0.0     1.0614E-09      -118.9326270057  2.84E-13
    14 TBLite/Diag 0.40E+00    0.0     1.6539E-10      -118.9326270057  9.95E-14

  *** SCF run converged in    14 steps ***


  Core Hamiltonian energy:                                   -120.54994912298407
  Repulsive potential energy:                                   1.62933461294980
  Electrostatic energy:                                         0.10863291218318
  Self-consistent dispersion energy:                            0.00000000000000
  Non-self consistent dispersion energy:                       -0.12064540784768
  Correction for halogen bonding:                               0.00000000000000
  Electronic entropic energy:                                  -0.00000000000000
  Fermi energy:                                                -0.28614298848786

  Total energy:                                              -118.93262700569876
  Total energy (extrapolated to T->0):                       -118.93262700569876

 ENERGY| Total FORCE_EVAL ( QS ) energy [hartree]           -118.932627005698762

 OPT| **************************************************************************
 OPT| Step number                                                              2
 OPT| Optimization method                                                   BFGS
 OPT| Total energy [hartree]                                     -118.9326270057
 OPT| Internal pressure [bar]                                   14205.5560461819
 OPT| Effective energy change [hartree]                            -0.1777040542
 OPT| Predicted energy change [hartree]                            -0.1484717172
 OPT| Scaling factor                                                0.0000000000
 OPT| Step size                                                     0.1273200351
 OPT| Trust radius                                                  0.4724315332
 OPT| Decrease in energy                                                     YES
 OPT| Used time [s]                                                        1.440
 OPT|
 OPT| Maximum step size                                             0.1273200351
 OPT| Convergence limit for maximum step size                       0.0030000000
 OPT| Maximum step size is converged                                          NO
 OPT|
 OPT| RMS step size                                                 0.0297135620
 OPT| Convergence limit for RMS step size                           0.0015000000
 OPT| RMS step size is converged                                              NO
 OPT|
 OPT| Maximum gradient                                              0.0393842547
 OPT| Convergence limit for maximum gradient                        0.0004500000
 OPT| Maximum gradient is converged                                           NO
 OPT|
 OPT| RMS gradient                                                  0.0124180353
 OPT| Convergence limit for RMS gradient                            0.0003000000
 OPT| RMS gradient is converged                                               NO
 OPT|
 OPT| Pressure deviation [bar]                                  14205.5560461819
 OPT| Pressure tolerance [bar]                                    100.0000000000
 OPT| Pressure is converged                                                   NO
 OPT| **************************************************************************
 OPT| Estimated peak process memory after this step [MiB]                    183

 --------------------------
 OPTIMIZATION STEP:      3
 --------------------------

 CELL| Volume [angstrom^3]:                                           735.141717
 CELL| Vector a [angstrom]:       8.391     0.000     0.000   |a| =     8.390740
 CELL| Vector b [angstrom]:       0.000    12.691     0.000   |b| =    12.690884
 CELL| Vector c [angstrom]:       0.000     0.000     6.904   |c| =     6.903653
 CELL| Angle (b,c), alpha [degree]:                                    90.000000
 CELL| Angle (a,c), beta  [degree]:                                    90.000000
 CELL| Angle (a,b), gamma [degree]:                                    90.000000
 CELL| Numerically orthorhombic:                                             YES
 CELL| Periodicity                                                           XYZ

 Extrapolation method: ASPC

 Number of electrons:                                                        208
 Number of occupied orbitals:                                                104
 Number of molecular orbitals:                                               224

 Number of orbital functions:                                                224
 Number of independent orbital functions:                                    224


 SCF WAVEFUNCTION OPTIMIZATION

  Step     Update method      Time    Convergence         Total energy    Change
  ------------------------------------------------------------------------------
     1 TBLite/Diag 0.40E+00    0.0     0.02946671      -118.9537661434 -1.19E+02
     2 TBLite/Diag 0.40E+00    0.0     0.00369585      -118.9539048148 -1.39E-04
     3 TBLite/Diag 0.40E+00    0.0     0.00133502      -118.9539196616 -1.48E-05
     4 TBLite/Diag 0.40E+00    0.0     0.00047912      -118.9539231232 -3.46E-06
     5 TBLite/Diag 0.40E+00    0.0     0.00006670      -118.9539231479 -2.48E-08
     6 TBLite/Diag 0.40E+00    0.0     0.00004754      -118.9539231634 -1.54E-08
     7 TBLite/Diag 0.40E+00    0.0     0.00000991      -118.9539231649 -1.54E-09
     8 TBLite/Diag 0.40E+00    0.0     0.00000469      -118.9539231650 -9.18E-11
     9 TBLite/Diag 0.40E+00    0.0     0.00000045      -118.9539231650 -3.04E-12
    10 TBLite/Diag 0.40E+00    0.0     0.00000007      -118.9539231650 -1.14E-13
    11 TBLite/Diag 0.40E+00    0.0     0.00000002      -118.9539231650  2.42E-13
    12 TBLite/Diag 0.40E+00    0.0     2.7875E-09      -118.9539231650 -2.13E-13
    13 TBLite/Diag 0.40E+00    0.0     4.2920E-10      -118.9539231650  4.83E-13

  *** SCF run converged in    13 steps ***


  Core Hamiltonian energy:                                   -120.55010661226045
  Repulsive potential energy:                                   1.60567504761707
  Electrostatic energy:                                         0.11205480990855
  Self-consistent dispersion energy:                            0.00000000000000
  Non-self consistent dispersion energy:                       -0.12154641027118
  Correction for halogen bonding:                               0.00000000000000
  Electronic entropic energy:                                  -0.00000000000000
  Fermi energy:                                                -0.28802027826011

  Total energy:                                              -118.95392316500600
  Total energy (extrapolated to T->0):                       -118.95392316500600

 ENERGY| Total FORCE_EVAL ( QS ) energy [hartree]           -118.953923165006003

 OPT| **************************************************************************
 OPT| Step number                                                              3
 OPT| Optimization method                                                   BFGS
 OPT| Total energy [hartree]                                     -118.9539231650
 OPT| Internal pressure [bar]                                    1060.3525857383
 OPT| Effective energy change [hartree]                            -0.0212961593
 OPT| Predicted energy change [hartree]                            -0.0178935059
 OPT| Scaling factor                                                0.0000000000
 OPT| Step size                                                     0.0397612431
 OPT| Trust radius                                                  0.4724315332
 OPT| Decrease in energy                                                     YES
 OPT| Used time [s]                                                        1.429
 OPT|
 OPT| Maximum step size                                             0.0397612431
 OPT| Convergence limit for maximum step size                       0.0030000000
 OPT| Maximum step size is converged                                          NO
 OPT|
 OPT| RMS step size                                                 0.0132436825
 OPT| Convergence limit for RMS step size                           0.0015000000
 OPT| RMS step size is converged                                              NO
 OPT|
 OPT| Maximum gradient                                              0.0094542900
 OPT| Convergence limit for maximum gradient                        0.0004500000
 OPT| Maximum gradient is converged                                           NO
 OPT|
 OPT| RMS gradient                                                  0.0042979910
 OPT| Convergence limit for RMS gradient                            0.0003000000
 OPT| RMS gradient is converged                                               NO
 OPT|
 OPT| Pressure deviation [bar]                                   1060.3525857383
 OPT| Pressure tolerance [bar]                                    100.0000000000
 OPT| Pressure is converged                                                   NO
 OPT| **************************************************************************
 OPT| Estimated peak process memory after this step [MiB]                    184

 --------------------------
 OPTIMIZATION STEP:      4
 --------------------------

 CELL| Volume [angstrom^3]:                                           736.051634
 CELL| Vector a [angstrom]:       8.390     0.000     0.000   |a| =     8.390046
 CELL| Vector b [angstrom]:       0.000    12.697     0.000   |b| =    12.696818
 CELL| Vector c [angstrom]:       0.000     0.000     6.910   |c| =     6.909538
 CELL| Angle (b,c), alpha [degree]:                                    90.000000
 CELL| Angle (a,c), beta  [degree]:                                    90.000000
 CELL| Angle (a,b), gamma [degree]:                                    90.000000
 CELL| Numerically orthorhombic:                                             YES
 CELL| Periodicity                                                           XYZ

 Extrapolation method: ASPC

 Number of electrons:                                                        208
 Number of occupied orbitals:                                                104
 Number of molecular orbitals:                                               224

 Number of orbital functions:                                                224
 Number of independent orbital functions:                                    224


 SCF WAVEFUNCTION OPTIMIZATION

  Step     Update method      Time    Convergence         Total energy    Change
  ------------------------------------------------------------------------------
     1 TBLite/Diag 0.40E+00    0.0     0.00836867      -118.9583347936 -1.19E+02
     2 TBLite/Diag 0.40E+00    0.0     0.00214555      -118.9583669843 -3.22E-05
     3 TBLite/Diag 0.40E+00    0.0     0.00031085      -118.9583677713 -7.87E-07
     4 TBLite/Diag 0.40E+00    0.0     0.00016326      -118.9583679273 -1.56E-07
     5 TBLite/Diag 0.40E+00    0.0     0.00007155      -118.9583679864 -5.91E-08
     6 TBLite/Diag 0.40E+00    0.0     0.00001259      -118.9583679879 -1.55E-09
     7 TBLite/Diag 0.40E+00    0.0     0.00000658      -118.9583679882 -2.82E-10
     8 TBLite/Diag 0.40E+00    0.0     0.00000078      -118.9583679882 -8.03E-12
     9 TBLite/Diag 0.40E+00    0.0     0.00000032      -118.9583679882 -5.12E-13
    10 TBLite/Diag 0.40E+00    0.0     0.00000003      -118.9583679882  1.42E-13
    11 TBLite/Diag 0.40E+00    0.0     8.9305E-09      -118.9583679882 -1.28E-13
    12 TBLite/Diag 0.40E+00    0.0     1.0560E-09      -118.9583679882 -1.42E-14
    13 TBLite/Diag 0.40E+00    0.0     4.2175E-10      -118.9583679882 -1.99E-13

  *** SCF run converged in    13 steps ***


  Core Hamiltonian energy:                                   -120.54291540953828
  Repulsive potential energy:                                   1.59345581969012
  Electrostatic energy:                                         0.11277512764520
  Self-consistent dispersion energy:                            0.00000000000000
  Non-self consistent dispersion energy:                       -0.12168352602010
  Correction for halogen bonding:                               0.00000000000000
  Electronic entropic energy:                                  -0.00000000000000
  Fermi energy:                                                -0.28741052061903

  Total energy:                                              -118.95836798822305
  Total energy (extrapolated to T->0):                       -118.95836798822305

 ENERGY| Total FORCE_EVAL ( QS ) energy [hartree]           -118.958367988223046

 OPT| **************************************************************************
 OPT| Step number                                                              4
 OPT| Optimization method                                                   BFGS
 OPT| Total energy [hartree]                                     -118.9583679882
 OPT| Internal pressure [bar]                                   -2851.7711916324
 OPT| Effective energy change [hartree]                            -0.0044448232
 OPT| Predicted energy change [hartree]                            -0.0029370101
 OPT| Scaling factor                                                0.0000000000
 OPT| Step size                                                     0.0140886040
 OPT| Trust radius                                                  0.4724315332
 OPT| Decrease in energy                                                     YES
 OPT| Used time [s]                                                        1.435
 OPT|
 OPT| Maximum step size                                             0.0140886040
 OPT| Convergence limit for maximum step size                       0.0030000000
 OPT| Maximum step size is converged                                          NO
 OPT|
 OPT| RMS step size                                                 0.0065716935
 OPT| Convergence limit for RMS step size                           0.0015000000
 OPT| RMS step size is converged                                              NO
 OPT|
 OPT| Maximum gradient                                              0.0076745390
 OPT| Convergence limit for maximum gradient                        0.0004500000
 OPT| Maximum gradient is converged                                           NO
 OPT|
 OPT| RMS gradient                                                  0.0032984076
 OPT| Convergence limit for RMS gradient                            0.0003000000
 OPT| RMS gradient is converged                                               NO
 OPT|
 OPT| Pressure deviation [bar]                                  -2851.7711916324
 OPT| Pressure tolerance [bar]                                    100.0000000000
 OPT| Pressure is converged                                                   NO
 OPT| **************************************************************************
 OPT| Estimated peak process memory after this step [MiB]                    184

 --------------------------
 OPTIMIZATION STEP:      5
 --------------------------

 CELL| Volume [angstrom^3]:                                           736.510554
 CELL| Vector a [angstrom]:       8.387     0.000     0.000   |a| =     8.387214
 CELL| Vector b [angstrom]:       0.000    12.702     0.000   |b| =    12.702440
 CELL| Vector c [angstrom]:       0.000     0.000     6.913   |c| =     6.913120
 CELL| Angle (b,c), alpha [degree]:                                    90.000000
 CELL| Angle (a,c), beta  [degree]:                                    90.000000
 CELL| Angle (a,b), gamma [degree]:                                    90.000000
 CELL| Numerically orthorhombic:                                             YES
 CELL| Periodicity                                                           XYZ

 Extrapolation method: ASPC

 Number of electrons:                                                        208
 Number of occupied orbitals:                                                104
 Number of molecular orbitals:                                               224

 Number of orbital functions:                                                224
 Number of independent orbital functions:                                    224


 SCF WAVEFUNCTION OPTIMIZATION

  Step     Update method      Time    Convergence         Total energy    Change
  ------------------------------------------------------------------------------
     1 TBLite/Diag 0.40E+00    0.0     0.01013670      -118.9621006871 -1.19E+02
     2 TBLite/Diag 0.40E+00    0.0     0.00154343      -118.9621199167 -1.92E-05
     3 TBLite/Diag 0.40E+00    0.0     0.00031404      -118.9621202516 -3.35E-07
     4 TBLite/Diag 0.40E+00    0.0     0.00014299      -118.9621203771 -1.26E-07
     5 TBLite/Diag 0.40E+00    0.0     0.00004174      -118.9621203902 -1.31E-08
     6 TBLite/Diag 0.40E+00    0.0     0.00000858      -118.9621203913 -1.03E-09
     7 TBLite/Diag 0.40E+00    0.0     0.00000336      -118.9621203915 -2.55E-10
     8 TBLite/Diag 0.40E+00    0.0     0.00000041      -118.9621203915 -1.89E-12
     9 TBLite/Diag 0.40E+00    0.0     0.00000013      -118.9621203915 -1.99E-13
    10 TBLite/Diag 0.40E+00    0.0     0.00000002      -118.9621203915  2.84E-14
    11 TBLite/Diag 0.40E+00    0.0     6.4175E-09      -118.9621203915  3.13E-13
    12 TBLite/Diag 0.40E+00    0.0     1.1419E-09      -118.9621203915 -5.97E-13
    13 TBLite/Diag 0.40E+00    0.0     4.7805E-10      -118.9621203915  2.13E-13

  *** SCF run converged in    13 steps ***


  Core Hamiltonian energy:                                   -120.53439900381545
  Repulsive potential energy:                                   1.58037096776456
  Electrostatic energy:                                         0.11367062573974
  Self-consistent dispersion energy:                            0.00000000000000
  Non-self consistent dispersion energy:                       -0.12176298120126
  Correction for halogen bonding:                               0.00000000000000
  Electronic entropic energy:                                  -0.00000000000000
  Fermi energy:                                                -0.28699990879384

  Total energy:                                              -118.96212039151240
  Total energy (extrapolated to T->0):                       -118.96212039151240

 ENERGY| Total FORCE_EVAL ( QS ) energy [hartree]           -118.962120391512400

 OPT| **************************************************************************
 OPT| Step number                                                              5
 OPT| Optimization method                                                   BFGS
 OPT| Total energy [hartree]                                     -118.9621203915
 OPT| Internal pressure [bar]                                   -6273.5457775894
 OPT| Effective energy change [hartree]                            -0.0037524033
 OPT| Predicted energy change [hartree]                            -0.0027087758
 OPT| Scaling factor                                                0.0000000000
 OPT| Step size                                                     0.0207746794
 OPT| Trust radius                                                  0.4724315332
 OPT| Decrease in energy                                                     YES
 OPT| Used time [s]                                                        1.462
 OPT|
 OPT| Maximum step size                                             0.0207746794
 OPT| Convergence limit for maximum step size                       0.0030000000
 OPT| Maximum step size is converged                                          NO
 OPT|
 OPT| RMS step size                                                 0.0091816474
 OPT| Convergence limit for RMS step size                           0.0015000000
 OPT| RMS step size is converged                                              NO
 OPT|
 OPT| Maximum gradient                                              0.0078710113
 OPT| Convergence limit for maximum gradient                        0.0004500000
 OPT| Maximum gradient is converged                                           NO
 OPT|
 OPT| RMS gradient                                                  0.0025467615
 OPT| Convergence limit for RMS gradient                            0.0003000000
 OPT| RMS gradient is converged                                               NO
 OPT|
 OPT| Pressure deviation [bar]                                  -6273.5457775894
 OPT| Pressure tolerance [bar]                                    100.0000000000
 OPT| Pressure is converged                                                   NO
 OPT| **************************************************************************
 OPT| Estimated peak process memory after this step [MiB]                    184

 --------------------------
 OPTIMIZATION STEP:      6
 --------------------------

 CELL| Volume [angstrom^3]:                                           735.686074
 CELL| Vector a [angstrom]:       8.381     0.000     0.000   |a| =     8.381080
 CELL| Vector b [angstrom]:       0.000    12.703     0.000   |b| =    12.702878
 CELL| Vector c [angstrom]:       0.000     0.000     6.910   |c| =     6.910197
 CELL| Angle (b,c), alpha [degree]:                                    90.000000
 CELL| Angle (a,c), beta  [degree]:                                    90.000000
 CELL| Angle (a,b), gamma [degree]:                                    90.000000
 CELL| Numerically orthorhombic:                                             YES
 CELL| Periodicity                                                           XYZ

 Extrapolation method: ASPC

 Number of electrons:                                                        208
 Number of occupied orbitals:                                                104
 Number of molecular orbitals:                                               224

 Number of orbital functions:                                                224
 Number of independent orbital functions:                                    224


 SCF WAVEFUNCTION OPTIMIZATION

  Step     Update method      Time    Convergence         Total energy    Change
  ------------------------------------------------------------------------------
     1 TBLite/Diag 0.40E+00    0.0     0.00894709      -118.9639259349 -1.19E+02
     2 TBLite/Diag 0.40E+00    0.0     0.00117041      -118.9639342470 -8.31E-06
     3 TBLite/Diag 0.40E+00    0.0     0.00033346      -118.9639352467 -1.00E-06
     4 TBLite/Diag 0.40E+00    0.0     0.00008155      -118.9639353202 -7.35E-08
     5 TBLite/Diag 0.40E+00    0.0     0.00001316      -118.9639353215 -1.30E-09
     6 TBLite/Diag 0.40E+00    0.0     0.00000523      -118.9639353218 -2.54E-10
     7 TBLite/Diag 0.40E+00    0.0     0.00000188      -118.9639353218 -3.76E-11
     8 TBLite/Diag 0.40E+00    0.0     0.00000024      -118.9639353218 -2.42E-13
     9 TBLite/Diag 0.40E+00    0.0     0.00000006      -118.9639353218 -5.26E-13
    10 TBLite/Diag 0.40E+00    0.0     8.1322E-09      -118.9639353218  2.42E-13
    11 TBLite/Diag 0.40E+00    0.0     4.8162E-09      -118.9639353218  2.27E-13
    12 TBLite/Diag 0.40E+00    0.0     7.5352E-10      -118.9639353218  1.56E-13

  *** SCF run converged in    12 steps ***


  Core Hamiltonian energy:                                   -120.53415031098349
  Repulsive potential energy:                                   1.57792178652858
  Electrostatic energy:                                         0.11418795643442
  Self-consistent dispersion energy:                            0.00000000000000
  Non-self consistent dispersion energy:                       -0.12189475379291
  Correction for halogen bonding:                               0.00000000000000
  Electronic entropic energy:                                  -0.00000000000000
  Fermi energy:                                                -0.28684470128764

  Total energy:                                              -118.96393532181341
  Total energy (extrapolated to T->0):                       -118.96393532181341

 ENERGY| Total FORCE_EVAL ( QS ) energy [hartree]           -118.963935321813409

 OPT| **************************************************************************
 OPT| Step number                                                              6
 OPT| Optimization method                                                   BFGS
 OPT| Total energy [hartree]                                     -118.9639353218
 OPT| Internal pressure [bar]                                   -6686.7042034380
 OPT| Effective energy change [hartree]                            -0.0018149303
 OPT| Predicted energy change [hartree]                            -0.0012138649
 OPT| Scaling factor                                                0.0000000000
 OPT| Step size                                                     0.0155938681
 OPT| Trust radius                                                  0.4724315332
 OPT| Decrease in energy                                                     YES
 OPT| Used time [s]                                                        1.419
 OPT|
 OPT| Maximum step size                                             0.0155938681
 OPT| Convergence limit for maximum step size                       0.0030000000
 OPT| Maximum step size is converged                                          NO
 OPT|
 OPT| RMS step size                                                 0.0065303522
 OPT| Convergence limit for RMS step size                           0.0015000000
 OPT| RMS step size is converged                                              NO
 OPT|
 OPT| Maximum gradient                                              0.0086176231
 OPT| Convergence limit for maximum gradient                        0.0004500000
 OPT| Maximum gradient is converged                                           NO
 OPT|
 OPT| RMS gradient                                                  0.0020694938
 OPT| Convergence limit for RMS gradient                            0.0003000000
 OPT| RMS gradient is converged                                               NO
 OPT|
 OPT| Pressure deviation [bar]                                  -6686.7042034380
 OPT| Pressure tolerance [bar]                                    100.0000000000
 OPT| Pressure is converged                                                   NO
 OPT| **************************************************************************
 OPT| Estimated peak process memory after this step [MiB]                    185

 --------------------------
 OPTIMIZATION STEP:      7
 --------------------------

 CELL| Volume [angstrom^3]:                                           733.598206
 CELL| Vector a [angstrom]:       8.370     0.000     0.000   |a| =     8.370473
 CELL| Vector b [angstrom]:       0.000    12.699     0.000   |b| =    12.699270
 CELL| Vector c [angstrom]:       0.000     0.000     6.901   |c| =     6.901278
 CELL| Angle (b,c), alpha [degree]:                                    90.000000
 CELL| Angle (a,c), beta  [degree]:                                    90.000000
 CELL| Angle (a,b), gamma [degree]:                                    90.000000
 CELL| Numerically orthorhombic:                                             YES
 CELL| Periodicity                                                           XYZ

 Extrapolation method: ASPC

 Number of electrons:                                                        208
 Number of occupied orbitals:                                                104
 Number of molecular orbitals:                                               224

 Number of orbital functions:                                                224
 Number of independent orbital functions:                                    224


 SCF WAVEFUNCTION OPTIMIZATION

  Step     Update method      Time    Convergence         Total energy    Change
  ------------------------------------------------------------------------------
     1 TBLite/Diag 0.40E+00    0.0     0.01144039      -118.9656252349 -1.19E+02
     2 TBLite/Diag 0.40E+00    0.0     0.00084958      -118.9656347048 -9.47E-06
     3 TBLite/Diag 0.40E+00    0.0     0.00028792      -118.9656359821 -1.28E-06
     4 TBLite/Diag 0.40E+00    0.0     0.00003009      -118.9656359862 -4.09E-09
     5 TBLite/Diag 0.40E+00    0.0     0.00001047      -118.9656359882 -2.07E-09
     6 TBLite/Diag 0.40E+00    0.0     0.00000417      -118.9656359884 -1.54E-10
     7 TBLite/Diag 0.40E+00    0.0     0.00000156      -118.9656359884 -2.70E-11
     8 TBLite/Diag 0.40E+00    0.0     0.00000014      -118.9656359884 -4.26E-13
     9 TBLite/Diag 0.40E+00    0.0     0.00000006      -118.9656359884 -5.83E-13
    10 TBLite/Diag 0.40E+00    0.0     7.6582E-09      -118.9656359884 -1.28E-13
    11 TBLite/Diag 0.40E+00    0.0     3.8537E-09      -118.9656359884  4.69E-13
    12 TBLite/Diag 0.40E+00    0.0     7.3411E-10      -118.9656359884  1.28E-13

  *** SCF run converged in    12 steps ***


  Core Hamiltonian energy:                                   -120.53890892731113
  Repulsive potential energy:                                   1.58103793480058
  Electrostatic energy:                                         0.11444653440253
  Self-consistent dispersion energy:                            0.00000000000000
  Non-self consistent dispersion energy:                       -0.12221153031199
  Correction for halogen bonding:                               0.00000000000000
  Electronic entropic energy:                                  -0.00000000000000
  Fermi energy:                                                -0.28677366614053

  Total energy:                                              -118.96563598842000
  Total energy (extrapolated to T->0):                       -118.96563598842000

 ENERGY| Total FORCE_EVAL ( QS ) energy [hartree]           -118.965635988420004

 OPT| **************************************************************************
 OPT| Step number                                                              7
 OPT| Optimization method                                                   BFGS
 OPT| Total energy [hartree]                                     -118.9656359884
 OPT| Internal pressure [bar]                                   -5779.5865639027
 OPT| Effective energy change [hartree]                            -0.0017006666
 OPT| Predicted energy change [hartree]                            -0.0011060723
 OPT| Scaling factor                                                0.0000000000
 OPT| Step size                                                     0.0200443989
 OPT| Trust radius                                                  0.4724315332
 OPT| Decrease in energy                                                     YES
 OPT| Used time [s]                                                        1.437
 OPT|
 OPT| Maximum step size                                             0.0200443989
 OPT| Convergence limit for maximum step size                       0.0030000000
 OPT| Maximum step size is converged                                          NO
 OPT|
 OPT| RMS step size                                                 0.0074201692
 OPT| Convergence limit for RMS step size                           0.0015000000
 OPT| RMS step size is converged                                              NO
 OPT|
 OPT| Maximum gradient                                              0.0073290818
 OPT| Convergence limit for maximum gradient                        0.0004500000
 OPT| Maximum gradient is converged                                           NO
 OPT|
 OPT| RMS gradient                                                  0.0021503123
 OPT| Convergence limit for RMS gradient                            0.0003000000
 OPT| RMS gradient is converged                                               NO
 OPT|
 OPT| Pressure deviation [bar]                                  -5779.5865639027
 OPT| Pressure tolerance [bar]                                    100.0000000000
 OPT| Pressure is converged                                                   NO
 OPT| **************************************************************************
 OPT| Estimated peak process memory after this step [MiB]                    185

 --------------------------
 OPTIMIZATION STEP:      8
 --------------------------

 CELL| Volume [angstrom^3]:                                           729.715425
 CELL| Vector a [angstrom]:       8.353     0.000     0.000   |a| =     8.352658
 CELL| Vector b [angstrom]:       0.000    12.690     0.000   |b| =    12.690461
 CELL| Vector c [angstrom]:       0.000     0.000     6.884   |c| =     6.884167
 CELL| Angle (b,c), alpha [degree]:                                    90.000000
 CELL| Angle (a,c), beta  [degree]:                                    90.000000
 CELL| Angle (a,b), gamma [degree]:                                    90.000000
 CELL| Numerically orthorhombic:                                             YES
 CELL| Periodicity                                                           XYZ

 Extrapolation method: ASPC

 Number of electrons:                                                        208
 Number of occupied orbitals:                                                104
 Number of molecular orbitals:                                               224

 Number of orbital functions:                                                224
 Number of independent orbital functions:                                    224


 SCF WAVEFUNCTION OPTIMIZATION

  Step     Update method      Time    Convergence         Total energy    Change
  ------------------------------------------------------------------------------
     1 TBLite/Diag 0.40E+00    0.0     0.01705362      -118.9677330021 -1.19E+02
     2 TBLite/Diag 0.40E+00    0.0     0.00112836      -118.9677419329 -8.93E-06
     3 TBLite/Diag 0.40E+00    0.0     0.00027696      -118.9677427566 -8.24E-07
     4 TBLite/Diag 0.40E+00    0.0     0.00007387      -118.9677427624 -5.79E-09
     5 TBLite/Diag 0.40E+00    0.0     0.00003396      -118.9677427808 -1.83E-08
     6 TBLite/Diag 0.40E+00    0.0     0.00000380      -118.9677427810 -2.24E-10
     7 TBLite/Diag 0.40E+00    0.0     0.00000134      -118.9677427810 -2.00E-11
     8 TBLite/Diag 0.40E+00    0.0     0.00000022      -118.9677427810 -3.98E-13
     9 TBLite/Diag 0.40E+00    0.0     0.00000013      -118.9677427810 -7.39E-13
    10 TBLite/Diag 0.40E+00    0.0     0.00000001      -118.9677427810  1.71E-13
    11 TBLite/Diag 0.40E+00    0.0     7.2851E-09      -118.9677427810  9.24E-13
    12 TBLite/Diag 0.40E+00    0.0     7.1514E-10      -118.9677427810 -8.24E-13

  *** SCF run converged in    12 steps ***


  Core Hamiltonian energy:                                   -120.54693767419865
  Repulsive potential energy:                                   1.58766105815781
  Electrostatic energy:                                         0.11437836001835
  Self-consistent dispersion energy:                            0.00000000000000
  Non-self consistent dispersion energy:                       -0.12284452498867
  Correction for halogen bonding:                               0.00000000000000
  Electronic entropic energy:                                  -0.00000000000000
  Fermi energy:                                                -0.28671476405032

  Total energy:                                              -118.96774278101115
  Total energy (extrapolated to T->0):                       -118.96774278101115

 ENERGY| Total FORCE_EVAL ( QS ) energy [hartree]           -118.967742781011154

 OPT| **************************************************************************
 OPT| Step number                                                              8
 OPT| Optimization method                                                   BFGS
 OPT| Total energy [hartree]                                     -118.9677427810
 OPT| Internal pressure [bar]                                   -4010.7193539781
 OPT| Effective energy change [hartree]                            -0.0021067926
 OPT| Predicted energy change [hartree]                            -0.0013667822
 OPT| Scaling factor                                                0.0000000000
 OPT| Step size                                                     0.0336643529
 OPT| Trust radius                                                  0.4724315332
 OPT| Decrease in energy                                                     YES
 OPT| Used time [s]                                                        1.422
 OPT|
 OPT| Maximum step size                                             0.0336643529
 OPT| Convergence limit for maximum step size                       0.0030000000
 OPT| Maximum step size is converged                                          NO
 OPT|
 OPT| RMS step size                                                 0.0106483258
 OPT| Convergence limit for RMS step size                           0.0015000000
 OPT| RMS step size is converged                                              NO
 OPT|
 OPT| Maximum gradient                                              0.0051793385
 OPT| Convergence limit for maximum gradient                        0.0004500000
 OPT| Maximum gradient is converged                                           NO
 OPT|
 OPT| RMS gradient                                                  0.0026082831
 OPT| Convergence limit for RMS gradient                            0.0003000000
 OPT| RMS gradient is converged                                               NO
 OPT|
 OPT| Pressure deviation [bar]                                  -4010.7193539781
 OPT| Pressure tolerance [bar]                                    100.0000000000
 OPT| Pressure is converged                                                   NO
 OPT| **************************************************************************
 OPT| Estimated peak process memory after this step [MiB]                    185

 --------------------------
 OPTIMIZATION STEP:      9
 --------------------------

 CELL| Volume [angstrom^3]:                                           723.757247
 CELL| Vector a [angstrom]:       8.326     0.000     0.000   |a| =     8.326309
 CELL| Vector b [angstrom]:       0.000    12.675     0.000   |b| =    12.675399
 CELL| Vector c [angstrom]:       0.000     0.000     6.858   |c| =     6.857705
 CELL| Angle (b,c), alpha [degree]:                                    90.000000
 CELL| Angle (a,c), beta  [degree]:                                    90.000000
 CELL| Angle (a,b), gamma [degree]:                                    90.000000
 CELL| Numerically orthorhombic:                                             YES
 CELL| Periodicity                                                           XYZ

 Extrapolation method: ASPC

 Number of electrons:                                                        208
 Number of occupied orbitals:                                                104
 Number of molecular orbitals:                                               224

 Number of orbital functions:                                                224
 Number of independent orbital functions:                                    224


 SCF WAVEFUNCTION OPTIMIZATION

  Step     Update method      Time    Convergence         Total energy    Change
  ------------------------------------------------------------------------------
     1 TBLite/Diag 0.40E+00    0.0     0.02391495      -118.9702984368 -1.19E+02
     2 TBLite/Diag 0.40E+00    0.0     0.00091706      -118.9703050913 -6.65E-06
     3 TBLite/Diag 0.40E+00    0.0     0.00009044      -118.9703052140 -1.23E-07
     4 TBLite/Diag 0.40E+00    0.0     0.00004770      -118.9703052267 -1.26E-08
     5 TBLite/Diag 0.40E+00    0.0     0.00002396      -118.9703052336 -6.96E-09
     6 TBLite/Diag 0.40E+00    0.0     0.00000652      -118.9703052341 -4.94E-10
     7 TBLite/Diag 0.40E+00    0.0     0.00000209      -118.9703052342 -6.10E-11
     8 TBLite/Diag 0.40E+00    0.0     0.00000031      -118.9703052342 -7.67E-13
     9 TBLite/Diag 0.40E+00    0.0     0.00000015      -118.9703052342 -8.95E-13
    10 TBLite/Diag 0.40E+00    0.0     0.00000002      -118.9703052342 -4.26E-14
    11 TBLite/Diag 0.40E+00    0.0     9.0418E-09      -118.9703052342  8.53E-14
    12 TBLite/Diag 0.40E+00    0.0     7.6756E-10      -118.9703052342  1.42E-14

  *** SCF run converged in    12 steps ***


  Core Hamiltonian energy:                                   -120.55408249598204
  Repulsive potential energy:                                   1.59380061466878
  Electrostatic energy:                                         0.11386174443220
  Self-consistent dispersion energy:                            0.00000000000000
  Non-self consistent dispersion energy:                       -0.12388509731191
  Correction for halogen bonding:                               0.00000000000000
  Electronic entropic energy:                                  -0.00000000000000
  Fermi energy:                                                -0.28668803410780

  Total energy:                                              -118.97030523419298
  Total energy (extrapolated to T->0):                       -118.97030523419298

 ENERGY| Total FORCE_EVAL ( QS ) energy [hartree]           -118.970305234192978

 OPT| **************************************************************************
 OPT| Step number                                                              9
 OPT| Optimization method                                                   BFGS
 OPT| Total energy [hartree]                                     -118.9703052342
 OPT| Internal pressure [bar]                                   -2109.3818241319
 OPT| Effective energy change [hartree]                            -0.0025624532
 OPT| Predicted energy change [hartree]                            -0.0017220388
 OPT| Scaling factor                                                0.0000000000
 OPT| Step size                                                     0.0500064223
 OPT| Trust radius                                                  0.4724315332
 OPT| Decrease in energy                                                     YES
 OPT| Used time [s]                                                        1.380
 OPT|
 OPT| Maximum step size                                             0.0500064223
 OPT| Convergence limit for maximum step size                       0.0030000000
 OPT| Maximum step size is converged                                          NO
 OPT|
 OPT| RMS step size                                                 0.0149248879
 OPT| Convergence limit for RMS step size                           0.0015000000
 OPT| RMS step size is converged                                              NO
 OPT|
 OPT| Maximum gradient                                              0.0050790423
 OPT| Convergence limit for maximum gradient                        0.0004500000
 OPT| Maximum gradient is converged                                           NO
 OPT|
 OPT| RMS gradient                                                  0.0027425201
 OPT| Convergence limit for RMS gradient                            0.0003000000
 OPT| RMS gradient is converged                                               NO
 OPT|
 OPT| Pressure deviation [bar]                                  -2109.3818241319
 OPT| Pressure tolerance [bar]                                    100.0000000000
 OPT| Pressure is converged                                                   NO
 OPT| **************************************************************************
 OPT| Estimated peak process memory after this step [MiB]                    185

 --------------------------
 OPTIMIZATION STEP:     10
 --------------------------

 CELL| Volume [angstrom^3]:                                           717.792893
 CELL| Vector a [angstrom]:       8.300     0.000     0.000   |a| =     8.300110
 CELL| Vector b [angstrom]:       0.000    12.659     0.000   |b| =    12.659078
 CELL| Vector c [angstrom]:       0.000     0.000     6.831   |c| =     6.831455
 CELL| Angle (b,c), alpha [degree]:                                    90.000000
 CELL| Angle (a,c), beta  [degree]:                                    90.000000
 CELL| Angle (a,b), gamma [degree]:                                    90.000000
 CELL| Numerically orthorhombic:                                             YES
 CELL| Periodicity                                                           XYZ

 Extrapolation method: ASPC

 Number of electrons:                                                        208
 Number of occupied orbitals:                                                104
 Number of molecular orbitals:                                               224

 Number of orbital functions:                                                224
 Number of independent orbital functions:                                    224


 SCF WAVEFUNCTION OPTIMIZATION

  Step     Update method      Time    Convergence         Total energy    Change
  ------------------------------------------------------------------------------
     1 TBLite/Diag 0.40E+00    0.0     0.02260043      -118.9723942190 -1.19E+02
     2 TBLite/Diag 0.40E+00    0.0     0.00115739      -118.9724060062 -1.18E-05
     3 TBLite/Diag 0.40E+00    0.0     0.00027641      -118.9724069974 -9.91E-07
     4 TBLite/Diag 0.40E+00    0.0     0.00005025      -118.9724070232 -2.58E-08
     5 TBLite/Diag 0.40E+00    0.0     0.00002619      -118.9724070302 -6.92E-09
     6 TBLite/Diag 0.40E+00    0.0     0.00000634      -118.9724070306 -4.97E-10
     7 TBLite/Diag 0.40E+00    0.0     0.00000190      -118.9724070307 -7.31E-11
     8 TBLite/Diag 0.40E+00    0.0     0.00000042      -118.9724070307 -2.07E-12
     9 TBLite/Diag 0.40E+00    0.0     0.00000016      -118.9724070307 -3.69E-13
    10 TBLite/Diag 0.40E+00    0.0     0.00000001      -118.9724070307 -7.11E-14
    11 TBLite/Diag 0.40E+00    0.0     6.5381E-09      -118.9724070307  0.00E+00
    12 TBLite/Diag 0.40E+00    0.0     4.8081E-10      -118.9724070307 -8.53E-14

  *** SCF run converged in    12 steps ***


  Core Hamiltonian energy:                                   -120.55487783872869
  Repulsive potential energy:                                   1.59441605113380
  Electrostatic energy:                                         0.11305741185106
  Self-consistent dispersion energy:                            0.00000000000000
  Non-self consistent dispersion energy:                       -0.12500265497937
  Correction for halogen bonding:                               0.00000000000000
  Electronic entropic energy:                                  -0.00000000000000
  Fermi energy:                                                -0.28672642905409

  Total energy:                                              -118.97240703072319
  Total energy (extrapolated to T->0):                       -118.97240703072319

 ENERGY| Total FORCE_EVAL ( QS ) energy [hartree]           -118.972407030723190

 OPT| **************************************************************************
 OPT| Step number                                                             10
 OPT| Optimization method                                                   BFGS
 OPT| Total energy [hartree]                                     -118.9724070307
 OPT| Internal pressure [bar]                                   -1287.4378724165
 OPT| Effective energy change [hartree]                            -0.0021017965
 OPT| Predicted energy change [hartree]                            -0.0015132755
 OPT| Scaling factor                                                0.0000000000
 OPT| Step size                                                     0.0496048614
 OPT| Trust radius                                                  0.4724315332
 OPT| Decrease in energy                                                     YES
 OPT| Used time [s]                                                        1.380
 OPT|
 OPT| Maximum step size                                             0.0496048614
 OPT| Convergence limit for maximum step size                       0.0030000000
 OPT| Maximum step size is converged                                          NO
 OPT|
 OPT| RMS step size                                                 0.0143120997
 OPT| Convergence limit for RMS step size                           0.0015000000
 OPT| RMS step size is converged                                              NO
 OPT|
 OPT| Maximum gradient                                              0.0041159878
 OPT| Convergence limit for maximum gradient                        0.0004500000
 OPT| Maximum gradient is converged                                           NO
 OPT|
 OPT| RMS gradient                                                  0.0019361925
 OPT| Convergence limit for RMS gradient                            0.0003000000
 OPT| RMS gradient is converged                                               NO
 OPT|
 OPT| Pressure deviation [bar]                                  -1287.4378724165
 OPT| Pressure tolerance [bar]                                    100.0000000000
 OPT| Pressure is converged                                                   NO
 OPT| **************************************************************************
 OPT| Estimated peak process memory after this step [MiB]                    185

 --------------------------
 OPTIMIZATION STEP:     11
 --------------------------

 CELL| Volume [angstrom^3]:                                           714.964304
 CELL| Vector a [angstrom]:       8.287     0.000     0.000   |a| =     8.287095
 CELL| Vector b [angstrom]:       0.000    12.650     0.000   |b| =    12.650438
 CELL| Vector c [angstrom]:       0.000     0.000     6.820   |c| =     6.819876
 CELL| Angle (b,c), alpha [degree]:                                    90.000000
 CELL| Angle (a,c), beta  [degree]:                                    90.000000
 CELL| Angle (a,b), gamma [degree]:                                    90.000000
 CELL| Numerically orthorhombic:                                             YES
 CELL| Periodicity                                                           XYZ

 Extrapolation method: ASPC

 Number of electrons:                                                        208
 Number of occupied orbitals:                                                104
 Number of molecular orbitals:                                               224

 Number of orbital functions:                                                224
 Number of independent orbital functions:                                    224


 SCF WAVEFUNCTION OPTIMIZATION

  Step     Update method      Time    Convergence         Total energy    Change
  ------------------------------------------------------------------------------
     1 TBLite/Diag 0.40E+00    0.0     0.00986035      -118.9732741858 -1.19E+02
     2 TBLite/Diag 0.40E+00    0.0     0.00094065      -118.9732867837 -1.26E-05
     3 TBLite/Diag 0.40E+00    0.0     0.00027575      -118.9732882480 -1.46E-06
     4 TBLite/Diag 0.40E+00    0.0     0.00005348      -118.9732882673 -1.93E-08
     5 TBLite/Diag 0.40E+00    0.0     0.00003371      -118.9732882802 -1.30E-08
     6 TBLite/Diag 0.40E+00    0.0     0.00000606      -118.9732882807 -4.26E-10
     7 TBLite/Diag 0.40E+00    0.0     0.00000264      -118.9732882807 -5.78E-11
     8 TBLite/Diag 0.40E+00    0.0     0.00000036      -118.9732882807 -5.97E-13
     9 TBLite/Diag 0.40E+00    0.0     0.00000010      -118.9732882807 -1.56E-13
    10 TBLite/Diag 0.40E+00    0.0     0.00000001      -118.9732882807 -1.71E-13
    11 TBLite/Diag 0.40E+00    0.0     3.5494E-09      -118.9732882807  7.82E-13
    12 TBLite/Diag 0.40E+00    0.0     6.6237E-10      -118.9732882807 -1.56E-13

  *** SCF run converged in    12 steps ***


  Core Hamiltonian energy:                                   -120.55169985565446
  Repulsive potential energy:                                   1.59146917088775
  Electrostatic energy:                                         0.11252465370073
  Self-consistent dispersion energy:                            0.00000000000000
  Non-self consistent dispersion energy:                       -0.12558224964760
  Correction for halogen bonding:                               0.00000000000000
  Electronic entropic energy:                                  -0.00000000000000
  Fermi energy:                                                -0.28671615518050

  Total energy:                                              -118.97328828071358
  Total energy (extrapolated to T->0):                       -118.97328828071358

 ENERGY| Total FORCE_EVAL ( QS ) energy [hartree]           -118.973288280713575

 OPT| **************************************************************************
 OPT| Step number                                                             11
 OPT| Optimization method                                                   BFGS
 OPT| Total energy [hartree]                                     -118.9732882807
 OPT| Internal pressure [bar]                                   -1608.7306740803
 OPT| Effective energy change [hartree]                            -0.0008812500
 OPT| Predicted energy change [hartree]                            -0.0006709958
 OPT| Scaling factor                                                0.0000000000
 OPT| Step size                                                     0.0245954876
 OPT| Trust radius                                                  0.4724315332
 OPT| Decrease in energy                                                     YES
 OPT| Used time [s]                                                        1.386
 OPT|
 OPT| Maximum step size                                             0.0245954876
 OPT| Convergence limit for maximum step size                       0.0030000000
 OPT| Maximum step size is converged                                          NO
 OPT|
 OPT| RMS step size                                                 0.0066357614
 OPT| Convergence limit for RMS step size                           0.0015000000
 OPT| RMS step size is converged                                              NO
 OPT|
 OPT| Maximum gradient                                              0.0034841154
 OPT| Convergence limit for maximum gradient                        0.0004500000
 OPT| Maximum gradient is converged                                           NO
 OPT|
 OPT| RMS gradient                                                  0.0010239983
 OPT| Convergence limit for RMS gradient                            0.0003000000
 OPT| RMS gradient is converged                                               NO
 OPT|
 OPT| Pressure deviation [bar]                                  -1608.7306740803
 OPT| Pressure tolerance [bar]                                    100.0000000000
 OPT| Pressure is converged                                                   NO
 OPT| **************************************************************************
 OPT| Estimated peak process memory after this step [MiB]                    185

 --------------------------
 OPTIMIZATION STEP:     12
 --------------------------

 CELL| Volume [angstrom^3]:                                           714.201850
 CELL| Vector a [angstrom]:       8.282     0.000     0.000   |a| =     8.282446
 CELL| Vector b [angstrom]:       0.000    12.648     0.000   |b| =    12.647558
 CELL| Vector c [angstrom]:       0.000     0.000     6.818   |c| =     6.817979
 CELL| Angle (b,c), alpha [degree]:                                    90.000000
 CELL| Angle (a,c), beta  [degree]:                                    90.000000
 CELL| Angle (a,b), gamma [degree]:                                    90.000000
 CELL| Numerically orthorhombic:                                             YES
 CELL| Periodicity                                                           XYZ

 Extrapolation method: ASPC

 Number of electrons:                                                        208
 Number of occupied orbitals:                                                104
 Number of molecular orbitals:                                               224

 Number of orbital functions:                                                224
 Number of independent orbital functions:                                    224


 SCF WAVEFUNCTION OPTIMIZATION

  Step     Update method      Time    Convergence         Total energy    Change
  ------------------------------------------------------------------------------
     1 TBLite/Diag 0.40E+00    0.0     0.00360578      -118.9735998998 -1.19E+02
[...]

 Number of electrons:                                                        208
 Number of occupied orbitals:                                                104
 Number of molecular orbitals:                                               224

 Number of orbital functions:                                                224
 Number of independent orbital functions:                                    224


 SCF WAVEFUNCTION OPTIMIZATION

  Step     Update method      Time    Convergence         Total energy    Change
  ------------------------------------------------------------------------------
     1 TBLite/Diag 0.40E+00    0.0     0.00077587      -118.9816722449 -1.19E+02
     2 TBLite/Diag 0.40E+00    0.0     0.00019703      -118.9816724426 -1.98E-07
     3 TBLite/Diag 0.40E+00    0.0     0.00003817      -118.9816724610 -1.84E-08
     4 TBLite/Diag 0.40E+00    0.0     0.00000653      -118.9816724609  5.93E-11
     5 TBLite/Diag 0.40E+00    0.0     0.00000465      -118.9816724612 -2.56E-10
     6 TBLite/Diag 0.40E+00    0.0     0.00000069      -118.9816724612 -6.35E-12
     7 TBLite/Diag 0.40E+00    0.0     0.00000031      -118.9816724612 -1.01E-12
     8 TBLite/Diag 0.40E+00    0.0     0.00000007      -118.9816724612  6.82E-13
     9 TBLite/Diag 0.40E+00    0.0     0.00000002      -118.9816724612 -4.97E-13
    10 TBLite/Diag 0.40E+00    0.0     2.4254E-09      -118.9816724612  7.11E-14
    11 TBLite/Diag 0.40E+00    0.0     8.9258E-10      -118.9816724612 -1.28E-13

  *** SCF run converged in    11 steps ***


  Core Hamiltonian energy:                                   -120.53183336323863
  Repulsive potential energy:                                   1.57952223268214
  Electrostatic energy:                                         0.11144466529465
  Self-consistent dispersion energy:                            0.00000000000000
  Non-self consistent dispersion energy:                       -0.14080599591668
  Correction for halogen bonding:                               0.00000000000000
  Electronic entropic energy:                                  -0.00000000000000
  Fermi energy:                                                -0.28860117080088

  Total energy:                                              -118.98167246117850
  Total energy (extrapolated to T->0):                       -118.98167246117850

 ENERGY| Total FORCE_EVAL ( QS ) energy [hartree]           -118.981672461178505

 OPT| **************************************************************************
 OPT| Step number                                                             60
 OPT| Optimization method                                                   BFGS
 OPT| Total energy [hartree]                                     -118.9816724612
 OPT| Internal pressure [bar]                                      -6.9746383137
 OPT| Effective energy change [hartree]                            -0.0000079837
 OPT| Predicted energy change [hartree]                            -0.0000057873
 OPT| Scaling factor                                                0.0000000000
 OPT| Step size                                                     0.0025576810
 OPT| Trust radius                                                  0.4724315332
 OPT| Decrease in energy                                                     YES
 OPT| Used time [s]                                                        0.699
 OPT|
 OPT| Maximum step size                                             0.0025576810
 OPT| Convergence limit for maximum step size                       0.0030000000
 OPT| Maximum step size is converged                                         YES
 OPT|
 OPT| RMS step size                                                 0.0006549982
 OPT| Convergence limit for RMS step size                           0.0015000000
 OPT| RMS step size is converged                                             YES
 OPT|
 OPT| Maximum gradient                                              0.0004403967
 OPT| Convergence limit for maximum gradient                        0.0004500000
 OPT| Maximum gradient is converged                                          YES
 OPT|
 OPT| RMS gradient                                                  0.0001368202
 OPT| Convergence limit for RMS gradient                            0.0003000000
 OPT| RMS gradient is converged                                              YES
 OPT|
 OPT| Pressure deviation [bar]                                     -6.9746383137
 OPT| Pressure tolerance [bar]                                    100.0000000000
 OPT| Pressure is converged                                                  YES
 OPT| **************************************************************************
 OPT| Estimated peak process memory after this step [MiB]                    185

 *******************************************************************************
 ***                    GEOMETRY OPTIMIZATION COMPLETED                      ***
 *******************************************************************************

 write_final_structure: Optimization converged, writing XYZ file gladly:
  pyrazole_GFN1_gamma_cell_opt-FINAL-1_60.xyz

 write_final_structure: Optimization converged, writing CIF file gladly:
  pyrazole_GFN1_gamma_cell_opt-FINAL-1_60.cif

 write_final_structure: Done!

                    Reevaluating energy at the minimum

 CELL| Volume [angstrom^3]:                                           643.716995
 CELL| Vector a [angstrom]:       7.832     0.000     0.000   |a| =     7.831985
 CELL| Vector b [angstrom]:       0.000    12.332     0.000   |b| =    12.331967
 CELL| Vector c [angstrom]:       0.000    -0.000     6.665   |c| =     6.664856
 CELL| Angle (b,c), alpha [degree]:                                    90.000000
 CELL| Angle (a,c), beta  [degree]:                                    90.000000
 CELL| Angle (a,b), gamma [degree]:                                    90.000000
 CELL| Numerically orthorhombic:                                              NO
 CELL| Periodicity                                                           XYZ

 Extrapolation method: ASPC

 Number of electrons:                                                        208
 Number of occupied orbitals:                                                104
 Number of molecular orbitals:                                               224

 Number of orbital functions:                                                224
 Number of independent orbital functions:                                    224


 SCF WAVEFUNCTION OPTIMIZATION

  Step     Update method      Time    Convergence         Total energy    Change
  ------------------------------------------------------------------------------
     1 TBLite/Diag 0.40E+00    0.0     3.5765E-10      -118.9816724612 -1.19E+02

  *** SCF run converged in     1 steps ***


  Core Hamiltonian energy:                                   -120.53183336331334
  Repulsive potential energy:                                   1.57952223268214
  Electrostatic energy:                                         0.11144466536975
  Self-consistent dispersion energy:                            0.00000000000000
  Non-self consistent dispersion energy:                       -0.14080599591668
  Correction for halogen bonding:                               0.00000000000000
  Electronic entropic energy:                                  -0.00000000000000
  Fermi energy:                                                -0.28860117082247

  Total energy:                                              -118.98167246117812
  Total energy (extrapolated to T->0):                       -118.98167246117812

 ENERGY| Total FORCE_EVAL ( QS ) energy [hartree]           -118.981672461178121

 -------------------------------------------------------------------------------
 -                                                                             -
 -                                DBCSR STATISTICS                             -
 -                                                                             -
 -------------------------------------------------------------------------------
 COUNTER                                    TOTAL       BLAS       SMM       ACC
 flops     2 x    32 x     2            541327360       0.0%    100.0%      0.0%     
 flops     2 x     2 x   224            813711360       0.0%    100.0%      0.0%     
 flops     2 x    32 x     4           1353318400       0.0%    100.0%      0.0%     
 flops     4 x    32 x     2           1353318400       0.0%    100.0%      0.0%     
 flops     2 x     4 x   224           1972633600       0.0%    100.0%      0.0%     
 flops     4 x     2 x   224           1972633600       0.0%    100.0%      0.0%     
 flops     4 x    32 x     4           3366379520       0.0%    100.0%      0.0%     
 flops     4 x     4 x   224           5030215680       0.0%    100.0%      0.0%     
 flops inhomo. stacks                           0       0.0%      0.0%      0.0%
 flops total                        16.403538E+09       0.0%    100.0%      0.0%
 flops max/rank                     16.403538E+09       0.0%    100.0%      0.0%
 matmuls inhomo. stacks                         0       0.0%      0.0%      0.0%
 matmuls total                           12945080       0.0%    100.0%      0.0%
 number of processed stacks                 14945       0.0%    100.0%      0.0%
 average stack size                                     0.0     866.2       0.0
 marketing flops                    15.606743E+09
 -------------------------------------------------------------------------------
 # multiplications                           1155
 max memory usage/rank              13.689483E+09
 # max total images/rank                        1
 # max 3D layers                                1
 # MPI messages exchanged                       0
 -------------------------------------------------------------------------------
 -                                                                             -
 -                      DBCSR MESSAGE PASSING PERFORMANCE                      -
 -                                                                             -
 -------------------------------------------------------------------------------
 ROUTINE             CALLS      AVE VOLUME [Bytes]
 MP_Bcast                9                     12.
 MP_Allreduce         5220                      8.
 MP_Alltoall         37667                 267701.
 MP_ISend             4620                  22013.
 MP_IRecv             4620                  22013.
 -------------------------------------------------------------------------------

 -------------------------------------------------------------------------------
 -                                                                             -
 -                          OFFLOAD MEMPOOL STATISTICS                         -
 -                                                                             -
 -------------------------------------------------------------------------------
 Memory consumption                Number of allocations  Used [MiB]  Size [MiB]
 Device                                                1           0           0
 Host                                                  1           0           0
 -------------------------------------------------------------------------------

 MEMORY| Estimated peak process memory [MiB]                                 185

 -------------------------------------------------------------------------------
 -                                                                             -
 -                         MESSAGE PASSING PERFORMANCE                         -
 -                                                                             -
 -------------------------------------------------------------------------------

 ROUTINE             CALLS      AVE VOLUME [Bytes]
 MP_Group               61
 MP_Bcast             1718                    898.
 MP_Allreduce        13139                    487.
 MP_Sync               920
 MP_comm_split         859
 -------------------------------------------------------------------------------


 -------------------------------------------------------------------------------
 -                                                                             -
 -                           R E F E R E N C E S                               -
 -                                                                             -
 -------------------------------------------------------------------------------
 
 CP2K version 2026.1 (Development Version), the CP2K developers group (2026).
 CP2K is freely available from https://www.cp2k.org/ .
 
 M. Iannuzzi, J. Wilhelm, F. Stein, A. Bussy, H. Elgabarty, D. Golze, A. Hehn, 
 M. Graml, S. Marek, B. Sertcan Gökmen, C. Schran, H. Forbert, R. Z. 
 Khaliullin, A. Kozhevnikov, M. Taillefumier, R. Meli, V. V. Rybkin, M. Brehm, 
 R. Schade, O. Schütt, J. V. Pototschnig, H. Mirhosseini, A. Knüpfer, D. Marx, 
 M. Krack, J. Hutter, T. D. Kühne.
 J. Phys. Chem. B 130, 1237-1310 (2026).
 The CP2K Program Package Made Simple.
 https://doi.org/10.1021/acs.jpcb.5c05851

 A. Katbashev, M. Stahn, T. Rose, V. Alizadeh, M. Friede, C. Plett, P. 
 Steinbach, S. Ehlert.
 J. Phys. Chem. A 129, 2667-2682 (2025).
 Overview on Building Blocks and Applications of Efficient and Robust Extended 
 Tight Binding.
 https://doi.org/10.1021/acs.jpca.4c08263

 T. D. Kühne, M. Iannuzzi, M. Del Ben, V. V. Rybkin, P. Seewald, F. Stein, T. 
 Laino, R. Z. Khaliullin, O. Schütt, F. Schiffmann, D. Golze, J. Wilhelm, S. 
 Chulkov, M. H. Bani-Hashemian, V. Weber, U. Borstnik, M. Taillefumier, A. S. 
 Jakobovits, A. Lazzaro, H. Pabst, T. Müller, R. Schade, M. Guidon, S. 
 Andermatt, N. Holmberg, G. K. Schenter, A. Hehn, A. Bussy, F. Belleflamme, G. 
 Tabacchi, A. Glöß, M. Lass, I. Bethune, C. J. Mundy, C. Plessl, M. Watkins, 
 J. VandeVondele, M. Krack, J. Hutter.
 J. Chem. Phys. 152, 194103 (2020).
 CP2K: An electronic structure and molecular dynamics software package - 
 Quickstep: Efficient and accurate electronic structure calculations.
 https://doi.org/10.1063/5.0007045

 P. Pracht, E. Caldeweyher, S. Ehlert, S. Grimme.
 ChemRxiv, (2019).
 A Robust Non-Self-Consistent Tight-Binding Quantum Chemistry Method for large 
 Molecules.
 https://doi.org/10.26434/chemrxiv.8326202.v1

 S. Grimme, C. Bannwarth, P. Shushkov.
 J. Chem. Theory Comput. 13, 1989 (2017).
 A Robust and Accurate Tight-Binding Quantum Chemical Method for Structures, 
 Vibrational Frequencies, and Noncovalent Interactions of Large Molecular 
 Systems Parametrized for All spd-Block Elements (Z = 1-86).
 https://doi.org/10.1021/acs.jctc.7b00118

 O. Schuett, P. Messmer, J. Hutter, J. VandeVondele.
 Electronic Structure Calculations on Graphics Processing Units, 173-190 (2016).
 GPU-Accelerated Sparse Matrix-Matrix Multiplication for Linear Scaling Density 
 Functional Theory.
 https://doi.org/10.1002/9781118670712.ch8

 A. Heinecke, G. Henry, M. Hutchinson, H. Pabst.
 Proceedings of Intl. Supercomputing Conference, 981-991 (2016).
 LIBXSMM: Accelerating Small Matrix Multiplications by Runtime Code Generation.
 https://doi.org/10.1109/SC.2016.83

 U. Borstnik, J. VandeVondele, V. Weber, J. Hutter.
 Parallel Comput. 40, 47-58 (2014).
 Sparse matrix multiplication: The distributed block-compressed sparse row 
 library.
 https://doi.org/10.1016/j.parco.2014.03.012

 T. D. Kühne, M. Krack, F. R. Mohamed, M. Parrinello.
 Phys. Rev. Lett. 98, 066401 (2007).
 Efficient and accurate Car-Parrinello-like approach to Born-Oppenheimer 
 molecular dynamics.
 https://doi.org/10.1103/PhysRevLett.98.066401

 M. Frigo, S. G. Johnson.
 Proc. IEEE 93, 216-231 (2005).
 The design and implementation of FFTW3.
 https://doi.org/10.1109/JPROC.2004.840301

 J. Kolafa.
 J. Comput. Chem. 25, 335-342 (2004).
 Time-reversible always stable predictor-corrector method for molecular dynamics 
 of polarizable molecules.
 https://doi.org/10.1002/jcc.10385

 N. D. Mermin.
 Phys. Rev. 137, A1441-A1443 (1965).
 Thermal Properties of the Inhomogeneous Electron Gas.
 https://doi.org/10.1103/PhysRev.137.A1441


 -------------------------------------------------------------------------------
 -                                                                             -
 -                                T I M I N G                                  -
 -                                                                             -
 -------------------------------------------------------------------------------
 SUBROUTINE                       CALLS  ASD         SELF TIME        TOTAL TIME
                                MAXIMUM       AVERAGE  MAXIMUM  AVERAGE  MAXIMUM
 CP2K                                 1  1.0    0.003    0.003   54.289   54.289
 cp_cell_opt                          1  2.0    0.000    0.000   54.280   54.280
 geoopt_bfgs                          1  3.0    0.009    0.009   54.280   54.280
 cp_eval_at                          62  4.0    0.007    0.007   53.952   53.952
 qs_forces                           61  5.0    0.004    0.004   53.786   53.786
 qs_energies                         62  6.0    0.002    0.002   23.011   23.011
 build_tblite_matrices              123  7.0   20.703   20.703   20.890   20.890
 rebuild_ks_matrix                  799  9.8    0.001    0.001   19.998   19.998
 build_tblite_ks_matrix             799 10.8   19.980   19.980   19.997   19.997
 qs_ks_update_qs_env_forces          61  6.0    0.000    0.000   19.259   19.259
 scf_env_do_scf                      62  7.0    0.001    0.001   11.165   11.165
 scf_env_do_scf_inner_loop          738  8.0    0.191    0.191   11.156   11.156
 qs_scf_new_mos                     738  9.0    0.004    0.004    9.730    9.730
 qs_energies_init_hamiltonians       62  7.0    0.000    0.000    9.485    9.485
 eigensolver                        738 10.0    0.013    0.013    4.551    4.551
 cp_fm_syevd                        859 10.7    0.002    0.002    3.987    3.987
 cp_fm_syevd_base                   859 11.7    3.889    3.889    3.889    3.889
 cp_dbcsr_plus_fm_fm_t              860 10.9    0.005    0.005    2.510    2.510
 dbcsr_multiply_generic            1155 12.0    0.042    0.042    2.428    2.428
 calculate_dm_sparse                799 10.0    0.033    0.033    2.378    2.378
 dbcsr_complete_redistribute       3786 12.2    1.887    1.887    2.275    2.275
 copy_dbcsr_to_fm                  1771 10.5    0.010    0.010    2.109    2.109
 init_scf_run                        62  7.0    0.001    0.001    2.105    2.105
 scf_env_initial_rho_setup           62  8.0    0.001    0.001    1.978    1.978
 wfi_extrapolate                     62  9.0    0.006    0.006    1.977    1.977
 qs_diis_b_step                     676 10.0    0.005    0.005    1.884    1.884
 multiply_cannon                   1155 13.0    0.034    0.034    1.309    1.309
 multiply_cannon_loop              1155 14.0    0.002    0.002    1.143    1.143
 multiply_cannon_multrec           1155 15.0    1.136    1.136    1.141    1.141
 cp_dbcsr_sm_fm_multiply            295 10.4    0.002    0.002    1.096    1.096
 -------------------------------------------------------------------------------

 The number of warnings for this run is : 0
 
 -------------------------------------------------------------------------------
  **** **** ******  **  PROGRAM ENDED AT                 2026-05-23 22:47:56.313
 ***** ** ***  *** **   PROGRAM RAN ON                                spark-c86c
 **    ****   ******    PROGRAM RAN BY                                  kuehne88
 ***** **    ** ** **   PROGRAM PROCESS ID                               2266492
  **** **  *******  **  PROGRAM STOPPED IN /home/kuehne88/periodic-gfn2-benchmar
                                           ks/X23b/runs/cellopt_gamma/GFN1/pyraz
                                           ole_GFN1_gamma_cellopt
