 DBCSR| CPU Multiplication driver                                           XSMM (U)
 DBCSR| Multrec recursion limit                                              512 (U)
 DBCSR| Multiplication stack size                                           1000 (D)
 DBCSR| Maximum elements for images                                    UNLIMITED (U)
 DBCSR| Multiplicative factor virtual images                                   1 (U)
 DBCSR| Use multiplication densification                                       T (D)
 DBCSR| Multiplication size stacks                                             3 (U)
 DBCSR| Use memory pool for CPU allocation                                     F (U)
 DBCSR| Number of 3D layers                                               SINGLE (U)
 DBCSR| Use MPI memory allocation                                              F (U)
 DBCSR| Use RMA algorithm                                                      F (U)
 DBCSR| Use Communication thread                                               T (U)
 DBCSR| Communication thread load                                             87 (D)
 DBCSR| MPI: My process id                                                     0
 DBCSR| MPI: Number of processes                                               1
 DBCSR| OMP: Current number of threads                                         1
 DBCSR| OMP: Max number of threads                                             1
 DBCSR| Split modifier for TAS multiplication algorithm                  1.0E+00 (U)


  **** **** ******  **  PROGRAM STARTED AT               2026-05-23 22:46:19.813
 ***** ** ***  *** **   PROGRAM STARTED ON                            spark-c86c
 **    ****   ******    PROGRAM STARTED BY                              kuehne88
 ***** **    ** ** **   PROGRAM PROCESS ID                               2226090
  **** **  *******  **  PROGRAM STARTED IN /home/kuehne88/periodic-gfn2-benchmar
                                           ks/X23b/runs/molecule_geoopt/GFN2/14-
                                           cyclohexanedione_GFN2_mol_geoopt

 CP2K| version string:                 CP2K version 2026.1 (Development Version)
 CP2K| source code revision number:                                   0622d442e4
 CP2K| cp2kflags: omp fftw3 libxc parallel scalapack mpi_f08 xsmm spglib libdftd
 CP2K|            4 dftd4_v3 mctc-lib tblite
 CP2K| is freely available from                            https://www.cp2k.org/
 CP2K| Program compiled at                                   2026-05-23 22:05:08
 CP2K| Program compiled on                                            spark-c86c
 CP2K| Program compiled for                                              aarch64
 CP2K| Data directory path    /home/kuehne88/cp2k-master-tblite-20260523/install
 CP2K| Input file name                   14-cyclohexanedione_GFN2_mol_geoopt.inp

 GLOBAL| Force Environment number                                              1
 GLOBAL| Basis set file name                                           BASIS_SET
 GLOBAL| Potential file name                                           POTENTIAL
 GLOBAL| MM Potential file name                                     MM_POTENTIAL
 GLOBAL| Coordinate file name                                      __STD_INPUT__
 GLOBAL| Method name                                                        CP2K
 GLOBAL| Project name                        14_cyclohexanedione_GFN2_mol_geoopt
 GLOBAL| Run type                                                        GEO_OPT
 GLOBAL| FFT library                                                       FFTW3
 GLOBAL| Diagonalization library                                       ScaLAPACK
 GLOBAL| Cholesky decomposition library                                ScaLAPACK
 GLOBAL| DGEMM library                                                      BLAS
 GLOBAL| Direct generalized diagonalization requested                          F
 GLOBAL| Orthonormality check for eigenvectors                          DISABLED
 GLOBAL| Matrix multiplication library                                 ScaLAPACK
 GLOBAL| All-to-all communication in single precision                          F
 GLOBAL| FFTs using library dependent lengths                                  F
 GLOBAL| Grid backend                                                       AUTO
 GLOBAL| Global print level                                                  LOW
 GLOBAL| MPI I/O enabled                                                       T
 GLOBAL| Total number of message passing processes                             1
 GLOBAL| Number of distributed systems (nodes)                                 1
 GLOBAL| Number of threads for this process                                    1
 GLOBAL| This output is from process                                           0
 GLOBAL| OpenMP stack size per thread (OMP_STACKSIZE)                    default
 GLOBAL| CPU model name                                                  UNKNOWN
 GLOBAL| CPUID                                                              2200
 GLOBAL| Compiled for CPUID                                                 2000

 *** HINT in environment.F:970 :: The compiler target flags (arm_arch64)   ***
 *** used to build this binary cannot exploit all extensions of this CPU   ***
 *** model (arm_sve256). Consider compiler target flags as part of FCFLAGS ***
 *** and CFLAGS (ARCH file).                                               ***


 MEMORY| system memory details [Kb]
 MEMORY|                        rank 0           min           max       average
 MEMORY| MemTotal            125508532     125508532     125508532     125508532
 MEMORY| MemFree             106212580     106212580     106212580     106212580
 MEMORY| Buffers                866064        866064        866064        866064
 MEMORY| Cached               13217048      13217048      13217048      13217048
 MEMORY| Slab                  1564908       1564908       1564908       1564908
 MEMORY| SReclaimable           888692        888692        888692        888692
 MEMORY| MemLikelyFree       121184384     121184384     121184384     121184384


 GENERATE|  Preliminary Number of Bonds generated:                             0
 GENERATE|  Achieved consistency in connectivity generation.


                  #####   #####        #     #   #     #       #          
                 #     # #     #      #    ##### #     #   # #####  ####  
                 #     # #           #       #   ###   #       #   #    # 
                 #     #  #####     #        #   #  #  #   #   #   ###### 
                 #   # #       #   #         #   #   # #   #   #   #      
                 #    #  #     #  #          #   #  #  # # #   #    #   # 
                  #### #  #####  #           #   ###   ##  #   #     ###  

                                   GFN2-xTB  
                                 Version 0.0                       
                            Johann V. Pototschnig                  



 TOTAL NUMBERS AND MAXIMUM NUMBERS

  Total number of            - Atomic kinds:                                   3
                             - Atoms:                                         16
                             - Shell sets:                                    24
                             - Shells:                                        24
                             - Primitive Cartesian functions:                 88
                             - Cartesian basis functions:                     40
                             - Spherical basis functions:                     40

  Maximum angular momentum of the orbital basis functions:                     1


 SCF PARAMETERS         Density guess:                                     MOPAC
                        --------------------------------------------------------
                        max_scf:                                             300
                        max_scf_history:                                       0
                        max_diis:                                              4
                        --------------------------------------------------------
                        eps_scf:                                        1.00E-09
                        eps_scf_history:                                0.00E+00
                        eps_diis:                                       1.00E-01
                        eps_eigval:                                     1.00E-05
                        --------------------------------------------------------
                        level_shift [a.u.]:                             0.000000
                        added MOs                                        18    0
                        --------------------------------------------------------
                        Mixing method:                           DIRECT_P_MIXING
                        --------------------------------------------------------
                        Smear method:                                FERMI_DIRAC
                        Electronic temperature [K]:                        300.0
                        Electronic temperature [a.u.]:                  9.50E-04
                        Accuracy threshold:                             1.00E-06
                        --------------------------------------------------------
                        No outer SCF

 BFGS| Use rational function optimization for step estimation:                NO
 BFGS| Use model Hessian for initial guess:                                  YES
 BFGS| Restart Hessian:                                                       NO
 BFGS| Trust radius:                                                       0.472

 *******************************************************************************
 ***                     STARTING GEOMETRY OPTIMIZATION                      ***
 ***                                   BFGS                                  ***
 *******************************************************************************

 Extrapolation method: initial_guess

 Number of electrons:                                                         44
 Number of occupied orbitals:                                                 22
 Number of molecular orbitals:                                                40

 Number of orbital functions:                                                 40
 Number of independent orbital functions:                                     40


 SCF WAVEFUNCTION OPTIMIZATION

  Step     Update method      Time    Convergence         Total energy    Change
  ------------------------------------------------------------------------------
     1 TBLite/Diag 0.40E+00    0.0     0.71662660       -24.7644413305 -2.48E+01
     2 TBLite/Diag 0.40E+00    0.0     0.47003166       -25.0114951537 -2.47E-01
     3 TBLite/Diag 0.40E+00    0.0     0.15301667       -25.0393556135 -2.79E-02
     4 TBLite/Diag 0.40E+00    0.0     0.11412746       -25.0448103217 -5.45E-03
     5 TBLite/Diag 0.40E+00    0.0     0.06490769       -25.0466821673 -1.87E-03
     6 TBLite/Diag 0.40E+00    0.0     0.02498028       -25.0473354477 -6.53E-04
     7 TBLite/Diag 0.40E+00    0.0     0.00966191       -25.0473495282 -1.41E-05
     8 TBLite/Diag 0.40E+00    0.0     0.00374147       -25.0473740962 -2.46E-05
     9 TBLite/Diag 0.40E+00    0.0     0.00031406       -25.0473743512 -2.55E-07
    10 TBLite/Diag 0.40E+00    0.0     0.00010338       -25.0473743713 -2.01E-08
    11 TBLite/Diag 0.40E+00    0.0     0.00000241       -25.0473743714 -2.85E-11
    12 TBLite/Diag 0.40E+00    0.0     0.00000159       -25.0473743714 -2.89E-12
    13 TBLite/Diag 0.40E+00    0.0     0.00000069       -25.0473743714 -2.45E-13
    14 TBLite/Diag 0.40E+00    0.0     0.00000022       -25.0473743714 -6.39E-14
    15 TBLite/Diag 0.40E+00    0.0     4.0033E-09       -25.0473743714  1.07E-14
    16 TBLite/Diag 0.40E+00    0.0     5.3756E-10       -25.0473743714 -1.42E-14

  *** SCF run converged in    16 steps ***


  Core Hamiltonian energy:                                    -25.37521518777729
  Repulsive potential energy:                                   0.27748233138902
  Electrostatic energy:                                         0.06121625702387
  Self-consistent dispersion energy:                           -0.01088746753838
  Non-self consistent dispersion energy:                        0.00002969552882
  Correction for halogen bonding:                               0.00000000000000
  Electronic entropic energy:                                  -0.00000000000000
  Fermi energy:                                                -0.30146761137505

  Total energy:                                               -25.04737437137396
  Total energy (extrapolated to T->0):                        -25.04737437137396

 ENERGY| Total FORCE_EVAL ( QS ) energy [hartree]            -25.047374371373962

 OPT| **************************************************************************
 OPT| Step number                                                              0
 OPT| Optimization method                                                   BFGS
 OPT| Total energy [hartree]                                      -25.0473743714
 OPT| Used time [s]                                                        0.024
 OPT| **************************************************************************
 OPT| Estimated peak process memory [MiB]                                    163

 --------------------------
 OPTIMIZATION STEP:      1
 --------------------------

 Extrapolation method: ASPC

 Number of electrons:                                                         44
 Number of occupied orbitals:                                                 22
 Number of molecular orbitals:                                                40

 Number of orbital functions:                                                 40
 Number of independent orbital functions:                                     40


 SCF WAVEFUNCTION OPTIMIZATION

  Step     Update method      Time    Convergence         Total energy    Change
  ------------------------------------------------------------------------------
     1 TBLite/Diag 0.40E+00    0.0     0.01700115       -25.0488543133 -2.50E+01
     2 TBLite/Diag 0.40E+00    0.0     0.00403730       -25.0488945049 -4.02E-05
     3 TBLite/Diag 0.40E+00    0.0     0.00266187       -25.0488973535 -2.85E-06
     4 TBLite/Diag 0.40E+00    0.0     0.00143399       -25.0489011165 -3.76E-06
     5 TBLite/Diag 0.40E+00    0.0     0.00050283       -25.0489014622 -3.46E-07
     6 TBLite/Diag 0.40E+00    0.0     0.00009683       -25.0489014746 -1.25E-08
     7 TBLite/Diag 0.40E+00    0.0     0.00001462       -25.0489014749 -3.31E-10
     8 TBLite/Diag 0.40E+00    0.0     0.00000064       -25.0489014749 -1.18E-12
     9 TBLite/Diag 0.40E+00    0.0     0.00000057       -25.0489014749 -1.06E-12
    10 TBLite/Diag 0.40E+00    0.0     0.00000006       -25.0489014749 -1.42E-14
    11 TBLite/Diag 0.40E+00    0.0     0.00000002       -25.0489014749  3.55E-15
    12 TBLite/Diag 0.40E+00    0.0     7.0111E-09       -25.0489014749  7.11E-15
    13 TBLite/Diag 0.40E+00    0.0     7.2096E-10       -25.0489014749  1.07E-14

  *** SCF run converged in    13 steps ***


  Core Hamiltonian energy:                                    -25.38963517068733
  Repulsive potential energy:                                   0.29139081599377
  Electrostatic energy:                                         0.06025619733194
  Self-consistent dispersion energy:                           -0.01094217577610
  Non-self consistent dispersion energy:                        0.00002885819347
  Correction for halogen bonding:                               0.00000000000000
  Electronic entropic energy:                                  -0.00000000000000
  Fermi energy:                                                -0.29754860318586

  Total energy:                                               -25.04890147494425
  Total energy (extrapolated to T->0):                        -25.04890147494425

 ENERGY| Total FORCE_EVAL ( QS ) energy [hartree]            -25.048901474944248

 OPT| **************************************************************************
 OPT| Step number                                                              1
 OPT| Optimization method                                                   BFGS
 OPT| Total energy [hartree]                                      -25.0489014749
 OPT| Effective energy change [hartree]                            -0.0015271036
 OPT| Predicted energy change [hartree]                            -0.0011732730
 OPT| Scaling factor                                                0.0000000000
 OPT| Step size                                                     0.0305163943
 OPT| Trust radius                                                  0.4724315332
 OPT| Decrease in energy                                                     YES
 OPT| Used time [s]                                                        0.020
 OPT|
 OPT| Maximum step size                                             0.0305163943
 OPT| Convergence limit for maximum step size                       0.0030000000
 OPT| Maximum step size is converged                                          NO
 OPT|
 OPT| RMS step size                                                 0.0145361571
 OPT| Convergence limit for RMS step size                           0.0015000000
 OPT| RMS step size is converged                                              NO
 OPT|
 OPT| Maximum gradient                                              0.0038138791
 OPT| Convergence limit for maximum gradient                        0.0004500000
 OPT| Maximum gradient is converged                                           NO
 OPT|
 OPT| RMS gradient                                                  0.0013144845
 OPT| Convergence limit for RMS gradient                            0.0003000000
 OPT| RMS gradient is converged                                               NO
 OPT| **************************************************************************
 OPT| Estimated peak process memory after this step [MiB]                    163

 --------------------------
 OPTIMIZATION STEP:      2
 --------------------------

 Extrapolation method: ASPC

 Number of electrons:                                                         44
 Number of occupied orbitals:                                                 22
 Number of molecular orbitals:                                                40

 Number of orbital functions:                                                 40
 Number of independent orbital functions:                                     40


 SCF WAVEFUNCTION OPTIMIZATION

  Step     Update method      Time    Convergence         Total energy    Change
  ------------------------------------------------------------------------------
     1 TBLite/Diag 0.40E+00    0.0     0.00621404       -25.0491320766 -2.50E+01
     2 TBLite/Diag 0.40E+00    0.0     0.00147935       -25.0491374777 -5.40E-06
     3 TBLite/Diag 0.40E+00    0.0     0.00134705       -25.0491371092  3.68E-07
     4 TBLite/Diag 0.40E+00    0.0     0.00083145       -25.0491385784 -1.47E-06
     5 TBLite/Diag 0.40E+00    0.0     0.00014666       -25.0491386141 -3.57E-08
     6 TBLite/Diag 0.40E+00    0.0     0.00002615       -25.0491386148 -7.49E-10
     7 TBLite/Diag 0.40E+00    0.0     0.00000617       -25.0491386149 -3.06E-11
     8 TBLite/Diag 0.40E+00    0.0     0.00000032       -25.0491386149 -6.25E-13
     9 TBLite/Diag 0.40E+00    0.0     0.00000024       -25.0491386149 -2.24E-13
    10 TBLite/Diag 0.40E+00    0.0     0.00000005       -25.0491386149  3.55E-14
    11 TBLite/Diag 0.40E+00    0.0     7.0716E-09       -25.0491386149 -1.78E-14
    12 TBLite/Diag 0.40E+00    0.0     3.9401E-09       -25.0491386149 -3.55E-15
    13 TBLite/Diag 0.40E+00    0.0     1.9725E-09       -25.0491386149 -1.07E-14
    14 TBLite/Diag 0.40E+00    0.0     3.3196E-11       -25.0491386149  1.78E-14

  *** SCF run converged in    14 steps ***


  Core Hamiltonian energy:                                    -25.39529125841046
  Repulsive potential energy:                                   0.29711196876479
  Electrostatic energy:                                         0.05998063082637
  Self-consistent dispersion energy:                           -0.01096830204378
  Non-self consistent dispersion energy:                        0.00002834601024
  Correction for halogen bonding:                               0.00000000000000
  Electronic entropic energy:                                  -0.00000000000000
  Fermi energy:                                                -0.29616002652865

  Total energy:                                               -25.04913861485285
  Total energy (extrapolated to T->0):                        -25.04913861485285

 ENERGY| Total FORCE_EVAL ( QS ) energy [hartree]            -25.049138614852847

 OPT| **************************************************************************
 OPT| Step number                                                              2
 OPT| Optimization method                                                   BFGS
 OPT| Total energy [hartree]                                      -25.0491386149
 OPT| Effective energy change [hartree]                            -0.0002371399
 OPT| Predicted energy change [hartree]                            -0.0002116787
 OPT| Scaling factor                                                0.0000000000
 OPT| Step size                                                     0.0197286052
 OPT| Trust radius                                                  0.4724315332
 OPT| Decrease in energy                                                     YES
 OPT| Used time [s]                                                        0.022
 OPT|
 OPT| Maximum step size                                             0.0197286052
 OPT| Convergence limit for maximum step size                       0.0030000000
 OPT| Maximum step size is converged                                          NO
 OPT|
 OPT| RMS step size                                                 0.0097544415
 OPT| Convergence limit for RMS step size                           0.0015000000
 OPT| RMS step size is converged                                              NO
 OPT|
 OPT| Maximum gradient                                              0.0021048998
 OPT| Convergence limit for maximum gradient                        0.0004500000
 OPT| Maximum gradient is converged                                           NO
 OPT|
 OPT| RMS gradient                                                  0.0005951511
 OPT| Convergence limit for RMS gradient                            0.0003000000
 OPT| RMS gradient is converged                                               NO
 OPT| **************************************************************************
 OPT| Estimated peak process memory after this step [MiB]                    164

 --------------------------
 OPTIMIZATION STEP:      3
 --------------------------

 Extrapolation method: ASPC

 Number of electrons:                                                         44
 Number of occupied orbitals:                                                 22
 Number of molecular orbitals:                                                40

 Number of orbital functions:                                                 40
 Number of independent orbital functions:                                     40


 SCF WAVEFUNCTION OPTIMIZATION

  Step     Update method      Time    Convergence         Total energy    Change
  ------------------------------------------------------------------------------
     1 TBLite/Diag 0.40E+00    0.0     0.00275020       -25.0491772325 -2.50E+01
     2 TBLite/Diag 0.40E+00    0.0     0.00018238       -25.0491772720 -3.95E-08
     3 TBLite/Diag 0.40E+00    0.0     0.00008812       -25.0491772675  4.49E-09
     4 TBLite/Diag 0.40E+00    0.0     0.00010912       -25.0491772835 -1.60E-08
     5 TBLite/Diag 0.40E+00    0.0     0.00002148       -25.0491772843 -8.61E-10
     6 TBLite/Diag 0.40E+00    0.0     0.00000340       -25.0491772844 -4.58E-11
     7 TBLite/Diag 0.40E+00    0.0     0.00000167       -25.0491772844 -6.15E-12
     8 TBLite/Diag 0.40E+00    0.0     0.00000026       -25.0491772844 -2.03E-13
     9 TBLite/Diag 0.40E+00    0.0     0.00000002       -25.0491772844 -7.11E-15
    10 TBLite/Diag 0.40E+00    0.0     0.00000002       -25.0491772844  7.11E-15
    11 TBLite/Diag 0.40E+00    0.0     7.5279E-09       -25.0491772844  7.11E-15
    12 TBLite/Diag 0.40E+00    0.0     1.5997E-09       -25.0491772844  7.11E-15
    13 TBLite/Diag 0.40E+00    0.0     1.7951E-10       -25.0491772844 -7.11E-15

  *** SCF run converged in    13 steps ***


  Core Hamiltonian energy:                                    -25.39549633552613
  Repulsive potential energy:                                   0.29721604663756
  Electrostatic energy:                                         0.06004619042238
  Self-consistent dispersion energy:                           -0.01097141874650
  Non-self consistent dispersion energy:                        0.00002823283683
  Correction for halogen bonding:                               0.00000000000000
  Electronic entropic energy:                                  -0.00000000000000
  Fermi energy:                                                -0.29626370859007

  Total energy:                                               -25.04917728437587
  Total energy (extrapolated to T->0):                        -25.04917728437587

 ENERGY| Total FORCE_EVAL ( QS ) energy [hartree]            -25.049177284375865

 OPT| **************************************************************************
 OPT| Step number                                                              3
 OPT| Optimization method                                                   BFGS
 OPT| Total energy [hartree]                                      -25.0491772844
 OPT| Effective energy change [hartree]                            -0.0000386695
 OPT| Predicted energy change [hartree]                            -0.0000245862
 OPT| Scaling factor                                                0.0000000000
 OPT| Step size                                                     0.0099107122
 OPT| Trust radius                                                  0.4724315332
 OPT| Decrease in energy                                                     YES
 OPT| Used time [s]                                                        0.021
 OPT|
 OPT| Maximum step size                                             0.0099107122
 OPT| Convergence limit for maximum step size                       0.0030000000
 OPT| Maximum step size is converged                                          NO
 OPT|
 OPT| RMS step size                                                 0.0038083218
 OPT| Convergence limit for RMS step size                           0.0015000000
 OPT| RMS step size is converged                                              NO
 OPT|
 OPT| Maximum gradient                                              0.0012621343
 OPT| Convergence limit for maximum gradient                        0.0004500000
 OPT| Maximum gradient is converged                                           NO
 OPT|
 OPT| RMS gradient                                                  0.0003917516
 OPT| Convergence limit for RMS gradient                            0.0003000000
 OPT| RMS gradient is converged                                               NO
 OPT| **************************************************************************
 OPT| Estimated peak process memory after this step [MiB]                    164

 --------------------------
 OPTIMIZATION STEP:      4
 --------------------------

 Extrapolation method: ASPC

 Number of electrons:                                                         44
 Number of occupied orbitals:                                                 22
 Number of molecular orbitals:                                                40

 Number of orbital functions:                                                 40
 Number of independent orbital functions:                                     40


 SCF WAVEFUNCTION OPTIMIZATION

  Step     Update method      Time    Convergence         Total energy    Change
  ------------------------------------------------------------------------------
     1 TBLite/Diag 0.40E+00    0.0     0.00748247       -25.0492250285 -2.50E+01
     2 TBLite/Diag 0.40E+00    0.0     0.00018752       -25.0492251761 -1.48E-07
     3 TBLite/Diag 0.40E+00    0.0     0.00011468       -25.0492251889 -1.28E-08
     4 TBLite/Diag 0.40E+00    0.0     0.00004763       -25.0492252039 -1.50E-08
     5 TBLite/Diag 0.40E+00    0.0     0.00001385       -25.0492252043 -3.81E-10
     6 TBLite/Diag 0.40E+00    0.0     0.00001251       -25.0492252045 -1.54E-10
     7 TBLite/Diag 0.40E+00    0.0     0.00000765       -25.0492252045 -4.77E-11
     8 TBLite/Diag 0.40E+00    0.0     0.00000054       -25.0492252045 -8.92E-13
     9 TBLite/Diag 0.40E+00    0.0     0.00000008       -25.0492252045 -3.55E-14
    10 TBLite/Diag 0.40E+00    0.0     0.00000003       -25.0492252045 -7.11E-15
    11 TBLite/Diag 0.40E+00    0.0     0.00000001       -25.0492252045  1.07E-14
    12 TBLite/Diag 0.40E+00    0.0     3.0399E-09       -25.0492252045 -3.55E-15
    13 TBLite/Diag 0.40E+00    0.0     4.6616E-10       -25.0492252045  7.11E-15

  *** SCF run converged in    13 steps ***


  Core Hamiltonian energy:                                    -25.39525274328217
  Repulsive potential energy:                                   0.29679546088778
  Electrostatic energy:                                         0.06017843558836
  Self-consistent dispersion energy:                           -0.01097444295698
  Non-self consistent dispersion energy:                        0.00002808523693
  Correction for halogen bonding:                               0.00000000000000
  Electronic entropic energy:                                  -0.00000000000000
  Fermi energy:                                                -0.29652491899652

  Total energy:                                               -25.04922520452608
  Total energy (extrapolated to T->0):                        -25.04922520452608

 ENERGY| Total FORCE_EVAL ( QS ) energy [hartree]            -25.049225204526085

 OPT| **************************************************************************
 OPT| Step number                                                              4
 OPT| Optimization method                                                   BFGS
 OPT| Total energy [hartree]                                      -25.0492252045
 OPT| Effective energy change [hartree]                            -0.0000479202
 OPT| Predicted energy change [hartree]                            -0.0000356566
 OPT| Scaling factor                                                0.0000000000
 OPT| Step size                                                     0.0196452254
 OPT| Trust radius                                                  0.4724315332
 OPT| Decrease in energy                                                     YES
 OPT| Used time [s]                                                        0.021
 OPT|
 OPT| Maximum step size                                             0.0196452254
 OPT| Convergence limit for maximum step size                       0.0030000000
 OPT| Maximum step size is converged                                          NO
 OPT|
 OPT| RMS step size                                                 0.0074876333
 OPT| Convergence limit for RMS step size                           0.0015000000
 OPT| RMS step size is converged                                              NO
 OPT|
 OPT| Maximum gradient                                              0.0006458367
 OPT| Convergence limit for maximum gradient                        0.0004500000
 OPT| Maximum gradient is converged                                           NO
 OPT|
 OPT| RMS gradient                                                  0.0002994607
 OPT| Convergence limit for RMS gradient                            0.0003000000
 OPT| RMS gradient is converged                                              YES
 OPT| **************************************************************************
 OPT| Estimated peak process memory after this step [MiB]                    164

 --------------------------
 OPTIMIZATION STEP:      5
 --------------------------

 Extrapolation method: ASPC

 Number of electrons:                                                         44
 Number of occupied orbitals:                                                 22
 Number of molecular orbitals:                                                40

 Number of orbital functions:                                                 40
 Number of independent orbital functions:                                     40


 SCF WAVEFUNCTION OPTIMIZATION

  Step     Update method      Time    Convergence         Total energy    Change
  ------------------------------------------------------------------------------
     1 TBLite/Diag 0.40E+00    0.0     0.00750989       -25.0492588049 -2.50E+01
     2 TBLite/Diag 0.40E+00    0.0     0.00005149       -25.0492588262 -2.13E-08
     3 TBLite/Diag 0.40E+00    0.0     0.00011228       -25.0492588255  6.72E-10
     4 TBLite/Diag 0.40E+00    0.0     0.00006600       -25.0492588352 -9.65E-09
     5 TBLite/Diag 0.40E+00    0.0     0.00000964       -25.0492588353 -8.43E-11
     6 TBLite/Diag 0.40E+00    0.0     0.00000456       -25.0492588353 -6.16E-11
     7 TBLite/Diag 0.40E+00    0.0     0.00000123       -25.0492588353 -2.45E-12
     8 TBLite/Diag 0.40E+00    0.0     0.00000024       -25.0492588353 -2.74E-13
     9 TBLite/Diag 0.40E+00    0.0     0.00000017       -25.0492588353 -1.78E-14
    10 TBLite/Diag 0.40E+00    0.0     0.00000003       -25.0492588353 -7.11E-15
    11 TBLite/Diag 0.40E+00    0.0     0.00000002       -25.0492588353  0.00E+00
    12 TBLite/Diag 0.40E+00    0.0     4.5849E-09       -25.0492588353 -2.49E-14
    13 TBLite/Diag 0.40E+00    0.0     1.0537E-09       -25.0492588353  3.55E-15
    14 TBLite/Diag 0.40E+00    0.0     4.3638E-10       -25.0492588353  1.07E-14

  *** SCF run converged in    14 steps ***


  Core Hamiltonian energy:                                    -25.39500272778505
  Repulsive potential energy:                                   0.29646485694787
  Electrostatic energy:                                         0.06022848401494
  Self-consistent dispersion energy:                           -0.01097744500376
  Non-self consistent dispersion energy:                        0.00002799649494
  Correction for halogen bonding:                               0.00000000000000
  Electronic entropic energy:                                  -0.00000000000000
  Fermi energy:                                                -0.29661352035445

  Total energy:                                               -25.04925883533106
  Total energy (extrapolated to T->0):                        -25.04925883533106

 ENERGY| Total FORCE_EVAL ( QS ) energy [hartree]            -25.049258835331056

 OPT| **************************************************************************
 OPT| Step number                                                              5
 OPT| Optimization method                                                   BFGS
 OPT| Total energy [hartree]                                      -25.0492588353
 OPT| Effective energy change [hartree]                            -0.0000336308
 OPT| Predicted energy change [hartree]                            -0.0000218816
 OPT| Scaling factor                                                0.0000000000
 OPT| Step size                                                     0.0170775461
 OPT| Trust radius                                                  0.4724315332
 OPT| Decrease in energy                                                     YES
 OPT| Used time [s]                                                        0.023
 OPT|
 OPT| Maximum step size                                             0.0170775461
 OPT| Convergence limit for maximum step size                       0.0030000000
 OPT| Maximum step size is converged                                          NO
 OPT|
 OPT| RMS step size                                                 0.0069978577
 OPT| Convergence limit for RMS step size                           0.0015000000
 OPT| RMS step size is converged                                              NO
 OPT|
 OPT| Maximum gradient                                              0.0014731718
 OPT| Convergence limit for maximum gradient                        0.0004500000
 OPT| Maximum gradient is converged                                           NO
 OPT|
 OPT| RMS gradient                                                  0.0004590595
 OPT| Convergence limit for RMS gradient                            0.0003000000
 OPT| RMS gradient is converged                                               NO
 OPT| **************************************************************************
 OPT| Estimated peak process memory after this step [MiB]                    164

 --------------------------
 OPTIMIZATION STEP:      6
 --------------------------

 Extrapolation method: ASPC

 Number of electrons:                                                         44
 Number of occupied orbitals:                                                 22
 Number of molecular orbitals:                                                40

 Number of orbital functions:                                                 40
 Number of independent orbital functions:                                     40


 SCF WAVEFUNCTION OPTIMIZATION

  Step     Update method      Time    Convergence         Total energy    Change
  ------------------------------------------------------------------------------
     1 TBLite/Diag 0.40E+00    0.0     0.01681820       -25.0493087526 -2.50E+01
     2 TBLite/Diag 0.40E+00    0.0     0.00027725       -25.0493088870 -1.34E-07
     3 TBLite/Diag 0.40E+00    0.0     0.00021957       -25.0493088638  2.32E-08
     4 TBLite/Diag 0.40E+00    0.0     0.00019239       -25.0493089210 -5.72E-08
     5 TBLite/Diag 0.40E+00    0.0     0.00004432       -25.0493089229 -1.90E-09
     6 TBLite/Diag 0.40E+00    0.0     0.00000737       -25.0493089232 -3.54E-10
     7 TBLite/Diag 0.40E+00    0.0     0.00000340       -25.0493089232 -2.39E-11
     8 TBLite/Diag 0.40E+00    0.0     0.00000053       -25.0493089232 -8.95E-13
     9 TBLite/Diag 0.40E+00    0.0     0.00000028       -25.0493089232 -2.03E-13
    10 TBLite/Diag 0.40E+00    0.0     0.00000006       -25.0493089232  3.55E-15
    11 TBLite/Diag 0.40E+00    0.0     0.00000004       -25.0493089232 -2.49E-14
    12 TBLite/Diag 0.40E+00    0.0     0.00000002       -25.0493089232  7.11E-15
    13 TBLite/Diag 0.40E+00    0.0     1.5958E-09       -25.0493089232  2.13E-14
    14 TBLite/Diag 0.40E+00    0.0     1.0129E-09       -25.0493089232 -2.49E-14
    15 TBLite/Diag 0.40E+00    0.0     1.6373E-10       -25.0493089232  2.49E-14

  *** SCF run converged in    15 steps ***


  Core Hamiltonian energy:                                    -25.39457057133287
  Repulsive potential energy:                                   0.29598442826793
  Electrostatic energy:                                         0.06023495026569
  Self-consistent dispersion energy:                           -0.01098556921335
  Non-self consistent dispersion energy:                        0.00002783876809
  Correction for halogen bonding:                               0.00000000000000
  Electronic entropic energy:                                  -0.00000000000000
  Fermi energy:                                                -0.29662789907968

  Total energy:                                               -25.04930892324450
  Total energy (extrapolated to T->0):                        -25.04930892324450

 ENERGY| Total FORCE_EVAL ( QS ) energy [hartree]            -25.049308923244503

 OPT| **************************************************************************
 OPT| Step number                                                              6
 OPT| Optimization method                                                   BFGS
 OPT| Total energy [hartree]                                      -25.0493089232
 OPT| Effective energy change [hartree]                            -0.0000500879
 OPT| Predicted energy change [hartree]                            -0.0000437013
 OPT| Scaling factor                                                0.0000000000
 OPT| Step size                                                     0.0370510823
 OPT| Trust radius                                                  0.4724315332
 OPT| Decrease in energy                                                     YES
 OPT| Used time [s]                                                        0.024
 OPT|
 OPT| Maximum step size                                             0.0370510823
 OPT| Convergence limit for maximum step size                       0.0030000000
 OPT| Maximum step size is converged                                          NO
 OPT|
 OPT| RMS step size                                                 0.0154222973
 OPT| Convergence limit for RMS step size                           0.0015000000
 OPT| RMS step size is converged                                              NO
 OPT|
 OPT| Maximum gradient                                              0.0020068043
 OPT| Convergence limit for maximum gradient                        0.0004500000
 OPT| Maximum gradient is converged                                           NO
 OPT|
 OPT| RMS gradient                                                  0.0006424379
 OPT| Convergence limit for RMS gradient                            0.0003000000
 OPT| RMS gradient is converged                                               NO
 OPT| **************************************************************************
 OPT| Estimated peak process memory after this step [MiB]                    164

 --------------------------
 OPTIMIZATION STEP:      7
 --------------------------

 Extrapolation method: ASPC

 Number of electrons:                                                         44
 Number of occupied orbitals:                                                 22
 Number of molecular orbitals:                                                40

 Number of orbital functions:                                                 40
 Number of independent orbital functions:                                     40


 SCF WAVEFUNCTION OPTIMIZATION

  Step     Update method      Time    Convergence         Total energy    Change
  ------------------------------------------------------------------------------
     1 TBLite/Diag 0.40E+00    0.0     0.01510449       -25.0493544663 -2.50E+01
     2 TBLite/Diag 0.40E+00    0.0     0.00046588       -25.0493548656 -3.99E-07
     3 TBLite/Diag 0.40E+00    0.0     0.00020038       -25.0493548315  3.41E-08
     4 TBLite/Diag 0.40E+00    0.0     0.00021969       -25.0493549120 -8.05E-08
     5 TBLite/Diag 0.40E+00    0.0     0.00006720       -25.0493549157 -3.72E-09
     6 TBLite/Diag 0.40E+00    0.0     0.00001137       -25.0493549164 -6.68E-10
     7 TBLite/Diag 0.40E+00    0.0     0.00000386       -25.0493549164 -1.63E-11
     8 TBLite/Diag 0.40E+00    0.0     0.00000061       -25.0493549164 -1.45E-12
     9 TBLite/Diag 0.40E+00    0.0     0.00000045       -25.0493549164 -1.53E-13
    10 TBLite/Diag 0.40E+00    0.0     0.00000006       -25.0493549164 -1.07E-14
    11 TBLite/Diag 0.40E+00    0.0     0.00000003       -25.0493549164 -1.78E-14
    12 TBLite/Diag 0.40E+00    0.0     0.00000001       -25.0493549164  1.07E-14
    13 TBLite/Diag 0.40E+00    0.0     2.3921E-09       -25.0493549164  0.00E+00
    14 TBLite/Diag 0.40E+00    0.0     7.0228E-10       -25.0493549164  0.00E+00

  *** SCF run converged in    14 steps ***


  Core Hamiltonian energy:                                    -25.39444113835972
  Repulsive potential energy:                                   0.29592169112486
  Electrostatic energy:                                         0.06013190532615
  Self-consistent dispersion energy:                           -0.01099510129655
  Non-self consistent dispersion energy:                        0.00002772678319
  Correction for halogen bonding:                               0.00000000000000
  Electronic entropic energy:                                  -0.00000000000000
  Fermi energy:                                                -0.29649379464243

  Total energy:                                               -25.04935491642207
  Total energy (extrapolated to T->0):                        -25.04935491642207

 ENERGY| Total FORCE_EVAL ( QS ) energy [hartree]            -25.049354916422072

 OPT| **************************************************************************
 OPT| Step number                                                              7
 OPT| Optimization method                                                   BFGS
 OPT| Total energy [hartree]                                      -25.0493549164
 OPT| Effective energy change [hartree]                            -0.0000459932
 OPT| Predicted energy change [hartree]                            -0.0000416628
 OPT| Scaling factor                                                0.0000000000
 OPT| Step size                                                     0.0344448490
 OPT| Trust radius                                                  0.4724315332
 OPT| Decrease in energy                                                     YES
 OPT| Used time [s]                                                        0.023
 OPT|
 OPT| Maximum step size                                             0.0344448490
 OPT| Convergence limit for maximum step size                       0.0030000000
 OPT| Maximum step size is converged                                          NO
 OPT|
 OPT| RMS step size                                                 0.0140278389
 OPT| Convergence limit for RMS step size                           0.0015000000
 OPT| RMS step size is converged                                              NO
 OPT|
 OPT| Maximum gradient                                              0.0013835242
 OPT| Convergence limit for maximum gradient                        0.0004500000
 OPT| Maximum gradient is converged                                           NO
 OPT|
 OPT| RMS gradient                                                  0.0005092800
 OPT| Convergence limit for RMS gradient                            0.0003000000
 OPT| RMS gradient is converged                                               NO
 OPT| **************************************************************************
 OPT| Estimated peak process memory after this step [MiB]                    164

 --------------------------
 OPTIMIZATION STEP:      8
 --------------------------

 Extrapolation method: ASPC

 Number of electrons:                                                         44
 Number of occupied orbitals:                                                 22
 Number of molecular orbitals:                                                40

 Number of orbital functions:                                                 40
 Number of independent orbital functions:                                     40


 SCF WAVEFUNCTION OPTIMIZATION

  Step     Update method      Time    Convergence         Total energy    Change
  ------------------------------------------------------------------------------
     1 TBLite/Diag 0.40E+00    0.0     0.00682646       -25.0493961379 -2.50E+01
     2 TBLite/Diag 0.40E+00    0.0     0.00038850       -25.0493964249 -2.87E-07
     3 TBLite/Diag 0.40E+00    0.0     0.00013068       -25.0493964084  1.65E-08
     4 TBLite/Diag 0.40E+00    0.0     0.00015727       -25.0493964511 -4.28E-08
     5 TBLite/Diag 0.40E+00    0.0     0.00004570       -25.0493964528 -1.63E-09
     6 TBLite/Diag 0.40E+00    0.0     0.00000876       -25.0493964531 -3.25E-10
     7 TBLite/Diag 0.40E+00    0.0     0.00000119       -25.0493964531 -4.63E-12
     8 TBLite/Diag 0.40E+00    0.0     0.00000023       -25.0493964531 -1.78E-13
     9 TBLite/Diag 0.40E+00    0.0     0.00000012       -25.0493964531 -4.62E-14
    10 TBLite/Diag 0.40E+00    0.0     0.00000004       -25.0493964531 -7.11E-15
    11 TBLite/Diag 0.40E+00    0.0     0.00000003       -25.0493964531 -3.55E-15
    12 TBLite/Diag 0.40E+00    0.0     8.6633E-09       -25.0493964531  1.42E-14
    13 TBLite/Diag 0.40E+00    0.0     6.5029E-10       -25.0493964531  3.55E-15

  *** SCF run converged in    13 steps ***


  Core Hamiltonian energy:                                    -25.39483776436464
  Repulsive potential energy:                                   0.29641889480829
  Electrostatic energy:                                         0.05999712671585
  Self-consistent dispersion energy:                           -0.01100238845161
  Non-self consistent dispersion energy:                        0.00002767819115
  Correction for halogen bonding:                               0.00000000000000
  Electronic entropic energy:                                  -0.00000000000000
  Fermi energy:                                                -0.29637878284904

  Total energy:                                               -25.04939645310096
  Total energy (extrapolated to T->0):                        -25.04939645310096

 ENERGY| Total FORCE_EVAL ( QS ) energy [hartree]            -25.049396453100965

 OPT| **************************************************************************
 OPT| Step number                                                              8
 OPT| Optimization method                                                   BFGS
 OPT| Total energy [hartree]                                      -25.0493964531
 OPT| Effective energy change [hartree]                            -0.0000415367
 OPT| Predicted energy change [hartree]                            -0.0000275758
 OPT| Scaling factor                                                0.0000000000
 OPT| Step size                                                     0.0182203152
 OPT| Trust radius                                                  0.4724315332
 OPT| Decrease in energy                                                     YES
 OPT| Used time [s]                                                        0.021
 OPT|
 OPT| Maximum step size                                             0.0182203152
 OPT| Convergence limit for maximum step size                       0.0030000000
 OPT| Maximum step size is converged                                          NO
 OPT|
 OPT| RMS step size                                                 0.0072152390
 OPT| Convergence limit for RMS step size                           0.0015000000
 OPT| RMS step size is converged                                              NO
 OPT|
 OPT| Maximum gradient                                              0.0008284047
 OPT| Convergence limit for maximum gradient                        0.0004500000
 OPT| Maximum gradient is converged                                           NO
 OPT|
 OPT| RMS gradient                                                  0.0002780594
 OPT| Convergence limit for RMS gradient                            0.0003000000
 OPT| RMS gradient is converged                                              YES
 OPT| **************************************************************************
 OPT| Estimated peak process memory after this step [MiB]                    164

 --------------------------
 OPTIMIZATION STEP:      9
 --------------------------

 Extrapolation method: ASPC

 Number of electrons:                                                         44
 Number of occupied orbitals:                                                 22
 Number of molecular orbitals:                                                40

 Number of orbital functions:                                                 40
 Number of independent orbital functions:                                     40


 SCF WAVEFUNCTION OPTIMIZATION

  Step     Update method      Time    Convergence         Total energy    Change
  ------------------------------------------------------------------------------
     1 TBLite/Diag 0.40E+00    0.0     0.00830961       -25.0494195218 -2.50E+01
     2 TBLite/Diag 0.40E+00    0.0     0.00039440       -25.0494198065 -2.85E-07
     3 TBLite/Diag 0.40E+00    0.0     0.00016836       -25.0494197790  2.75E-08
     4 TBLite/Diag 0.40E+00    0.0     0.00019607       -25.0494198436 -6.46E-08
     5 TBLite/Diag 0.40E+00    0.0     0.00004776       -25.0494198462 -2.65E-09
     6 TBLite/Diag 0.40E+00    0.0     0.00000911       -25.0494198465 -3.19E-10
     7 TBLite/Diag 0.40E+00    0.0     0.00000220       -25.0494198466 -8.11E-12
     8 TBLite/Diag 0.40E+00    0.0     0.00000029       -25.0494198466 -2.63E-13
     9 TBLite/Diag 0.40E+00    0.0     0.00000025       -25.0494198466 -9.24E-14
    10 TBLite/Diag 0.40E+00    0.0     0.00000009       -25.0494198466 -1.78E-14
    11 TBLite/Diag 0.40E+00    0.0     0.00000004       -25.0494198466  3.55E-15
    12 TBLite/Diag 0.40E+00    0.0     0.00000001       -25.0494198466  1.07E-14
    13 TBLite/Diag 0.40E+00    0.0     1.8468E-09       -25.0494198466 -2.84E-14
    14 TBLite/Diag 0.40E+00    0.0     5.6067E-10       -25.0494198466  1.78E-14

  *** SCF run converged in    14 steps ***


  Core Hamiltonian energy:                                    -25.39530018708902
  Repulsive potential energy:                                   0.29701731139972
  Electrostatic energy:                                         0.05984738241241
  Self-consistent dispersion energy:                           -0.01101196633524
  Non-self consistent dispersion energy:                        0.00002761305723
  Correction for halogen bonding:                               0.00000000000000
  Electronic entropic energy:                                  -0.00000000000000
  Fermi energy:                                                -0.29638789547151

  Total energy:                                               -25.04941984655490
  Total energy (extrapolated to T->0):                        -25.04941984655490

 ENERGY| Total FORCE_EVAL ( QS ) energy [hartree]            -25.049419846554898

 OPT| **************************************************************************
 OPT| Step number                                                              9
 OPT| Optimization method                                                   BFGS
 OPT| Total energy [hartree]                                      -25.0494198466
 OPT| Effective energy change [hartree]                            -0.0000233935
 OPT| Predicted energy change [hartree]                            -0.0000269737
 OPT| Scaling factor                                                0.0000000000
 OPT| Step size                                                     0.0196799810
 OPT| Trust radius                                                  0.4724315332
 OPT| Decrease in energy                                                     YES
 OPT| Used time [s]                                                        0.023
 OPT|
 OPT| Maximum step size                                             0.0196799810
 OPT| Convergence limit for maximum step size                       0.0030000000
 OPT| Maximum step size is converged                                          NO
 OPT|
 OPT| RMS step size                                                 0.0083834722
 OPT| Convergence limit for RMS step size                           0.0015000000
 OPT| RMS step size is converged                                              NO
 OPT|
 OPT| Maximum gradient                                              0.0008401653
 OPT| Convergence limit for maximum gradient                        0.0004500000
 OPT| Maximum gradient is converged                                           NO
 OPT|
 OPT| RMS gradient                                                  0.0003132724
 OPT| Convergence limit for RMS gradient                            0.0003000000
 OPT| RMS gradient is converged                                               NO
 OPT| **************************************************************************
 OPT| Estimated peak process memory after this step [MiB]                    164

 --------------------------
 OPTIMIZATION STEP:     10
 --------------------------

 Extrapolation method: ASPC

 Number of electrons:                                                         44
 Number of occupied orbitals:                                                 22
 Number of molecular orbitals:                                                40

 Number of orbital functions:                                                 40
 Number of independent orbital functions:                                     40


 SCF WAVEFUNCTION OPTIMIZATION

  Step     Update method      Time    Convergence         Total energy    Change
  ------------------------------------------------------------------------------
     1 TBLite/Diag 0.40E+00    0.0     0.00499636       -25.0494239970 -2.50E+01
     2 TBLite/Diag 0.40E+00    0.0     0.00005639       -25.0494240136 -1.66E-08
     3 TBLite/Diag 0.40E+00    0.0     0.00006040       -25.0494240151 -1.56E-09
     4 TBLite/Diag 0.40E+00    0.0     0.00004855       -25.0494240196 -4.42E-09
     5 TBLite/Diag 0.40E+00    0.0     0.00001494       -25.0494240197 -1.11E-10
     6 TBLite/Diag 0.40E+00    0.0     0.00000647       -25.0494240198 -7.15E-11
     7 TBLite/Diag 0.40E+00    0.0     0.00000126       -25.0494240198 -1.50E-12
     8 TBLite/Diag 0.40E+00    0.0     0.00000028       -25.0494240198 -1.53E-13
     9 TBLite/Diag 0.40E+00    0.0     0.00000015       -25.0494240198 -3.55E-14
    10 TBLite/Diag 0.40E+00    0.0     0.00000008       -25.0494240198  7.11E-15
    11 TBLite/Diag 0.40E+00    0.0     0.00000003       -25.0494240198 -1.42E-14
    12 TBLite/Diag 0.40E+00    0.0     6.3826E-09       -25.0494240198 -3.55E-15
    13 TBLite/Diag 0.40E+00    0.0     1.9129E-09       -25.0494240198 -7.11E-15
    14 TBLite/Diag 0.40E+00    0.0     2.9265E-10       -25.0494240198  2.49E-14

  *** SCF run converged in    14 steps ***


  Core Hamiltonian energy:                                    -25.39523647077073
  Repulsive potential energy:                                   0.29694434114886
  Electrostatic energy:                                         0.05985431404842
  Self-consistent dispersion energy:                           -0.01101379476086
  Non-self consistent dispersion energy:                        0.00002759057916
  Correction for halogen bonding:                               0.00000000000000
  Electronic entropic energy:                                  -0.00000000000000
  Fermi energy:                                                -0.29650838060457

  Total energy:                                               -25.04942401975514
  Total energy (extrapolated to T->0):                        -25.04942401975514

 ENERGY| Total FORCE_EVAL ( QS ) energy [hartree]            -25.049424019755143

 OPT| **************************************************************************
 OPT| Step number                                                             10
 OPT| Optimization method                                                   BFGS
 OPT| Total energy [hartree]                                      -25.0494240198
 OPT| Effective energy change [hartree]                            -0.0000041732
 OPT| Predicted energy change [hartree]                            -0.0000074927
 OPT| Scaling factor                                                0.0000000000
 OPT| Step size                                                     0.0052458145
 OPT| Trust radius                                                  0.4724315332
 OPT| Decrease in energy                                                     YES
 OPT| Used time [s]                                                        0.023
 OPT|
 OPT| Maximum step size                                             0.0052458145
 OPT| Convergence limit for maximum step size                       0.0030000000
 OPT| Maximum step size is converged                                          NO
 OPT|
 OPT| RMS step size                                                 0.0020111434
 OPT| Convergence limit for RMS step size                           0.0015000000
 OPT| RMS step size is converged                                              NO
 OPT|
 OPT| Maximum gradient                                              0.0005643790
 OPT| Convergence limit for maximum gradient                        0.0004500000
 OPT| Maximum gradient is converged                                           NO
 OPT|
 OPT| RMS gradient                                                  0.0001918345
 OPT| Convergence limit for RMS gradient                            0.0003000000
 OPT| RMS gradient is converged                                              YES
 OPT| **************************************************************************
 OPT| Estimated peak process memory after this step [MiB]                    164

 --------------------------
 OPTIMIZATION STEP:     11
 --------------------------

 Extrapolation method: ASPC

 Number of electrons:                                                         44
 Number of occupied orbitals:                                                 22
 Number of molecular orbitals:                                                40

 Number of orbital functions:                                                 40
 Number of independent orbital functions:                                     40


 SCF WAVEFUNCTION OPTIMIZATION

  Step     Update method      Time    Convergence         Total energy    Change
  ------------------------------------------------------------------------------
     1 TBLite/Diag 0.40E+00    0.0     0.00277348       -25.0494261729 -2.50E+01
     2 TBLite/Diag 0.40E+00    0.0     0.00006270       -25.0494261859 -1.30E-08
     3 TBLite/Diag 0.40E+00    0.0     0.00003267       -25.0494261857  1.31E-10
     4 TBLite/Diag 0.40E+00    0.0     0.00001903       -25.0494261876 -1.85E-09
     5 TBLite/Diag 0.40E+00    0.0     0.00000657       -25.0494261876 -1.95E-11
     6 TBLite/Diag 0.40E+00    0.0     0.00000343       -25.0494261876 -8.45E-12
     7 TBLite/Diag 0.40E+00    0.0     0.00000100       -25.0494261876 -2.68E-12
     8 TBLite/Diag 0.40E+00    0.0     0.00000025       -25.0494261876 -1.31E-13
     9 TBLite/Diag 0.40E+00    0.0     0.00000010       -25.0494261876 -3.55E-15
    10 TBLite/Diag 0.40E+00    0.0     0.00000001       -25.0494261876 -7.11E-15
    11 TBLite/Diag 0.40E+00    0.0     7.6807E-09       -25.0494261876 -3.55E-15
    12 TBLite/Diag 0.40E+00    0.0     3.3104E-09       -25.0494261876 -2.13E-14
    13 TBLite/Diag 0.40E+00    0.0     4.4815E-10       -25.0494261876  2.13E-14

  *** SCF run converged in    13 steps ***


  Core Hamiltonian energy:                                    -25.39512339959499
  Repulsive potential energy:                                   0.29679969596126
  Electrostatic energy:                                         0.05988305753910
  Self-consistent dispersion energy:                           -0.01101313095364
  Non-self consistent dispersion energy:                        0.00002758942889
  Correction for halogen bonding:                               0.00000000000000
  Electronic entropic energy:                                  -0.00000000000000
  Fermi energy:                                                -0.29655656826609

  Total energy:                                               -25.04942618761938
  Total energy (extrapolated to T->0):                        -25.04942618761938

 ENERGY| Total FORCE_EVAL ( QS ) energy [hartree]            -25.049426187619382

 OPT| **************************************************************************
 OPT| Step number                                                             11
 OPT| Optimization method                                                   BFGS
 OPT| Total energy [hartree]                                      -25.0494261876
 OPT| Effective energy change [hartree]                            -0.0000021679
 OPT| Predicted energy change [hartree]                            -0.0000021293
 OPT| Scaling factor                                                0.0000000000
 OPT| Step size                                                     0.0028659159
 OPT| Trust radius                                                  0.4724315332
 OPT| Decrease in energy                                                     YES
 OPT| Used time [s]                                                        0.022
 OPT|
 OPT| Maximum step size                                             0.0028659159
 OPT| Convergence limit for maximum step size                       0.0030000000
 OPT| Maximum step size is converged                                         YES
 OPT|
 OPT| RMS step size                                                 0.0008713864
 OPT| Convergence limit for RMS step size                           0.0015000000
 OPT| RMS step size is converged                                             YES
 OPT|
 OPT| Maximum gradient                                              0.0001578715
 OPT| Convergence limit for maximum gradient                        0.0004500000
 OPT| Maximum gradient is converged                                          YES
 OPT|
 OPT| RMS gradient                                                  0.0000652304
 OPT| Convergence limit for RMS gradient                            0.0003000000
 OPT| RMS gradient is converged                                              YES
 OPT| **************************************************************************
 OPT| Estimated peak process memory after this step [MiB]                    164

 *******************************************************************************
 ***                    GEOMETRY OPTIMIZATION COMPLETED                      ***
 *******************************************************************************

 write_final_structure: Optimization converged, writing XYZ file gladly:
  14_cyclohexanedione_GFN2_mol_geoopt-FINAL-1_11.xyz

 write_final_structure: Optimization converged, writing CIF file gladly:
  14_cyclohexanedione_GFN2_mol_geoopt-FINAL-1_11.cif

 write_final_structure: Done!

                    Reevaluating energy at the minimum

 Extrapolation method: ASPC

 Number of electrons:                                                         44
 Number of occupied orbitals:                                                 22
 Number of molecular orbitals:                                                40

 Number of orbital functions:                                                 40
 Number of independent orbital functions:                                     40


 SCF WAVEFUNCTION OPTIMIZATION

  Step     Update method      Time    Convergence         Total energy    Change
  ------------------------------------------------------------------------------
     1 TBLite/Diag 0.40E+00    0.0     4.8673E-10       -25.0494261876 -2.50E+01

  *** SCF run converged in     1 steps ***


  Core Hamiltonian energy:                                    -25.39512339947829
  Repulsive potential energy:                                   0.29679969596126
  Electrostatic energy:                                         0.05988305742263
  Self-consistent dispersion energy:                           -0.01101313095388
  Non-self consistent dispersion energy:                        0.00002758942889
  Correction for halogen bonding:                               0.00000000000000
  Electronic entropic energy:                                  -0.00000000000000
  Fermi energy:                                                -0.29655656831875

  Total energy:                                               -25.04942618761938
  Total energy (extrapolated to T->0):                        -25.04942618761938

 ENERGY| Total FORCE_EVAL ( QS ) energy [hartree]            -25.049426187619382

 -------------------------------------------------------------------------------
 -                                                                             -
 -                                DBCSR STATISTICS                             -
 -                                                                             -
 -------------------------------------------------------------------------------
 COUNTER                                    TOTAL       BLAS       SMM       ACC
 flops     1 x     8 x     1                51200       0.0%    100.0%      0.0%     
 flops     4 x     8 x     1               204800       0.0%    100.0%      0.0%     
 flops     1 x     8 x     4               204800       0.0%    100.0%      0.0%     
 flops     1 x    32 x     1               204800       0.0%    100.0%      0.0%     
 flops     1 x     1 x    40               550080       0.0%    100.0%      0.0%     
 flops     4 x     8 x     4               819200       0.0%    100.0%      0.0%     
 flops     4 x    32 x     1               819200       0.0%    100.0%      0.0%     
 flops     1 x    32 x     4               819200       0.0%    100.0%      0.0%     
 flops     4 x     1 x    40              1955840       0.0%    100.0%      0.0%     
 flops     1 x     4 x    40              1955840       0.0%    100.0%      0.0%     
 flops     4 x    32 x     4              3276800       0.0%    100.0%      0.0%     
 flops     4 x     4 x    40              8801280       0.0%    100.0%      0.0%     
 flops inhomo. stacks                           0       0.0%      0.0%      0.0%
 flops total                        19.663040E+06       0.0%    100.0%      0.0%
 flops max/rank                     19.663040E+06       0.0%    100.0%      0.0%
 matmuls inhomo. stacks                         0       0.0%      0.0%      0.0%
 matmuls total                              51576       0.0%    100.0%      0.0%
 number of processed stacks                  1164       0.0%    100.0%      0.0%
 average stack size                                     0.0      44.3       0.0
 marketing flops                    19.846400E+06
 -------------------------------------------------------------------------------
 # multiplications                            241
 max memory usage/rank              13.671039E+09
 # max total images/rank                        1
 # max 3D layers                                1
 # MPI messages exchanged                       0
 -------------------------------------------------------------------------------
 -                                                                             -
 -                      DBCSR MESSAGE PASSING PERFORMANCE                      -
 -                                                                             -
 -------------------------------------------------------------------------------
 ROUTINE             CALLS      AVE VOLUME [Bytes]
 MP_Bcast               13                     12.
 MP_Allreduce         1148                      9.
 MP_Alltoall          8114                   9226.
 MP_ISend              964                   1105.
 MP_IRecv              964                   1105.
 -------------------------------------------------------------------------------

 -------------------------------------------------------------------------------
 -                                                                             -
 -                          OFFLOAD MEMPOOL STATISTICS                         -
 -                                                                             -
 -------------------------------------------------------------------------------
 Memory consumption                Number of allocations  Used [MiB]  Size [MiB]
 Device                                                1           0           0
 Host                                                  1           0           0
 -------------------------------------------------------------------------------

 MEMORY| Estimated peak process memory [MiB]                                 164

 -------------------------------------------------------------------------------
 -                                                                             -
 -                         MESSAGE PASSING PERFORMANCE                         -
 -                                                                             -
 -------------------------------------------------------------------------------

 ROUTINE             CALLS      AVE VOLUME [Bytes]
 MP_Group                1
 MP_Bcast              369                    170.
 MP_Allreduce         5712                    124.
 MP_Sync               192
 MP_comm_split         191
 -------------------------------------------------------------------------------


 -------------------------------------------------------------------------------
 -                                                                             -
 -                           R E F E R E N C E S                               -
 -                                                                             -
 -------------------------------------------------------------------------------
 
 CP2K version 2026.1 (Development Version), the CP2K developers group (2026).
 CP2K is freely available from https://www.cp2k.org/ .
 
 M. Iannuzzi, J. Wilhelm, F. Stein, A. Bussy, H. Elgabarty, D. Golze, A. Hehn, 
 M. Graml, S. Marek, B. Sertcan Gökmen, C. Schran, H. Forbert, R. Z. 
 Khaliullin, A. Kozhevnikov, M. Taillefumier, R. Meli, V. V. Rybkin, M. Brehm, 
 R. Schade, O. Schütt, J. V. Pototschnig, H. Mirhosseini, A. Knüpfer, D. Marx, 
 M. Krack, J. Hutter, T. D. Kühne.
 J. Phys. Chem. B 130, 1237-1310 (2026).
 The CP2K Program Package Made Simple.
 https://doi.org/10.1021/acs.jpcb.5c05851

 A. Katbashev, M. Stahn, T. Rose, V. Alizadeh, M. Friede, C. Plett, P. 
 Steinbach, S. Ehlert.
 J. Phys. Chem. A 129, 2667-2682 (2025).
 Overview on Building Blocks and Applications of Efficient and Robust Extended 
 Tight Binding.
 https://doi.org/10.1021/acs.jpca.4c08263

 T. D. Kühne, M. Iannuzzi, M. Del Ben, V. V. Rybkin, P. Seewald, F. Stein, T. 
 Laino, R. Z. Khaliullin, O. Schütt, F. Schiffmann, D. Golze, J. Wilhelm, S. 
 Chulkov, M. H. Bani-Hashemian, V. Weber, U. Borstnik, M. Taillefumier, A. S. 
 Jakobovits, A. Lazzaro, H. Pabst, T. Müller, R. Schade, M. Guidon, S. 
 Andermatt, N. Holmberg, G. K. Schenter, A. Hehn, A. Bussy, F. Belleflamme, G. 
 Tabacchi, A. Glöß, M. Lass, I. Bethune, C. J. Mundy, C. Plessl, M. Watkins, 
 J. VandeVondele, M. Krack, J. Hutter.
 J. Chem. Phys. 152, 194103 (2020).
 CP2K: An electronic structure and molecular dynamics software package - 
 Quickstep: Efficient and accurate electronic structure calculations.
 https://doi.org/10.1063/5.0007045

 P. Pracht, E. Caldeweyher, S. Ehlert, S. Grimme.
 ChemRxiv, (2019).
 A Robust Non-Self-Consistent Tight-Binding Quantum Chemistry Method for large 
 Molecules.
 https://doi.org/10.26434/chemrxiv.8326202.v1

 S. Grimme, C. Bannwarth, P. Shushkov.
 J. Chem. Theory Comput. 13, 1989 (2017).
 A Robust and Accurate Tight-Binding Quantum Chemical Method for Structures, 
 Vibrational Frequencies, and Noncovalent Interactions of Large Molecular 
 Systems Parametrized for All spd-Block Elements (Z = 1-86).
 https://doi.org/10.1021/acs.jctc.7b00118

 O. Schuett, P. Messmer, J. Hutter, J. VandeVondele.
 Electronic Structure Calculations on Graphics Processing Units, 173-190 (2016).
 GPU-Accelerated Sparse Matrix-Matrix Multiplication for Linear Scaling Density 
 Functional Theory.
 https://doi.org/10.1002/9781118670712.ch8

 A. Heinecke, G. Henry, M. Hutchinson, H. Pabst.
 Proceedings of Intl. Supercomputing Conference, 981-991 (2016).
 LIBXSMM: Accelerating Small Matrix Multiplications by Runtime Code Generation.
 https://doi.org/10.1109/SC.2016.83

 U. Borstnik, J. VandeVondele, V. Weber, J. Hutter.
 Parallel Comput. 40, 47-58 (2014).
 Sparse matrix multiplication: The distributed block-compressed sparse row 
 library.
 https://doi.org/10.1016/j.parco.2014.03.012

 T. D. Kühne, M. Krack, F. R. Mohamed, M. Parrinello.
 Phys. Rev. Lett. 98, 066401 (2007).
 Efficient and accurate Car-Parrinello-like approach to Born-Oppenheimer 
 molecular dynamics.
 https://doi.org/10.1103/PhysRevLett.98.066401

 M. Frigo, S. G. Johnson.
 Proc. IEEE 93, 216-231 (2005).
 The design and implementation of FFTW3.
 https://doi.org/10.1109/JPROC.2004.840301

 J. Kolafa.
 J. Comput. Chem. 25, 335-342 (2004).
 Time-reversible always stable predictor-corrector method for molecular dynamics 
 of polarizable molecules.
 https://doi.org/10.1002/jcc.10385

 N. D. Mermin.
 Phys. Rev. 137, A1441-A1443 (1965).
 Thermal Properties of the Inhomogeneous Electron Gas.
 https://doi.org/10.1103/PhysRev.137.A1441


 -------------------------------------------------------------------------------
 -                                                                             -
 -                                T I M I N G                                  -
 -                                                                             -
 -------------------------------------------------------------------------------
 SUBROUTINE                       CALLS  ASD         SELF TIME        TOTAL TIME
                                MAXIMUM       AVERAGE  MAXIMUM  AVERAGE  MAXIMUM
 CP2K                                 1  1.0    0.002    0.002    0.275    0.275
 cp_geo_opt                           1  2.0    0.000    0.000    0.270    0.270
 geoopt_bfgs                          1  3.0    0.001    0.001    0.270    0.270
 cp_eval_at                          13  4.0    0.001    0.001    0.262    0.262
 qs_forces                           12  5.0    0.000    0.000    0.256    0.256
 qs_energies                         13  5.9    0.000    0.000    0.232    0.232
 scf_env_do_scf                      13  6.9    0.000    0.000    0.190    0.190
 scf_env_do_scf_inner_loop          167  8.0    0.022    0.022    0.189    0.189
 qs_scf_new_mos                     167  9.0    0.000    0.000    0.116    0.116
 cp_dbcsr_plus_fm_fm_t              191 10.9    0.001    0.001    0.056    0.056
 rebuild_ks_matrix                  179  9.8    0.000    0.000    0.054    0.054
 build_tblite_ks_matrix             179 10.8    0.052    0.052    0.054    0.054
 calculate_dm_sparse                179 10.0    0.000    0.000    0.054    0.054
 dbcsr_multiply_generic             241 12.0    0.003    0.003    0.048    0.048
 qs_ks_update_qs_env                167  9.0    0.000    0.000    0.043    0.043
 copy_dbcsr_to_fm                   384 10.5    0.001    0.001    0.035    0.035
 dbcsr_complete_redistribute        816 12.2    0.020    0.020    0.033    0.033
 build_tblite_matrices               25  7.0    0.013    0.013    0.028    0.028
 make_m2s                           482 13.0    0.001    0.001    0.026    0.026
 eigensolver                        167 10.0    0.001    0.001    0.026    0.026
 cp_fm_syevd                        191 10.7    0.000    0.000    0.024    0.024
 init_scf_run                        13  6.9    0.000    0.000    0.022    0.022
 qs_diis_b_step                     154 10.0    0.001    0.001    0.021    0.021
 scf_env_initial_rho_setup           13  7.9    0.000    0.000    0.020    0.020
 wfi_extrapolate                     13  8.9    0.000    0.000    0.020    0.020
 cp_fm_syevd_base                   191 11.7    0.018    0.018    0.018    0.018
 copy_fm_to_dbcsr                   432 11.8    0.000    0.000    0.016    0.016
 qs_energies_init_hamiltonians       13  6.9    0.000    0.000    0.015    0.015
 tb_get_multipole                    25  8.0    0.011    0.011    0.014    0.014
 qs_ks_update_qs_env_forces          12  6.0    0.000    0.000    0.013    0.013
 cp_dbcsr_sm_fm_multiply             50 10.4    0.000    0.000    0.013    0.013
 make_images                        482 14.0    0.003    0.003    0.012    0.012
 multiply_cannon                    241 13.0    0.004    0.004    0.011    0.011
 dbcsr_finalize                    4273 12.3    0.002    0.002    0.010    0.010
 dbcsr_desymmetrize_deep            384 11.5    0.005    0.005    0.009    0.009
 cp_dbcsr_sm_fm_multiply_core        50 11.4    0.000    0.000    0.007    0.007
 dbcsr_crop_matrix                  382 13.9    0.001    0.001    0.007    0.007
 dbcsr_create_new                  6178 13.1    0.005    0.005    0.007    0.007
 reorthogonalize_vectors             12  9.9    0.000    0.000    0.006    0.006
 make_basis_lowdin                   12 10.9    0.000    0.000    0.006    0.006
 -------------------------------------------------------------------------------

 The number of warnings for this run is : 0
 
 -------------------------------------------------------------------------------
  **** **** ******  **  PROGRAM ENDED AT                 2026-05-23 22:46:20.770
 ***** ** ***  *** **   PROGRAM RAN ON                                spark-c86c
 **    ****   ******    PROGRAM RAN BY                                  kuehne88
 ***** **    ** ** **   PROGRAM PROCESS ID                               2226090
  **** **  *******  **  PROGRAM STOPPED IN /home/kuehne88/periodic-gfn2-benchmar
                                           ks/X23b/runs/molecule_geoopt/GFN2/14-
                                           cyclohexanedione_GFN2_mol_geoopt
