 DBCSR| CPU Multiplication driver                                           XSMM (U)
 DBCSR| Multrec recursion limit                                              512 (U)
 DBCSR| Multiplication stack size                                           1000 (D)
 DBCSR| Maximum elements for images                                    UNLIMITED (U)
 DBCSR| Multiplicative factor virtual images                                   1 (U)
 DBCSR| Use multiplication densification                                       T (D)
 DBCSR| Multiplication size stacks                                             3 (U)
 DBCSR| Use memory pool for CPU allocation                                     F (U)
 DBCSR| Number of 3D layers                                               SINGLE (U)
 DBCSR| Use MPI memory allocation                                              F (U)
 DBCSR| Use RMA algorithm                                                      F (U)
 DBCSR| Use Communication thread                                               T (U)
 DBCSR| Communication thread load                                             87 (D)
 DBCSR| MPI: My process id                                                     0
 DBCSR| MPI: Number of processes                                               1
 DBCSR| OMP: Current number of threads                                         1
 DBCSR| OMP: Max number of threads                                             1
 DBCSR| Split modifier for TAS multiplication algorithm                  1.0E+00 (U)


  **** **** ******  **  PROGRAM STARTED AT               2026-05-23 22:21:12.727
 ***** ** ***  *** **   PROGRAM STARTED ON                            spark-c86c
 **    ****   ******    PROGRAM STARTED BY                              kuehne88
 ***** **    ** ** **   PROGRAM PROCESS ID                               2189108
  **** **  *******  **  PROGRAM STARTED IN /home/kuehne88/periodic-gfn2-benchmar
                                           ks/DMC-ICE13/runs_kpoints/k444/GFN2/I
                                           I

 CP2K| version string:                 CP2K version 2026.1 (Development Version)
 CP2K| source code revision number:                                   0622d442e4
 CP2K| cp2kflags: omp fftw3 libxc parallel scalapack mpi_f08 xsmm spglib libdftd
 CP2K|            4 dftd4_v3 mctc-lib tblite
 CP2K| is freely available from                            https://www.cp2k.org/
 CP2K| Program compiled at                                   2026-05-23 22:05:08
 CP2K| Program compiled on                                            spark-c86c
 CP2K| Program compiled for                                              aarch64
 CP2K| Data directory path    /home/kuehne88/cp2k-master-tblite-20260523/install
 CP2K| Input file name                                      ice_II_GFN2_k444.inp

 GLOBAL| Force Environment number                                              1
 GLOBAL| Basis set file name                                           BASIS_SET
 GLOBAL| Potential file name                                           POTENTIAL
 GLOBAL| MM Potential file name                                     MM_POTENTIAL
 GLOBAL| Coordinate file name                                      __STD_INPUT__
 GLOBAL| Method name                                                        CP2K
 GLOBAL| Project name                                           ice_II_GFN2_k444
 GLOBAL| Run type                                                         ENERGY
 GLOBAL| FFT library                                                       FFTW3
 GLOBAL| Diagonalization library                                       ScaLAPACK
 GLOBAL| Cholesky decomposition library                                ScaLAPACK
 GLOBAL| DGEMM library                                                      BLAS
 GLOBAL| Direct generalized diagonalization requested                          F
 GLOBAL| Orthonormality check for eigenvectors                          DISABLED
 GLOBAL| Matrix multiplication library                                 ScaLAPACK
 GLOBAL| All-to-all communication in single precision                          F
 GLOBAL| FFTs using library dependent lengths                                  F
 GLOBAL| Grid backend                                                       AUTO
 GLOBAL| Global print level                                                  LOW
 GLOBAL| MPI I/O enabled                                                       T
 GLOBAL| Total number of message passing processes                             1
 GLOBAL| Number of distributed systems (nodes)                                 1
 GLOBAL| Number of threads for this process                                    1
 GLOBAL| This output is from process                                           0
 GLOBAL| OpenMP stack size per thread (OMP_STACKSIZE)                    default
 GLOBAL| CPU model name                                                  UNKNOWN
 GLOBAL| CPUID                                                              2200
 GLOBAL| Compiled for CPUID                                                 2000

 *** HINT in environment.F:970 :: The compiler target flags (arm_arch64)   ***
 *** used to build this binary cannot exploit all extensions of this CPU   ***
 *** model (arm_sve256). Consider compiler target flags as part of FCFLAGS ***
 *** and CFLAGS (ARCH file).                                               ***


 MEMORY| system memory details [Kb]
 MEMORY|                        rank 0           min           max       average
 MEMORY| MemTotal            125508532     125508532     125508532     125508532
 MEMORY| MemFree             104066204     104066204     104066204     104066204
 MEMORY| Buffers                861248        861248        861248        861248
 MEMORY| Cached               11586948      11586948      11586948      11586948
 MEMORY| Slab                  1509968       1509968       1509968       1509968
 MEMORY| SReclaimable           832304        832304        832304        832304
 MEMORY| MemLikelyFree       117346704     117346704     117346704     117346704


 *** WARNING in cell_methods.F:457 :: Cell vectors are read but cell   ***
 *** matrix is not a lower triangle, not conforming to the program     ***
 *** convention that A lies along the X-axis and B is in the XY plane. ***


 GENERATE|  Preliminary Number of Bonds generated:                             0
 GENERATE|  Achieved consistency in connectivity generation.


                  #####   #####        #     #   #     #       #          
                 #     # #     #      #    ##### #     #   # #####  ####  
                 #     # #           #       #   ###   #       #   #    # 
                 #     #  #####     #        #   #  #  #   #   #   ###### 
                 #   # #       #   #         #   #   # #   #   #   #      
                 #    #  #     #  #          #   #  #  # # #   #    #   # 
                  #### #  #####  #           #   ###   ##  #   #     ###  

                                   GFN2-xTB  
                                 Version 0.0                       
                            Johann V. Pototschnig                  



 TOTAL NUMBERS AND MAXIMUM NUMBERS

  Total number of            - Atomic kinds:                                   2
                             - Atoms:                                         36
                             - Shell sets:                                    48
                             - Shells:                                        48
                             - Primitive Cartesian functions:                168
                             - Cartesian basis functions:                     72
                             - Spherical basis functions:                     72

  Maximum angular momentum of the orbital basis functions:                     1


 SCF PARAMETERS         Density guess:                                     MOPAC
                        --------------------------------------------------------
                        max_scf:                                             300
                        max_scf_history:                                       0
                        max_diis:                                              4
                        --------------------------------------------------------
                        eps_scf:                                        1.00E-09
                        eps_scf_history:                                0.00E+00
                        eps_diis:                                       1.00E-01
                        eps_eigval:                                     1.00E-05
                        --------------------------------------------------------
                        level_shift [a.u.]:                             0.000000
                        added MOs                                        24    0
                        --------------------------------------------------------
                        Mixing method:                           DIRECT_P_MIXING
                        --------------------------------------------------------
                        Smear method:                                FERMI_DIRAC
                        Electronic temperature [K]:                        300.0
                        Electronic temperature [a.u.]:                  9.50E-04
                        Accuracy threshold:                             1.00E-06
                        --------------------------------------------------------
                        No outer SCF

 Extrapolation method: initial_guess

 Number of electrons:                                                         96
 Number of occupied orbitals:                                                 48
 Number of molecular orbitals:                                                72

 Number of orbital functions:                                                 72
 Number of independent orbital functions:                                     72


 SCF WAVEFUNCTION OPTIMIZATION

  Step     Update method      Time    Convergence         Total energy    Change
  ------------------------------------------------------------------------------
     1 TBLite/Diag 0.40E+00    0.4     0.73253188       -60.9053207936 -6.09E+01
     2 TBLite/Diag 0.40E+00    0.4     0.06979754       -61.0599683161 -1.55E-01
     3 TBLite/Diag 0.40E+00    0.4     0.09690976       -61.1228810636 -6.29E-02
     4 TBLite/Diag 0.40E+00    0.4     0.06517912       -61.1092896387  1.36E-02
     5 TBLite/Diag 0.40E+00    0.4     0.04328317       -61.1255802254 -1.63E-02
     6 TBLite/Diag 0.40E+00    0.4     0.00074383       -61.1255848297 -4.60E-06
     7 TBLite/Diag 0.40E+00    0.4     0.00083743       -61.1255892462 -4.42E-06
     8 TBLite/Diag 0.40E+00    0.4     0.00012378       -61.1255894397 -1.94E-07
     9 TBLite/Diag 0.40E+00    0.4     0.00007548       -61.1255895071 -6.74E-08
    10 TBLite/Diag 0.40E+00    0.4     0.00001916       -61.1255895100 -2.93E-09
    11 TBLite/Diag 0.40E+00    0.4     0.00000040       -61.1255895100 -8.17E-13
    12 TBLite/Diag 0.40E+00    0.4     0.00000025       -61.1255895100 -8.74E-13
    13 TBLite/Diag 0.40E+00    0.4     0.00000011       -61.1255895100 -3.55E-14
    14 TBLite/Diag 0.40E+00    0.4     0.00000002       -61.1255895100  1.42E-14
    15 TBLite/Diag 0.40E+00    0.4     2.1886E-09       -61.1255895100 -1.42E-14
    16 TBLite/Diag 0.40E+00    0.4     2.0297E-10       -61.1255895100 -1.42E-14

  *** SCF run converged in    16 steps ***


  Core Hamiltonian energy:                                    -61.66009298616425
  Repulsive potential energy:                                   0.30321855266007
  Electrostatic energy:                                         0.27065238324964
  Self-consistent dispersion energy:                           -0.04860821006332
  Non-self consistent dispersion energy:                        0.00924075029551
  Correction for halogen bonding:                               0.00000000000000
  Electronic entropic energy:                                  -0.00000000000000
  Fermi energy:                                                -0.17090747925818

  Total energy:                                               -61.12558951002236
  Total energy (extrapolated to T->0):                        -61.12558951002236

 ENERGY| Total FORCE_EVAL ( QS ) energy [hartree]            -61.125589510022358

 -------------------------------------------------------------------------------
 -                                                                             -
 -                                DBCSR STATISTICS                             -
 -                                                                             -
 -------------------------------------------------------------------------------
 COUNTER                                    TOTAL       BLAS       SMM       ACC
 flops inhomo. stacks                           0       0.0%      0.0%      0.0%
 flops total                         0.000000E+00       0.0%      0.0%      0.0%
 flops max/rank                      0.000000E+00       0.0%      0.0%      0.0%
 matmuls inhomo. stacks                         0       0.0%      0.0%      0.0%
 matmuls total                                  0       0.0%      0.0%      0.0%
 number of processed stacks                     0       0.0%      0.0%      0.0%
 average stack size                                     0.0       0.0       0.0
 marketing flops                     0.000000E+00
 -------------------------------------------------------------------------------
 -                                                                             -
 -                      DBCSR MESSAGE PASSING PERFORMANCE                      -
 -                                                                             -
 -------------------------------------------------------------------------------
 ROUTINE             CALLS      AVE VOLUME [Bytes]
 MP_Bcast                1                     12.
 MP_Allreduce           19                     21.
 MP_Alltoall         86144                  38400.
 -------------------------------------------------------------------------------

 -------------------------------------------------------------------------------
 -                                                                             -
 -                          OFFLOAD MEMPOOL STATISTICS                         -
 -                                                                             -
 -------------------------------------------------------------------------------
 Memory consumption                Number of allocations  Used [MiB]  Size [MiB]
 Device                                                1           0           0
 Host                                                  1           0           0
 -------------------------------------------------------------------------------

 MEMORY| Estimated peak process memory [MiB]                                 284

 -------------------------------------------------------------------------------
 -                                                                             -
 -                         MESSAGE PASSING PERFORMANCE                         -
 -                                                                             -
 -------------------------------------------------------------------------------

 ROUTINE             CALLS      AVE VOLUME [Bytes]
 MP_Group                1
 MP_Bcast            37648                      7.
 MP_Allreduce        25304                    307.
 MP_Sync                 1
 MP_Wait             31360
 MP_ISend            43904                   5930.
 MP_IRecv            43904                   5930.
 -------------------------------------------------------------------------------


 -------------------------------------------------------------------------------
 -                                                                             -
 -                           R E F E R E N C E S                               -
 -                                                                             -
 -------------------------------------------------------------------------------
 
 CP2K version 2026.1 (Development Version), the CP2K developers group (2026).
 CP2K is freely available from https://www.cp2k.org/ .
 
 M. Iannuzzi, J. Wilhelm, F. Stein, A. Bussy, H. Elgabarty, D. Golze, A. Hehn, 
 M. Graml, S. Marek, B. Sertcan Gökmen, C. Schran, H. Forbert, R. Z. 
 Khaliullin, A. Kozhevnikov, M. Taillefumier, R. Meli, V. V. Rybkin, M. Brehm, 
 R. Schade, O. Schütt, J. V. Pototschnig, H. Mirhosseini, A. Knüpfer, D. Marx, 
 M. Krack, J. Hutter, T. D. Kühne.
 J. Phys. Chem. B 130, 1237-1310 (2026).
 The CP2K Program Package Made Simple.
 https://doi.org/10.1021/acs.jpcb.5c05851

 A. Katbashev, M. Stahn, T. Rose, V. Alizadeh, M. Friede, C. Plett, P. 
 Steinbach, S. Ehlert.
 J. Phys. Chem. A 129, 2667-2682 (2025).
 Overview on Building Blocks and Applications of Efficient and Robust Extended 
 Tight Binding.
 https://doi.org/10.1021/acs.jpca.4c08263

 T. D. Kühne, M. Iannuzzi, M. Del Ben, V. V. Rybkin, P. Seewald, F. Stein, T. 
 Laino, R. Z. Khaliullin, O. Schütt, F. Schiffmann, D. Golze, J. Wilhelm, S. 
 Chulkov, M. H. Bani-Hashemian, V. Weber, U. Borstnik, M. Taillefumier, A. S. 
 Jakobovits, A. Lazzaro, H. Pabst, T. Müller, R. Schade, M. Guidon, S. 
 Andermatt, N. Holmberg, G. K. Schenter, A. Hehn, A. Bussy, F. Belleflamme, G. 
 Tabacchi, A. Glöß, M. Lass, I. Bethune, C. J. Mundy, C. Plessl, M. Watkins, 
 J. VandeVondele, M. Krack, J. Hutter.
 J. Chem. Phys. 152, 194103 (2020).
 CP2K: An electronic structure and molecular dynamics software package - 
 Quickstep: Efficient and accurate electronic structure calculations.
 https://doi.org/10.1063/5.0007045

 P. Pracht, E. Caldeweyher, S. Ehlert, S. Grimme.
 ChemRxiv, (2019).
 A Robust Non-Self-Consistent Tight-Binding Quantum Chemistry Method for large 
 Molecules.
 https://doi.org/10.26434/chemrxiv.8326202.v1

 S. Grimme, C. Bannwarth, P. Shushkov.
 J. Chem. Theory Comput. 13, 1989 (2017).
 A Robust and Accurate Tight-Binding Quantum Chemical Method for Structures, 
 Vibrational Frequencies, and Noncovalent Interactions of Large Molecular 
 Systems Parametrized for All spd-Block Elements (Z = 1-86).
 https://doi.org/10.1021/acs.jctc.7b00118

 O. Schuett, P. Messmer, J. Hutter, J. VandeVondele.
 Electronic Structure Calculations on Graphics Processing Units, 173-190 (2016).
 GPU-Accelerated Sparse Matrix-Matrix Multiplication for Linear Scaling Density 
 Functional Theory.
 https://doi.org/10.1002/9781118670712.ch8

 A. Heinecke, G. Henry, M. Hutchinson, H. Pabst.
 Proceedings of Intl. Supercomputing Conference, 981-991 (2016).
 LIBXSMM: Accelerating Small Matrix Multiplications by Runtime Code Generation.
 https://doi.org/10.1109/SC.2016.83

 U. Borstnik, J. VandeVondele, V. Weber, J. Hutter.
 Parallel Comput. 40, 47-58 (2014).
 Sparse matrix multiplication: The distributed block-compressed sparse row 
 library.
 https://doi.org/10.1016/j.parco.2014.03.012

 M. Frigo, S. G. Johnson.
 Proc. IEEE 93, 216-231 (2005).
 The design and implementation of FFTW3.
 https://doi.org/10.1109/JPROC.2004.840301

 N. D. Mermin.
 Phys. Rev. 137, A1441-A1443 (1965).
 Thermal Properties of the Inhomogeneous Electron Gas.
 https://doi.org/10.1103/PhysRev.137.A1441


 -------------------------------------------------------------------------------
 -                                                                             -
 -                                T I M I N G                                  -
 -                                                                             -
 -------------------------------------------------------------------------------
 SUBROUTINE                       CALLS  ASD         SELF TIME        TOTAL TIME
                                MAXIMUM       AVERAGE  MAXIMUM  AVERAGE  MAXIMUM
 CP2K                                 1  1.0    0.007    0.007    8.099    8.099
 qs_energies                          1  2.0    0.000    0.000    8.087    8.087
 scf_env_do_scf                       1  3.0    0.000    0.000    6.979    6.979
 scf_env_do_scf_inner_loop           16  4.0    0.447    0.447    6.979    6.979
 qs_scf_new_mos_kp                   16  5.0    0.000    0.000    5.821    5.821
 do_general_diag_kp                  16  6.0    0.015    0.015    5.821    5.821
 kpoint_density_transform            16  7.0    0.003    0.003    1.646    1.646
 rskp_transform                    2112  6.9    1.626    1.626    1.626    1.626
 dbcsr_complete_redistribute       6272  8.3    0.933    0.933    1.131    1.131
 copy_dbcsr_to_fm                  4224  6.9    0.012    0.012    1.098    1.098
 qs_energies_init_hamiltonians        1  3.0    0.000    0.000    0.987    0.987
 build_tblite_matrices                1  4.0    0.783    0.783    0.976    0.976
 copy_fm_to_dbcsr                  2048  8.0    0.004    0.004    0.789    0.789
 transform_dmat                    1024  8.0    0.759    0.759    0.759    0.759
 cp_cfm_geeig                      1024  7.0    0.002    0.002    0.659    0.659
 dbcsr_desymmetrize_deep           8448  7.4    0.478    0.478    0.645    0.645
 qs_ks_update_qs_env                 16  5.0    0.000    0.000    0.633    0.633
 rebuild_ks_matrix                   16  6.0    0.000    0.000    0.601    0.601
 build_tblite_ks_matrix              16  7.0    0.587    0.587    0.601    0.601
 cp_cfm_heevd                      1024  8.0    0.000    0.000    0.435    0.435
 cp_cfm_heevd_base                 1024  9.0    0.435    0.435    0.435    0.435
 dbcsr_copy                        3936  7.8    0.006    0.006    0.321    0.321
 dbcsr_copy_into_existing          2048 10.0    0.310    0.310    0.313    0.313
 cp_dbcsr_alloc_block_from_nbl     1423  5.8    0.185    0.185    0.219    0.219
 dbcsr_finalize                   18746  8.3    0.012    0.012    0.208    0.208
 qs_diis_b_calc_err_kp              960  7.0    0.012    0.012    0.190    0.190
 tb_get_multipole                     1  5.0    0.010    0.010    0.175    0.175
 parallel_gemm_cfm                 3840  8.0    0.001    0.001    0.173    0.173
 parallel_gemm_cfm_gemm            3840  9.0    0.001    0.001    0.172    0.172
 cp_cfm_gemm                       3840 10.0    0.171    0.171    0.171    0.171
 cp_fm_start_copy_general          6272  7.3    0.129    0.129    0.166    0.166
 -------------------------------------------------------------------------------

 The number of warnings for this run is : 1
 
 -------------------------------------------------------------------------------
  **** **** ******  **  PROGRAM ENDED AT                 2026-05-23 22:21:21.184
 ***** ** ***  *** **   PROGRAM RAN ON                                spark-c86c
 **    ****   ******    PROGRAM RAN BY                                  kuehne88
 ***** **    ** ** **   PROGRAM PROCESS ID                               2189108
  **** **  *******  **  PROGRAM STOPPED IN /home/kuehne88/periodic-gfn2-benchmar
                                           ks/DMC-ICE13/runs_kpoints/k444/GFN2/I
                                           I
