 DBCSR| CPU Multiplication driver                                           XSMM (U)
 DBCSR| Multrec recursion limit                                              512 (U)
 DBCSR| Multiplication stack size                                           1000 (D)
 DBCSR| Maximum elements for images                                    UNLIMITED (U)
 DBCSR| Multiplicative factor virtual images                                   1 (U)
 DBCSR| Use multiplication densification                                       T (D)
 DBCSR| Multiplication size stacks                                             3 (U)
 DBCSR| Use memory pool for CPU allocation                                     F (U)
 DBCSR| Number of 3D layers                                               SINGLE (U)
 DBCSR| Use MPI memory allocation                                              F (U)
 DBCSR| Use RMA algorithm                                                      F (U)
 DBCSR| Use Communication thread                                               T (U)
 DBCSR| Communication thread load                                             87 (D)
 DBCSR| MPI: My process id                                                     0
 DBCSR| MPI: Number of processes                                               1
 DBCSR| OMP: Current number of threads                                         1
 DBCSR| OMP: Max number of threads                                             1
 DBCSR| Split modifier for TAS multiplication algorithm                  1.0E+00 (U)


  **** **** ******  **  PROGRAM STARTED AT               2026-05-23 22:47:44.620
 ***** ** ***  *** **   PROGRAM STARTED ON                            spark-c86c
 **    ****   ******    PROGRAM STARTED BY                              kuehne88
 ***** **    ** ** **   PROGRAM PROCESS ID                               2270618
  **** **  *******  **  PROGRAM STARTED IN /home/kuehne88/periodic-gfn2-benchmar
                                           ks/X23b/runs/cellopt_gamma/GFN2/pyraz
                                           ole_GFN2_gamma_cellopt

 CP2K| version string:                 CP2K version 2026.1 (Development Version)
 CP2K| source code revision number:                                   0622d442e4
 CP2K| cp2kflags: omp fftw3 libxc parallel scalapack mpi_f08 xsmm spglib libdftd
 CP2K|            4 dftd4_v3 mctc-lib tblite
 CP2K| is freely available from                            https://www.cp2k.org/
 CP2K| Program compiled at                                   2026-05-23 22:05:08
 CP2K| Program compiled on                                            spark-c86c
 CP2K| Program compiled for                                              aarch64
 CP2K| Data directory path    /home/kuehne88/cp2k-master-tblite-20260523/install
 CP2K| Input file name                           pyrazole_GFN2_gamma_cellopt.inp

 GLOBAL| Force Environment number                                              1
 GLOBAL| Basis set file name                                           BASIS_SET
 GLOBAL| Potential file name                                           POTENTIAL
 GLOBAL| MM Potential file name                                     MM_POTENTIAL
 GLOBAL| Coordinate file name                                      __STD_INPUT__
 GLOBAL| Method name                                                        CP2K
 GLOBAL| Project name                               pyrazole_GFN2_gamma_cell_opt
 GLOBAL| Run type                                                       CELL_OPT
 GLOBAL| FFT library                                                       FFTW3
 GLOBAL| Diagonalization library                                       ScaLAPACK
 GLOBAL| Cholesky decomposition library                                ScaLAPACK
 GLOBAL| DGEMM library                                                      BLAS
 GLOBAL| Direct generalized diagonalization requested                          F
 GLOBAL| Orthonormality check for eigenvectors                          DISABLED
 GLOBAL| Matrix multiplication library                                 ScaLAPACK
 GLOBAL| All-to-all communication in single precision                          F
 GLOBAL| FFTs using library dependent lengths                                  F
 GLOBAL| Grid backend                                                       AUTO
 GLOBAL| Global print level                                                  LOW
 GLOBAL| MPI I/O enabled                                                       T
 GLOBAL| Total number of message passing processes                             1
 GLOBAL| Number of distributed systems (nodes)                                 1
 GLOBAL| Number of threads for this process                                    1
 GLOBAL| This output is from process                                           0
 GLOBAL| OpenMP stack size per thread (OMP_STACKSIZE)                    default
 GLOBAL| CPU model name                                                  UNKNOWN
 GLOBAL| CPUID                                                              2200
 GLOBAL| Compiled for CPUID                                                 2000

 *** HINT in environment.F:970 :: The compiler target flags (arm_arch64)   ***
 *** used to build this binary cannot exploit all extensions of this CPU   ***
 *** model (arm_sve256). Consider compiler target flags as part of FCFLAGS ***
 *** and CFLAGS (ARCH file).                                               ***


 MEMORY| system memory details [Kb]
 MEMORY|                        rank 0           min           max       average
 MEMORY| MemTotal            125508532     125508532     125508532     125508532
 MEMORY| MemFree             104363736     104363736     104363736     104363736
 MEMORY| Buffers                868292        868292        868292        868292
 MEMORY| Cached               14088320      14088320      14088320      14088320
 MEMORY| Slab                  1597868       1597868       1597868       1597868
 MEMORY| SReclaimable           919864        919864        919864        919864
 MEMORY| MemLikelyFree       120240212     120240212     120240212     120240212


 GENERATE|  Preliminary Number of Bonds generated:                             0
 GENERATE|  Achieved consistency in connectivity generation.


                  #####   #####        #     #   #     #       #          
                 #     # #     #      #    ##### #     #   # #####  ####  
                 #     # #           #       #   ###   #       #   #    # 
                 #     #  #####     #        #   #  #  #   #   #   ###### 
                 #   # #       #   #         #   #   # #   #   #   #      
                 #    #  #     #  #          #   #  #  # # #   #    #   # 
                  #### #  #####  #           #   ###   ##  #   #     ###  

                                   GFN2-xTB  
                                 Version 0.0                       
                            Johann V. Pototschnig                  



 TOTAL NUMBERS AND MAXIMUM NUMBERS

  Total number of            - Atomic kinds:                                   3
                             - Atoms:                                         72
                             - Shell sets:                                   112
                             - Shells:                                       112
                             - Primitive Cartesian functions:                416
                             - Cartesian basis functions:                    192
                             - Spherical basis functions:                    192

  Maximum angular momentum of the orbital basis functions:                     1


 SCF PARAMETERS         Density guess:                                     MOPAC
                        --------------------------------------------------------
                        max_scf:                                             300
                        max_scf_history:                                       0
                        max_diis:                                              4
                        --------------------------------------------------------
                        eps_scf:                                        1.00E-09
                        eps_scf_history:                                0.00E+00
                        eps_diis:                                       1.00E-01
                        eps_eigval:                                     1.00E-05
                        --------------------------------------------------------
                        level_shift [a.u.]:                             0.000000
                        added MOs                                        88    0
                        --------------------------------------------------------
                        Mixing method:                           DIRECT_P_MIXING
                        --------------------------------------------------------
                        Smear method:                                FERMI_DIRAC
                        Electronic temperature [K]:                        300.0
                        Electronic temperature [a.u.]:                  9.50E-04
                        Accuracy threshold:                             1.00E-06
                        --------------------------------------------------------
                        No outer SCF

 CELL_OPT| Pressure tolerance [bar]:                                       100.0
 CELL_OPT| Keep volume of cell:                                               NO
 CELL_OPT| Keep angles between the cell vectors:                              NO
 CELL_OPT| Keep cell symmetry:                                                NO
 CELL_OPT| Constraint:                                                      NONE

 BFGS| Use rational function optimization for step estimation:                NO
 BFGS| Use model Hessian for initial guess:                                   NO
 BFGS| Restart Hessian:                                                       NO
 BFGS| Trust radius:                                                       0.472

 *******************************************************************************
 ***                     STARTING   CELL   OPTIMIZATION                      ***
 ***                                   BFGS                                  ***
 *******************************************************************************

 CELL| Volume [angstrom^3]:                                           698.267312
 CELL| Vector a [angstrom]:       8.190     0.000     0.000   |a| =     8.190000
 CELL| Vector b [angstrom]:       0.000    12.588     0.000   |b| =    12.588000
 CELL| Vector c [angstrom]:       0.000     0.000     6.773   |c| =     6.773000
 CELL| Angle (b,c), alpha [degree]:                                    90.000000
 CELL| Angle (a,c), beta  [degree]:                                    90.000000
 CELL| Angle (a,b), gamma [degree]:                                    90.000000
 CELL| Numerically orthorhombic:                                             YES
 CELL| Periodicity                                                           XYZ

 Extrapolation method: initial_guess

 Number of electrons:                                                        208
 Number of occupied orbitals:                                                104
 Number of molecular orbitals:                                               192

 Number of orbital functions:                                                192
 Number of independent orbital functions:                                    192


 SCF WAVEFUNCTION OPTIMIZATION

  Step     Update method      Time    Convergence         Total energy    Change
  ------------------------------------------------------------------------------
     1 TBLite/Diag 0.40E+00    0.0     1.13757343      -113.6129769487 -1.14E+02
     2 TBLite/Diag 0.40E+00    0.0     0.19546754      -113.8726412797 -2.60E-01
     3 TBLite/Diag 0.40E+00    0.0     0.10851979      -113.8599260371  1.27E-02
     4 TBLite/Diag 0.40E+00    0.0     0.06976245      -113.9165577677 -5.66E-02
     5 TBLite/Diag 0.40E+00    0.0     0.01495454      -113.9204677548 -3.91E-03
     6 TBLite/Diag 0.40E+00    0.0     0.00307482      -113.9205563696 -8.86E-05
     7 TBLite/Diag 0.40E+00    0.0     0.00161449      -113.9205701751 -1.38E-05
     8 TBLite/Diag 0.40E+00    0.0     0.00056237      -113.9205719312 -1.76E-06
     9 TBLite/Diag 0.40E+00    0.0     0.00028536      -113.9205725699 -6.39E-07
    10 TBLite/Diag 0.40E+00    0.0     0.00008240      -113.9205726134 -4.35E-08
    11 TBLite/Diag 0.40E+00    0.0     0.00002023      -113.9205726178 -4.35E-09
    12 TBLite/Diag 0.40E+00    0.0     0.00000584      -113.9205726184 -6.53E-10
    13 TBLite/Diag 0.40E+00    0.0     0.00000452      -113.9205726184  1.77E-11
    14 TBLite/Diag 0.40E+00    0.0     0.00000286      -113.9205726185 -7.82E-11
    15 TBLite/Diag 0.40E+00    0.0     0.00000050      -113.9205726185 -5.06E-12
    16 TBLite/Diag 0.40E+00    0.0     0.00000009      -113.9205726185 -8.24E-13
    17 TBLite/Diag 0.40E+00    0.0     0.00000003      -113.9205726185  9.95E-14
    18 TBLite/Diag 0.40E+00    0.0     0.00000003      -113.9205726185  2.84E-13
    19 TBLite/Diag 0.40E+00    0.0     7.9517E-09      -113.9205726185 -2.27E-13
    20 TBLite/Diag 0.40E+00    0.0     1.7628E-09      -113.9205726185  0.00E+00
    21 TBLite/Diag 0.40E+00    0.0     7.4375E-10      -113.9205726185  1.14E-13

  *** SCF run converged in    21 steps ***


  Core Hamiltonian energy:                                   -116.54057298187489
  Repulsive potential energy:                                   2.63173758001851
  Electrostatic energy:                                         0.13790701757073
  Self-consistent dispersion energy:                           -0.18787455739561
  Non-self consistent dispersion energy:                        0.03823032321105
  Correction for halogen bonding:                               0.00000000000000
  Electronic entropic energy:                                  -0.00000000000000
  Fermi energy:                                                -0.26523825825861

  Total energy:                                              -113.92057261847019
  Total energy (extrapolated to T->0):                       -113.92057261847019

 ENERGY| Total FORCE_EVAL ( QS ) energy [hartree]           -113.920572618470189

 OPT| **************************************************************************
 OPT| Step number                                                              0
 OPT| Optimization method                                                   BFGS
 OPT| Total energy [hartree]                                     -113.9205726185
 OPT| Internal pressure [bar]                                  159644.2185412834
 OPT| Used time [s]                                                        4.609
 OPT| **************************************************************************
 OPT| Estimated peak process memory [MiB]                                    178

 --------------------------
 OPTIMIZATION STEP:      1
 --------------------------

 CELL| Volume [angstrom^3]:                                           718.991421
 CELL| Vector a [angstrom]:       8.312     0.000     0.000   |a| =     8.311801
 CELL| Vector b [angstrom]:      -0.000    12.642     0.000   |b| =    12.642023
 CELL| Vector c [angstrom]:      -0.000     0.000     6.842   |c| =     6.842455
 CELL| Angle (b,c), alpha [degree]:                                    90.000000
 CELL| Angle (a,c), beta  [degree]:                                    90.000000
 CELL| Angle (a,b), gamma [degree]:                                    90.000000
 CELL| Numerically orthorhombic:                                              NO
 CELL| Periodicity                                                           XYZ

 Extrapolation method: ASPC

 Number of electrons:                                                        208
 Number of occupied orbitals:                                                104
 Number of molecular orbitals:                                               192

 Number of orbital functions:                                                192
 Number of independent orbital functions:                                    192


 SCF WAVEFUNCTION OPTIMIZATION

  Step     Update method      Time    Convergence         Total energy    Change
  ------------------------------------------------------------------------------
     1 TBLite/Diag 0.40E+00    0.0     0.17498353      -114.2038182179 -1.14E+02
     2 TBLite/Diag 0.40E+00    0.0     0.01651311      -114.2073509500 -3.53E-03
     3 TBLite/Diag 0.40E+00    0.0     0.01153691      -114.2070884820  2.62E-04
     4 TBLite/Diag 0.40E+00    0.0     0.00784819      -114.2080161642 -9.28E-04
     5 TBLite/Diag 0.40E+00    0.0     0.00181074      -114.2080455645 -2.94E-05
     6 TBLite/Diag 0.40E+00    0.0     0.00072590      -114.2080513522 -5.79E-06
     7 TBLite/Diag 0.40E+00    0.0     0.00020347      -114.2080516290 -2.77E-07
     8 TBLite/Diag 0.40E+00    0.0     0.00006734      -114.2080516814 -5.24E-08
     9 TBLite/Diag 0.40E+00    0.0     0.00001753      -114.2080516834 -1.96E-09
    10 TBLite/Diag 0.40E+00    0.0     0.00000688      -114.2080516843 -9.59E-10
    11 TBLite/Diag 0.40E+00    0.0     0.00000196      -114.2080516844 -2.62E-11
    12 TBLite/Diag 0.40E+00    0.0     0.00000073      -114.2080516844 -7.29E-12
    13 TBLite/Diag 0.40E+00    0.0     0.00000017      -114.2080516844 -3.55E-13
    14 TBLite/Diag 0.40E+00    0.0     0.00000005      -114.2080516844  4.12E-13
    15 TBLite/Diag 0.40E+00    0.0     0.00000002      -114.2080516844 -1.42E-13
    16 TBLite/Diag 0.40E+00    0.0     4.2279E-09      -114.2080516844 -2.56E-13
    17 TBLite/Diag 0.40E+00    0.0     1.7359E-09      -114.2080516844 -4.26E-14
    18 TBLite/Diag 0.40E+00    0.0     6.0326E-10      -114.2080516844  9.95E-14

  *** SCF run converged in    18 steps ***


  Core Hamiltonian energy:                                   -116.22468628814676
  Repulsive potential energy:                                   1.99942716936019
  Electrostatic energy:                                         0.16023837629431
  Self-consistent dispersion energy:                           -0.17717079221709
  Non-self consistent dispersion energy:                        0.03413985034787
  Correction for halogen bonding:                               0.00000000000000
  Electronic entropic energy:                                  -0.00000000000000
  Fermi energy:                                                -0.25555755778886

  Total energy:                                              -114.20805168436149
  Total energy (extrapolated to T->0):                       -114.20805168436149

 ENERGY| Total FORCE_EVAL ( QS ) energy [hartree]           -114.208051684361493

 OPT| **************************************************************************
 OPT| Step number                                                              1
 OPT| Optimization method                                                   BFGS
 OPT| Total energy [hartree]                                     -114.2080516844
 OPT| Internal pressure [bar]                                   93916.8528383029
 OPT| Effective energy change [hartree]                            -0.2874790659
 OPT| Predicted energy change [hartree]                            -0.6463885466
 OPT| Scaling factor                                                0.0000000000
 OPT| Step size                                                     0.2301711641
 OPT| Trust radius                                                  0.4724315332
 OPT| Decrease in energy                                                     YES
 OPT| Used time [s]                                                        4.397
 OPT|
 OPT| Maximum step size                                             0.2301711641
 OPT| Convergence limit for maximum step size                       0.0030000000
 OPT| Maximum step size is converged                                          NO
 OPT|
 OPT| RMS step size                                                 0.0763106823
 OPT| Convergence limit for RMS step size                           0.0015000000
 OPT| RMS step size is converged                                              NO
 OPT|
 OPT| Maximum gradient                                              0.1288052810
 OPT| Convergence limit for maximum gradient                        0.0004500000
 OPT| Maximum gradient is converged                                           NO
 OPT|
 OPT| RMS gradient                                                  0.0429600589
 OPT| Convergence limit for RMS gradient                            0.0003000000
 OPT| RMS gradient is converged                                               NO
 OPT|
 OPT| Pressure deviation [bar]                                  93916.8528383029
 OPT| Pressure tolerance [bar]                                    100.0000000000
 OPT| Pressure is converged                                                   NO
 OPT| **************************************************************************
 OPT| Estimated peak process memory after this step [MiB]                    181

 --------------------------
 OPTIMIZATION STEP:      2
 --------------------------

 CELL| Volume [angstrom^3]:                                           730.872832
 CELL| Vector a [angstrom]:       8.377     0.000     0.000   |a| =     8.377011
 CELL| Vector b [angstrom]:      -0.000    12.674     0.000   |b| =    12.673620
 CELL| Vector c [angstrom]:      -0.000     0.000     6.884   |c| =     6.884177
 CELL| Angle (b,c), alpha [degree]:                                    90.000000
 CELL| Angle (a,c), beta  [degree]:                                    90.000000
 CELL| Angle (a,b), gamma [degree]:                                    90.000000
 CELL| Numerically orthorhombic:                                              NO
 CELL| Periodicity                                                           XYZ

 Extrapolation method: ASPC

 Number of electrons:                                                        208
 Number of occupied orbitals:                                                104
 Number of molecular orbitals:                                               192

 Number of orbital functions:                                                192
 Number of independent orbital functions:                                    192


 SCF WAVEFUNCTION OPTIMIZATION

  Step     Update method      Time    Convergence         Total energy    Change
  ------------------------------------------------------------------------------
     1 TBLite/Diag 0.40E+00    0.0     0.06804424      -114.3635005816 -1.14E+02
     2 TBLite/Diag 0.40E+00    0.0     0.01286567      -114.3647781215 -1.28E-03
     3 TBLite/Diag 0.40E+00    0.0     0.00902386      -114.3646963252  8.18E-05
     4 TBLite/Diag 0.40E+00    0.0     0.00676300      -114.3650764411 -3.80E-04
     5 TBLite/Diag 0.40E+00    0.0     0.00089682      -114.3650906234 -1.42E-05
     6 TBLite/Diag 0.40E+00    0.0     0.00039508      -114.3650910055 -3.82E-07
     7 TBLite/Diag 0.40E+00    0.0     0.00023855      -114.3650916294 -6.24E-07
     8 TBLite/Diag 0.40E+00    0.0     0.00004091      -114.3650916609 -3.15E-08
     9 TBLite/Diag 0.40E+00    0.0     0.00001061      -114.3650916610 -1.33E-10
    10 TBLite/Diag 0.40E+00    0.0     0.00000672      -114.3650916616 -5.61E-10
    11 TBLite/Diag 0.40E+00    0.0     0.00000152      -114.3650916616 -1.46E-11
    12 TBLite/Diag 0.40E+00    0.0     0.00000056      -114.3650916616 -3.01E-12
    13 TBLite/Diag 0.40E+00    0.0     0.00000018      -114.3650916616 -7.82E-13
    14 TBLite/Diag 0.40E+00    0.0     0.00000004      -114.3650916616  5.97E-13
    15 TBLite/Diag 0.40E+00    0.0     8.8583E-09      -114.3650916616 -3.41E-13
    16 TBLite/Diag 0.40E+00    0.0     1.5788E-09      -114.3650916616  2.56E-13
    17 TBLite/Diag 0.40E+00    0.0     1.0011E-09      -114.3650916616 -1.71E-13
    18 TBLite/Diag 0.40E+00    0.0     5.0681E-10      -114.3650916616  0.00E+00

  *** SCF run converged in    18 steps ***


  Core Hamiltonian energy:                                   -116.10653576699701
  Repulsive potential energy:                                   1.72856329756655
  Electrostatic energy:                                         0.15757505037259
  Self-consistent dispersion energy:                           -0.17938772984749
  Non-self consistent dispersion energy:                        0.03469348733051
  Correction for halogen bonding:                               0.00000000000000
  Electronic entropic energy:                                  -0.00000000000000
  Fermi energy:                                                -0.26299824151286

  Total energy:                                              -114.36509166157485
  Total energy (extrapolated to T->0):                       -114.36509166157485

 ENERGY| Total FORCE_EVAL ( QS ) energy [hartree]           -114.365091661574851

 OPT| **************************************************************************
 OPT| Step number                                                              2
 OPT| Optimization method                                                   BFGS
 OPT| Total energy [hartree]                                     -114.3650916616
 OPT| Internal pressure [bar]                                   15187.9188179771
 OPT| Effective energy change [hartree]                            -0.1570399772
 OPT| Predicted energy change [hartree]                            -0.1286908310
 OPT| Scaling factor                                                0.0000000000
 OPT| Step size                                                     0.1232285923
 OPT| Trust radius                                                  0.4724315332
 OPT| Decrease in energy                                                     YES
 OPT| Used time [s]                                                        4.395
 OPT|
 OPT| Maximum step size                                             0.1232285923
 OPT| Convergence limit for maximum step size                       0.0030000000
 OPT| Maximum step size is converged                                          NO
 OPT|
 OPT| RMS step size                                                 0.0279092942
 OPT| Convergence limit for RMS step size                           0.0015000000
 OPT| RMS step size is converged                                              NO
 OPT|
 OPT| Maximum gradient                                              0.0373563723
 OPT| Convergence limit for maximum gradient                        0.0004500000
 OPT| Maximum gradient is converged                                           NO
 OPT|
 OPT| RMS gradient                                                  0.0119494025
 OPT| Convergence limit for RMS gradient                            0.0003000000
 OPT| RMS gradient is converged                                               NO
 OPT|
 OPT| Pressure deviation [bar]                                  15187.9188179771
 OPT| Pressure tolerance [bar]                                    100.0000000000
 OPT| Pressure is converged                                                   NO
 OPT| **************************************************************************
 OPT| Estimated peak process memory after this step [MiB]                    182

 --------------------------
 OPTIMIZATION STEP:      3
 --------------------------

 CELL| Volume [angstrom^3]:                                           733.863481
 CELL| Vector a [angstrom]:       8.383     0.000     0.000   |a| =     8.383129
 CELL| Vector b [angstrom]:      -0.000    12.686     0.000   |b| =    12.686335
 CELL| Vector c [angstrom]:      -0.000     0.000     6.900   |c| =     6.900379
 CELL| Angle (b,c), alpha [degree]:                                    90.000000
 CELL| Angle (a,c), beta  [degree]:                                    90.000001
 CELL| Angle (a,b), gamma [degree]:                                    90.000000
 CELL| Numerically orthorhombic:                                              NO
 CELL| Periodicity                                                           XYZ

 Extrapolation method: ASPC

 Number of electrons:                                                        208
 Number of occupied orbitals:                                                104
 Number of molecular orbitals:                                               192

 Number of orbital functions:                                                192
 Number of independent orbital functions:                                    192


 SCF WAVEFUNCTION OPTIMIZATION

  Step     Update method      Time    Convergence         Total energy    Change
  ------------------------------------------------------------------------------
     1 TBLite/Diag 0.40E+00    0.0     0.02948956      -114.3853092826 -1.14E+02
     2 TBLite/Diag 0.40E+00    0.0     0.00555360      -114.3855532222 -2.44E-04
     3 TBLite/Diag 0.40E+00    0.0     0.00526829      -114.3855034339  4.98E-05
     4 TBLite/Diag 0.40E+00    0.0     0.00319423      -114.3856417998 -1.38E-04
     5 TBLite/Diag 0.40E+00    0.0     0.00058285      -114.3856426554 -8.56E-07
     6 TBLite/Diag 0.40E+00    0.0     0.00027321      -114.3856433300 -6.75E-07
     7 TBLite/Diag 0.40E+00    0.0     0.00002719      -114.3856433388 -8.80E-09
     8 TBLite/Diag 0.40E+00    0.0     0.00001811      -114.3856433403 -1.49E-09
     9 TBLite/Diag 0.40E+00    0.0     0.00000968      -114.3856433412 -9.07E-10
    10 TBLite/Diag 0.40E+00    0.0     0.00000224      -114.3856433413 -7.65E-11
    11 TBLite/Diag 0.40E+00    0.0     0.00000081      -114.3856433413 -3.07E-12
    12 TBLite/Diag 0.40E+00    0.0     0.00000033      -114.3856433413 -1.56E-13
    13 TBLite/Diag 0.40E+00    0.0     0.00000008      -114.3856433413 -2.13E-13
    14 TBLite/Diag 0.40E+00    0.0     0.00000002      -114.3856433413  1.14E-13
    15 TBLite/Diag 0.40E+00    0.0     7.0804E-09      -114.3856433413 -2.70E-13
    16 TBLite/Diag 0.40E+00    0.0     1.9464E-09      -114.3856433413  2.42E-13
    17 TBLite/Diag 0.40E+00    0.0     3.7119E-10      -114.3856433413  1.42E-14

  *** SCF run converged in    17 steps ***


  Core Hamiltonian energy:                                   -116.09963484193270
  Repulsive potential energy:                                   1.70118702058331
  Electrostatic energy:                                         0.15746187987207
  Self-consistent dispersion energy:                           -0.17929544355512
  Non-self consistent dispersion energy:                        0.03463804372678
  Correction for halogen bonding:                               0.00000000000000
  Electronic entropic energy:                                  -0.00000000000000
  Fermi energy:                                                -0.26411305888406

  Total energy:                                              -114.38564334130567
  Total energy (extrapolated to T->0):                       -114.38564334130567

 ENERGY| Total FORCE_EVAL ( QS ) energy [hartree]           -114.385643341305666

 OPT| **************************************************************************
 OPT| Step number                                                              3
 OPT| Optimization method                                                   BFGS
 OPT| Total energy [hartree]                                     -114.3856433413
 OPT| Internal pressure [bar]                                    1319.4230546313
 OPT| Effective energy change [hartree]                            -0.0205516797
 OPT| Predicted energy change [hartree]                            -0.0171988034
 OPT| Scaling factor                                                0.0000000000
 OPT| Step size                                                     0.0387768698
 OPT| Trust radius                                                  0.4724315332
 OPT| Decrease in energy                                                     YES
 OPT| Used time [s]                                                        4.327
 OPT|
 OPT| Maximum step size                                             0.0387768698
 OPT| Convergence limit for maximum step size                       0.0030000000
 OPT| Maximum step size is converged                                          NO
 OPT|
 OPT| RMS step size                                                 0.0132405372
 OPT| Convergence limit for RMS step size                           0.0015000000
 OPT| RMS step size is converged                                              NO
 OPT|
 OPT| Maximum gradient                                              0.0112027721
 OPT| Convergence limit for maximum gradient                        0.0004500000
 OPT| Maximum gradient is converged                                           NO
 OPT|
 OPT| RMS gradient                                                  0.0043233274
 OPT| Convergence limit for RMS gradient                            0.0003000000
 OPT| RMS gradient is converged                                               NO
 OPT|
 OPT| Pressure deviation [bar]                                   1319.4230546313
 OPT| Pressure tolerance [bar]                                    100.0000000000
 OPT| Pressure is converged                                                   NO
 OPT| **************************************************************************
 OPT| Estimated peak process memory after this step [MiB]                    182

 --------------------------
 OPTIMIZATION STEP:      4
 --------------------------

 CELL| Volume [angstrom^3]:                                           735.002550
 CELL| Vector a [angstrom]:       8.383     0.000     0.000   |a| =     8.382707
 CELL| Vector b [angstrom]:       0.000    12.693     0.000   |b| =    12.692881
 CELL| Vector c [angstrom]:      -0.000     0.000     6.908   |c| =     6.907873
 CELL| Angle (b,c), alpha [degree]:                                    90.000000
 CELL| Angle (a,c), beta  [degree]:                                    90.000000
 CELL| Angle (a,b), gamma [degree]:                                    90.000000
 CELL| Numerically orthorhombic:                                              NO
 CELL| Periodicity                                                           XYZ

 Extrapolation method: ASPC

 Number of electrons:                                                        208
 Number of occupied orbitals:                                                104
 Number of molecular orbitals:                                               192

 Number of orbital functions:                                                192
 Number of independent orbital functions:                                    192


 SCF WAVEFUNCTION OPTIMIZATION

  Step     Update method      Time    Convergence         Total energy    Change
  ------------------------------------------------------------------------------
     1 TBLite/Diag 0.40E+00    0.0     0.00948772      -114.3903082256 -1.14E+02
     2 TBLite/Diag 0.40E+00    0.0     0.00248903      -114.3903479152 -3.97E-05
     3 TBLite/Diag 0.40E+00    0.0     0.00131618      -114.3903464561  1.46E-06
     4 TBLite/Diag 0.40E+00    0.0     0.00105756      -114.3903538928 -7.44E-06
     5 TBLite/Diag 0.40E+00    0.0     0.00025359      -114.3903545006 -6.08E-07
     6 TBLite/Diag 0.40E+00    0.0     0.00010344      -114.3903545046 -4.01E-09
     7 TBLite/Diag 0.40E+00    0.0     0.00005057      -114.3903545255 -2.09E-08
     8 TBLite/Diag 0.40E+00    0.0     0.00000654      -114.3903545257 -1.28E-10
     9 TBLite/Diag 0.40E+00    0.0     0.00000385      -114.3903545258 -1.31E-10
    10 TBLite/Diag 0.40E+00    0.0     0.00000083      -114.3903545258 -4.76E-12
    11 TBLite/Diag 0.40E+00    0.0     0.00000034      -114.3903545258 -1.38E-12
    12 TBLite/Diag 0.40E+00    0.0     0.00000006      -114.3903545258  3.98E-13
    13 TBLite/Diag 0.40E+00    0.0     0.00000003      -114.3903545258  2.56E-13
    14 TBLite/Diag 0.40E+00    0.0     8.1189E-09      -114.3903545258 -2.70E-13
    15 TBLite/Diag 0.40E+00    0.0     2.7443E-09      -114.3903545258 -4.26E-14
    16 TBLite/Diag 0.40E+00    0.0     1.2387E-09      -114.3903545258  1.14E-13
    17 TBLite/Diag 0.40E+00    0.0     7.3172E-10      -114.3903545258  1.85E-13

  *** SCF run converged in    17 steps ***


  Core Hamiltonian energy:                                   -116.09101043692196
  Repulsive potential energy:                                   1.68709215312883
  Electrostatic energy:                                         0.15810873015462
  Self-consistent dispersion energy:                           -0.17910344936928
  Non-self consistent dispersion energy:                        0.03455847720638
  Correction for halogen bonding:                               0.00000000000000
  Electronic entropic energy:                                  -0.00000000000000
  Fermi energy:                                                -0.26329312233801

  Total energy:                                              -114.39035452580141
  Total energy (extrapolated to T->0):                       -114.39035452580141

 ENERGY| Total FORCE_EVAL ( QS ) energy [hartree]           -114.390354525801413

 OPT| **************************************************************************
 OPT| Step number                                                              4
 OPT| Optimization method                                                   BFGS
 OPT| Total energy [hartree]                                     -114.3903545258
 OPT| Internal pressure [bar]                                   -2771.1455366192
 OPT| Effective energy change [hartree]                            -0.0047111845
 OPT| Predicted energy change [hartree]                            -0.0030233975
 OPT| Scaling factor                                                0.0000000000
 OPT| Step size                                                     0.0157111801
 OPT| Trust radius                                                  0.4724315332
 OPT| Decrease in energy                                                     YES
 OPT| Used time [s]                                                        4.329
 OPT|
 OPT| Maximum step size                                             0.0157111801
 OPT| Convergence limit for maximum step size                       0.0030000000
 OPT| Maximum step size is converged                                          NO
 OPT|
 OPT| RMS step size                                                 0.0068080815
 OPT| Convergence limit for RMS step size                           0.0015000000
 OPT| RMS step size is converged                                              NO
 OPT|
 OPT| Maximum gradient                                              0.0092761339
 OPT| Convergence limit for maximum gradient                        0.0004500000
 OPT| Maximum gradient is converged                                           NO
 OPT|
 OPT| RMS gradient                                                  0.0034965267
 OPT| Convergence limit for RMS gradient                            0.0003000000
 OPT| RMS gradient is converged                                               NO
 OPT|
 OPT| Pressure deviation [bar]                                  -2771.1455366192
 OPT| Pressure tolerance [bar]                                    100.0000000000
 OPT| Pressure is converged                                                   NO
 OPT| **************************************************************************
 OPT| Estimated peak process memory after this step [MiB]                    183

 --------------------------
 OPTIMIZATION STEP:      5
 --------------------------

 CELL| Volume [angstrom^3]:                                           735.871901
 CELL| Vector a [angstrom]:       8.378     0.000     0.000   |a| =     8.378065
 CELL| Vector b [angstrom]:       0.000    12.701     0.000   |b| =    12.700673
 CELL| Vector c [angstrom]:       0.000     0.000     6.916   |c| =     6.915630
 CELL| Angle (b,c), alpha [degree]:                                    90.000000
 CELL| Angle (a,c), beta  [degree]:                                    90.000000
 CELL| Angle (a,b), gamma [degree]:                                    90.000000
 CELL| Numerically orthorhombic:                                              NO
 CELL| Periodicity                                                           XYZ

 Extrapolation method: ASPC

 Number of electrons:                                                        208
 Number of occupied orbitals:                                                104
 Number of molecular orbitals:                                               192

 Number of orbital functions:                                                192
 Number of independent orbital functions:                                    192


 SCF WAVEFUNCTION OPTIMIZATION

  Step     Update method      Time    Convergence         Total energy    Change
  ------------------------------------------------------------------------------
     1 TBLite/Diag 0.40E+00    0.0     0.01445908      -114.3949436499 -1.14E+02
     2 TBLite/Diag 0.40E+00    0.0     0.00202484      -114.3949824299 -3.88E-05
     3 TBLite/Diag 0.40E+00    0.0     0.00073256      -114.3949850485 -2.62E-06
     4 TBLite/Diag 0.40E+00    0.0     0.00060663      -114.3949871690 -2.12E-06
     5 TBLite/Diag 0.40E+00    0.0     0.00027061      -114.3949876326 -4.64E-07
     6 TBLite/Diag 0.40E+00    0.0     0.00009085      -114.3949876610 -2.84E-08
     7 TBLite/Diag 0.40E+00    0.0     0.00004611      -114.3949876736 -1.26E-08
     8 TBLite/Diag 0.40E+00    0.0     0.00000635      -114.3949876739 -2.89E-10
     9 TBLite/Diag 0.40E+00    0.0     0.00000261      -114.3949876739 -1.04E-11
    10 TBLite/Diag 0.40E+00    0.0     0.00000131      -114.3949876739 -1.74E-11
    11 TBLite/Diag 0.40E+00    0.0     0.00000023      -114.3949876739 -5.68E-14
    12 TBLite/Diag 0.40E+00    0.0     0.00000013      -114.3949876739  4.26E-14
    13 TBLite/Diag 0.40E+00    0.0     0.00000005      -114.3949876739  0.00E+00
    14 TBLite/Diag 0.40E+00    0.0     7.6781E-09      -114.3949876739  1.42E-14
    15 TBLite/Diag 0.40E+00    0.0     1.0838E-09      -114.3949876739  1.85E-13
    16 TBLite/Diag 0.40E+00    0.0     1.2006E-09      -114.3949876739  9.95E-14
    17 TBLite/Diag 0.40E+00    0.0     4.1437E-10      -114.3949876739 -1.71E-13

  *** SCF run converged in    17 steps ***


  Core Hamiltonian energy:                                   -116.07951383889588
  Repulsive potential energy:                                   1.67028324270987
  Electrostatic energy:                                         0.15872467534967
  Self-consistent dispersion energy:                           -0.17897340014350
  Non-self consistent dispersion energy:                        0.03449164707186
  Correction for halogen bonding:                               0.00000000000000
  Electronic entropic energy:                                  -0.00000000000000
  Fermi energy:                                                -0.26259770162974

  Total energy:                                              -114.39498767390798
  Total energy (extrapolated to T->0):                       -114.39498767390798

 ENERGY| Total FORCE_EVAL ( QS ) energy [hartree]           -114.394987673907977

 OPT| **************************************************************************
 OPT| Step number                                                              5
 OPT| Optimization method                                                   BFGS
 OPT| Total energy [hartree]                                     -114.3949876739
 OPT| Internal pressure [bar]                                   -6882.5719507850
 OPT| Effective energy change [hartree]                            -0.0046331481
 OPT| Predicted energy change [hartree]                            -0.0033690907
 OPT| Scaling factor                                                0.0000000000
 OPT| Step size                                                     0.0298838755
 OPT| Trust radius                                                  0.4724315332
 OPT| Decrease in energy                                                     YES
 OPT| Used time [s]                                                        4.347
 OPT|
 OPT| Maximum step size                                             0.0298838755
 OPT| Convergence limit for maximum step size                       0.0030000000
 OPT| Maximum step size is converged                                          NO
 OPT|
 OPT| RMS step size                                                 0.0108575523
 OPT| Convergence limit for RMS step size                           0.0015000000
 OPT| RMS step size is converged                                              NO
 OPT|
 OPT| Maximum gradient                                              0.0110131533
 OPT| Convergence limit for maximum gradient                        0.0004500000
 OPT| Maximum gradient is converged                                           NO
 OPT|
 OPT| RMS gradient                                                  0.0028350303
 OPT| Convergence limit for RMS gradient                            0.0003000000
 OPT| RMS gradient is converged                                               NO
 OPT|
 OPT| Pressure deviation [bar]                                  -6882.5719507850
 OPT| Pressure tolerance [bar]                                    100.0000000000
 OPT| Pressure is converged                                                   NO
 OPT| **************************************************************************
 OPT| Estimated peak process memory after this step [MiB]                    183

 --------------------------
 OPTIMIZATION STEP:      6
 --------------------------

 CELL| Volume [angstrom^3]:                                           735.172986
 CELL| Vector a [angstrom]:       8.368     0.000     0.000   |a| =     8.368121
 CELL| Vector b [angstrom]:       0.000    12.703     0.000   |b| =    12.702747
 CELL| Vector c [angstrom]:       0.000    -0.000     6.916   |c| =     6.916143
 CELL| Angle (b,c), alpha [degree]:                                    90.000000
 CELL| Angle (a,c), beta  [degree]:                                    89.999999
 CELL| Angle (a,b), gamma [degree]:                                    90.000000
 CELL| Numerically orthorhombic:                                              NO
 CELL| Periodicity                                                           XYZ

 Extrapolation method: ASPC

 Number of electrons:                                                        208
 Number of occupied orbitals:                                                104
 Number of molecular orbitals:                                               192

 Number of orbital functions:                                                192
 Number of independent orbital functions:                                    192


 SCF WAVEFUNCTION OPTIMIZATION

  Step     Update method      Time    Convergence         Total energy    Change
  ------------------------------------------------------------------------------
     1 TBLite/Diag 0.40E+00    0.0     0.01213092      -114.3973119793 -1.14E+02
     2 TBLite/Diag 0.40E+00    0.0     0.00145163      -114.3973247451 -1.28E-05
     3 TBLite/Diag 0.40E+00    0.0     0.00110616      -114.3973202066  4.54E-06
     4 TBLite/Diag 0.40E+00    0.0     0.00070890      -114.3973289747 -8.77E-06
     5 TBLite/Diag 0.40E+00    0.0     0.00010304      -114.3973290264 -5.17E-08
     6 TBLite/Diag 0.40E+00    0.0     0.00005365      -114.3973290493 -2.29E-08
     7 TBLite/Diag 0.40E+00    0.0     0.00001213      -114.3973290507 -1.37E-09
     8 TBLite/Diag 0.40E+00    0.0     0.00000407      -114.3973290508 -8.89E-11
     9 TBLite/Diag 0.40E+00    0.0     0.00000164      -114.3973290508 -5.75E-11
    10 TBLite/Diag 0.40E+00    0.0     0.00000029      -114.3973290508 -5.26E-13
    11 TBLite/Diag 0.40E+00    0.0     0.00000016      -114.3973290508  1.28E-13
    12 TBLite/Diag 0.40E+00    0.0     0.00000005      -114.3973290508 -4.41E-13
    13 TBLite/Diag 0.40E+00    0.0     0.00000002      -114.3973290508 -1.42E-13
    14 TBLite/Diag 0.40E+00    0.0     6.0250E-09      -114.3973290508  1.28E-13
    15 TBLite/Diag 0.40E+00    0.0     1.6345E-09      -114.3973290508 -5.68E-13
    16 TBLite/Diag 0.40E+00    0.0     1.0063E-09      -114.3973290508  6.25E-13
    17 TBLite/Diag 0.40E+00    0.0     4.5902E-10      -114.3973290508  1.28E-13

  *** SCF run converged in    17 steps ***


  Core Hamiltonian energy:                                   -116.07922123048944
  Repulsive potential energy:                                   1.66817570219901
  Electrostatic energy:                                         0.15835225768245
  Self-consistent dispersion energy:                           -0.17919278840536
  Non-self consistent dispersion energy:                        0.03455700816565
  Correction for halogen bonding:                               0.00000000000000
  Electronic entropic energy:                                  -0.00000000000000
  Fermi energy:                                                -0.26222404204280

  Total energy:                                              -114.39732905084769
  Total energy (extrapolated to T->0):                       -114.39732905084769

 ENERGY| Total FORCE_EVAL ( QS ) energy [hartree]           -114.397329050847688

 OPT| **************************************************************************
 OPT| Step number                                                              6
 OPT| Optimization method                                                   BFGS
 OPT| Total energy [hartree]                                     -114.3973290508
 OPT| Internal pressure [bar]                                   -7192.8689488362
 OPT| Effective energy change [hartree]                            -0.0023413769
 OPT| Predicted energy change [hartree]                            -0.0015275670
 OPT| Scaling factor                                                0.0000000000
 OPT| Step size                                                     0.0229920994
 OPT| Trust radius                                                  0.4724315332
 OPT| Decrease in energy                                                     YES
 OPT| Used time [s]                                                        3.421
 OPT|
 OPT| Maximum step size                                             0.0229920994
 OPT| Convergence limit for maximum step size                       0.0030000000
 OPT| Maximum step size is converged                                          NO
 OPT|
 OPT| RMS step size                                                 0.0076852818
 OPT| Convergence limit for RMS step size                           0.0015000000
 OPT| RMS step size is converged                                              NO
 OPT|
 OPT| Maximum gradient                                              0.0098512691
 OPT| Convergence limit for maximum gradient                        0.0004500000
 OPT| Maximum gradient is converged                                           NO
 OPT|
 OPT| RMS gradient                                                  0.0024567966
 OPT| Convergence limit for RMS gradient                            0.0003000000
 OPT| RMS gradient is converged                                               NO
 OPT|
 OPT| Pressure deviation [bar]                                  -7192.8689488362
 OPT| Pressure tolerance [bar]                                    100.0000000000
 OPT| Pressure is converged                                                   NO
 OPT| **************************************************************************
 OPT| Estimated peak process memory after this step [MiB]                    183

 --------------------------
 OPTIMIZATION STEP:      7
 --------------------------

 CELL| Volume [angstrom^3]:                                           732.924520
 CELL| Vector a [angstrom]:       8.349     0.000     0.000   |a| =     8.349055
 CELL| Vector b [angstrom]:       0.000    12.701     0.000   |b| =    12.701362
 CELL| Vector c [angstrom]:       0.000    -0.000     6.911   |c| =     6.911490
 CELL| Angle (b,c), alpha [degree]:                                    90.000000
 CELL| Angle (a,c), beta  [degree]:                                    89.999998
 CELL| Angle (a,b), gamma [degree]:                                    90.000000
 CELL| Numerically orthorhombic:                                              NO
 CELL| Periodicity                                                           XYZ

 Extrapolation method: ASPC

 Number of electrons:                                                        208
 Number of occupied orbitals:                                                104
 Number of molecular orbitals:                                               192

 Number of orbital functions:                                                192
 Number of independent orbital functions:                                    192


 SCF WAVEFUNCTION OPTIMIZATION

  Step     Update method      Time    Convergence         Total energy    Change
  ------------------------------------------------------------------------------
     1 TBLite/Diag 0.40E+00    0.0     0.01690650      -114.3998962602 -1.14E+02
     2 TBLite/Diag 0.40E+00    0.0     0.00134899      -114.3999144037 -1.81E-05
     3 TBLite/Diag 0.40E+00    0.0     0.00134541      -114.3999065709  7.83E-06
     4 TBLite/Diag 0.40E+00    0.0     0.00085801      -114.3999198763 -1.33E-05
     5 TBLite/Diag 0.40E+00    0.0     0.00011796      -114.3999199726 -9.63E-08
     6 TBLite/Diag 0.40E+00    0.0     0.00006065      -114.3999199918 -1.92E-08
     7 TBLite/Diag 0.40E+00    0.0     0.00001977      -114.3999199946 -2.78E-09
     8 TBLite/Diag 0.40E+00    0.0     0.00000521      -114.3999199947 -9.28E-11
     9 TBLite/Diag 0.40E+00    0.0     0.00000212      -114.3999199947 -7.50E-11
    10 TBLite/Diag 0.40E+00    0.0     0.00000046      -114.3999199947 -4.55E-13
    11 TBLite/Diag 0.40E+00    0.0     0.00000018      -114.3999199947 -6.96E-13
    12 TBLite/Diag 0.40E+00    0.0     0.00000007      -114.3999199947  5.68E-14
    13 TBLite/Diag 0.40E+00    0.0     0.00000003      -114.3999199947  4.26E-14
    14 TBLite/Diag 0.40E+00    0.0     6.1178E-09      -114.3999199947  8.53E-14
    15 TBLite/Diag 0.40E+00    0.0     1.4632E-09      -114.3999199947 -7.11E-14
    16 TBLite/Diag 0.40E+00    0.0     1.0764E-09      -114.3999199947 -1.71E-13
    17 TBLite/Diag 0.40E+00    0.0     4.6562E-10      -114.3999199947  2.84E-13

  *** SCF run converged in    17 steps ***


  Core Hamiltonian energy:                                   -116.08488582695293
  Repulsive potential energy:                                   1.67295379294962
  Electrostatic energy:                                         0.15706723041141
  Self-consistent dispersion energy:                           -0.17981638155286
  Non-self consistent dispersion energy:                        0.03476119040763
  Correction for halogen bonding:                               0.00000000000000
  Electronic entropic energy:                                  -0.00000000000000
  Fermi energy:                                                -0.26187836988883

  Total energy:                                              -114.39991999473712
  Total energy (extrapolated to T->0):                       -114.39991999473712

 ENERGY| Total FORCE_EVAL ( QS ) energy [hartree]           -114.399919994737118

 OPT| **************************************************************************
 OPT| Step number                                                              7
 OPT| Optimization method                                                   BFGS
 OPT| Total energy [hartree]                                     -114.3999199947
 OPT| Internal pressure [bar]                                   -5884.8062283766
 OPT| Effective energy change [hartree]                            -0.0025909439
 OPT| Predicted energy change [hartree]                            -0.0017107489
 OPT| Scaling factor                                                0.0000000000
 OPT| Step size                                                     0.0360306607
 OPT| Trust radius                                                  0.4724315332
 OPT| Decrease in energy                                                     YES
 OPT| Used time [s]                                                        2.175
 OPT|
 OPT| Maximum step size                                             0.0360306607
 OPT| Convergence limit for maximum step size                       0.0030000000
 OPT| Maximum step size is converged                                          NO
 OPT|
 OPT| RMS step size                                                 0.0101726123
 OPT| Convergence limit for RMS step size                           0.0015000000
 OPT| RMS step size is converged                                              NO
 OPT|
 OPT| Maximum gradient                                              0.0078455425
 OPT| Convergence limit for maximum gradient                        0.0004500000
 OPT| Maximum gradient is converged                                           NO
 OPT|
 OPT| RMS gradient                                                  0.0026040313
 OPT| Convergence limit for RMS gradient                            0.0003000000
 OPT| RMS gradient is converged                                               NO
 OPT|
 OPT| Pressure deviation [bar]                                  -5884.8062283766
 OPT| Pressure tolerance [bar]                                    100.0000000000
 OPT| Pressure is converged                                                   NO
 OPT| **************************************************************************
 OPT| Estimated peak process memory after this step [MiB]                    183

 --------------------------
 OPTIMIZATION STEP:      8
 --------------------------

 CELL| Volume [angstrom^3]:                                           729.025122
 CELL| Vector a [angstrom]:       8.320     0.000     0.000   |a| =     8.319872
 CELL| Vector b [angstrom]:      -0.000    12.696     0.000   |b| =    12.696195
 CELL| Vector c [angstrom]:       0.000    -0.000     6.902   |c| =     6.901640
 CELL| Angle (b,c), alpha [degree]:                                    90.000000
 CELL| Angle (a,c), beta  [degree]:                                    89.999996
 CELL| Angle (a,b), gamma [degree]:                                    90.000000
 CELL| Numerically orthorhombic:                                              NO
 CELL| Periodicity                                                           XYZ

 Extrapolation method: ASPC

 Number of electrons:                                                        208
 Number of occupied orbitals:                                                104
 Number of molecular orbitals:                                               192

 Number of orbital functions:                                                192
 Number of independent orbital functions:                                    192


 SCF WAVEFUNCTION OPTIMIZATION

  Step     Update method      Time    Convergence         Total energy    Change
  ------------------------------------------------------------------------------
     1 TBLite/Diag 0.40E+00    0.0     0.02168883      -114.4027950148 -1.14E+02
     2 TBLite/Diag 0.40E+00    0.0     0.00183113      -114.4028158241 -2.08E-05
     3 TBLite/Diag 0.40E+00    0.0     0.00112532      -114.4028080422  7.78E-06
     4 TBLite/Diag 0.40E+00    0.0     0.00083258      -114.4028194748 -1.14E-05
     5 TBLite/Diag 0.40E+00    0.0     0.00016307      -114.4028198787 -4.04E-07
     6 TBLite/Diag 0.40E+00    0.0     0.00005749      -114.4028198818 -3.10E-09
     7 TBLite/Diag 0.40E+00    0.0     0.00002980      -114.4028198914 -9.64E-09
     8 TBLite/Diag 0.40E+00    0.0     0.00000397      -114.4028198915 -6.95E-11
     9 TBLite/Diag 0.40E+00    0.0     0.00000243      -114.4028198916 -6.96E-11
    10 TBLite/Diag 0.40E+00    0.0     0.00000055      -114.4028198916 -1.42E-12
    11 TBLite/Diag 0.40E+00    0.0     0.00000029      -114.4028198916 -7.82E-13
    12 TBLite/Diag 0.40E+00    0.0     0.00000008      -114.4028198916 -3.84E-13
    13 TBLite/Diag 0.40E+00    0.0     0.00000003      -114.4028198916  2.84E-13
    14 TBLite/Diag 0.40E+00    0.0     6.4953E-09      -114.4028198916  0.00E+00
    15 TBLite/Diag 0.40E+00    0.0     2.0173E-09      -114.4028198916  1.99E-13
    16 TBLite/Diag 0.40E+00    0.0     5.9507E-10      -114.4028198916 -9.95E-14

  *** SCF run converged in    16 steps ***


  Core Hamiltonian energy:                                   -116.09365008223133
  Repulsive potential energy:                                   1.68157794540751
  Electrostatic energy:                                         0.15503145364821
  Self-consistent dispersion energy:                           -0.18089142996424
  Non-self consistent dispersion energy:                        0.03511222156305
  Correction for halogen bonding:                               0.00000000000000
  Electronic entropic energy:                                  -0.00000000000000
  Fermi energy:                                                -0.26157513690898

  Total energy:                                              -114.40281989157680
  Total energy (extrapolated to T->0):                       -114.40281989157680

 ENERGY| Total FORCE_EVAL ( QS ) energy [hartree]           -114.402819891576797

 OPT| **************************************************************************
 OPT| Step number                                                              8
 OPT| Optimization method                                                   BFGS
 OPT| Total energy [hartree]                                     -114.4028198916
 OPT| Internal pressure [bar]                                   -3593.1546799475
 OPT| Effective energy change [hartree]                            -0.0028998968
 OPT| Predicted energy change [hartree]                            -0.0018968717
 OPT| Scaling factor                                                0.0000000000
 OPT| Step size                                                     0.0551473578
 OPT| Trust radius                                                  0.4724315332
 OPT| Decrease in energy                                                     YES
 OPT| Used time [s]                                                        2.167
 OPT|
 OPT| Maximum step size                                             0.0551473578
 OPT| Convergence limit for maximum step size                       0.0030000000
 OPT| Maximum step size is converged                                          NO
 OPT|
 OPT| RMS step size                                                 0.0130989661
 OPT| Convergence limit for RMS step size                           0.0015000000
 OPT| RMS step size is converged                                              NO
 OPT|
 OPT| Maximum gradient                                              0.0060186858
 OPT| Convergence limit for maximum gradient                        0.0004500000
 OPT| Maximum gradient is converged                                           NO
 OPT|
 OPT| RMS gradient                                                  0.0030244771
 OPT| Convergence limit for RMS gradient                            0.0003000000
 OPT| RMS gradient is converged                                               NO
 OPT|
 OPT| Pressure deviation [bar]                                  -3593.1546799475
 OPT| Pressure tolerance [bar]                                    100.0000000000
 OPT| Pressure is converged                                                   NO
 OPT| **************************************************************************
 OPT| Estimated peak process memory after this step [MiB]                    183

 --------------------------
 OPTIMIZATION STEP:      9
 --------------------------

 CELL| Volume [angstrom^3]:                                           723.544394
 CELL| Vector a [angstrom]:       8.280     0.000     0.000   |a| =     8.280150
 CELL| Vector b [angstrom]:      -0.000    12.687     0.000   |b| =    12.687440
 CELL| Vector c [angstrom]:       0.000    -0.000     6.887   |c| =     6.887363
 CELL| Angle (b,c), alpha [degree]:                                    90.000000
 CELL| Angle (a,c), beta  [degree]:                                    89.999993
 CELL| Angle (a,b), gamma [degree]:                                    90.000000
 CELL| Numerically orthorhombic:                                              NO
 CELL| Periodicity                                                           XYZ

 Extrapolation method: ASPC

 Number of electrons:                                                        208
 Number of occupied orbitals:                                                104
 Number of molecular orbitals:                                               192

 Number of orbital functions:                                                192
 Number of independent orbital functions:                                    192


 SCF WAVEFUNCTION OPTIMIZATION

  Step     Update method      Time    Convergence         Total energy    Change
  ------------------------------------------------------------------------------
     1 TBLite/Diag 0.40E+00    0.0     0.02627764      -114.4059595518 -1.14E+02
     2 TBLite/Diag 0.40E+00    0.0     0.00190065      -114.4059833677 -2.38E-05
     3 TBLite/Diag 0.40E+00    0.0     0.00100848      -114.4059813143  2.05E-06
     4 TBLite/Diag 0.40E+00    0.0     0.00083689      -114.4059857603 -4.45E-06
     5 TBLite/Diag 0.40E+00    0.0     0.00022935      -114.4059865044 -7.44E-07
     6 TBLite/Diag 0.40E+00    0.0     0.00005111      -114.4059865129 -8.49E-09
     7 TBLite/Diag 0.40E+00    0.0     0.00001627      -114.4059865186 -5.73E-09
     8 TBLite/Diag 0.40E+00    0.0     0.00000440      -114.4059865187 -7.24E-11
     9 TBLite/Diag 0.40E+00    0.0     0.00000254      -114.4059865187 -3.78E-11
    10 TBLite/Diag 0.40E+00    0.0     0.00000061      -114.4059865187 -4.89E-12
    11 TBLite/Diag 0.40E+00    0.0     0.00000025      -114.4059865187 -2.27E-13
    12 TBLite/Diag 0.40E+00    0.0     0.00000008      -114.4059865187 -1.99E-13
    13 TBLite/Diag 0.40E+00    0.0     0.00000002      -114.4059865187 -7.11E-14
    14 TBLite/Diag 0.40E+00    0.0     7.0822E-09      -114.4059865187  1.42E-14
    15 TBLite/Diag 0.40E+00    0.0     2.8679E-09      -114.4059865187  2.70E-13
    16 TBLite/Diag 0.40E+00    0.0     3.6762E-10      -114.4059865187  2.42E-13

  *** SCF run converged in    16 steps ***


  Core Hamiltonian energy:                                   -116.10048925921909
  Repulsive potential energy:                                   1.68864321948922
  Electrostatic energy:                                         0.15265852136527
  Self-consistent dispersion energy:                           -0.18242966633485
  Non-self consistent dispersion energy:                        0.03563066600196
  Correction for halogen bonding:                               0.00000000000000
  Electronic entropic energy:                                  -0.00000000000000
  Fermi energy:                                                -0.26142142233847

  Total energy:                                              -114.40598651869747
  Total energy (extrapolated to T->0):                       -114.40598651869747

 ENERGY| Total FORCE_EVAL ( QS ) energy [hartree]           -114.405986518697475

 OPT| **************************************************************************
 OPT| Step number                                                              9
 OPT| Optimization method                                                   BFGS
 OPT| Total energy [hartree]                                     -114.4059865187
 OPT| Internal pressure [bar]                                   -1322.8440799938
 OPT| Effective energy change [hartree]                            -0.0031666271
 OPT| Predicted energy change [hartree]                            -0.0021859234
 OPT| Scaling factor                                                0.0000000000
 OPT| Step size                                                     0.0750624936
 OPT| Trust radius                                                  0.4724315332
 OPT| Decrease in energy                                                     YES
 OPT| Used time [s]                                                        2.183
 OPT|
 OPT| Maximum step size                                             0.0750624936
 OPT| Convergence limit for maximum step size                       0.0030000000
 OPT| Maximum step size is converged                                          NO
 OPT|
 OPT| RMS step size                                                 0.0164142456
 OPT| Convergence limit for RMS step size                           0.0015000000
 OPT| RMS step size is converged                                              NO
 OPT|
 OPT| Maximum gradient                                              0.0051472915
 OPT| Convergence limit for maximum gradient                        0.0004500000
 OPT| Maximum gradient is converged                                           NO
 OPT|
 OPT| RMS gradient                                                  0.0029171602
 OPT| Convergence limit for RMS gradient                            0.0003000000
 OPT| RMS gradient is converged                                               NO
 OPT|
 OPT| Pressure deviation [bar]                                  -1322.8440799938
 OPT| Pressure tolerance [bar]                                    100.0000000000
 OPT| Pressure is converged                                                   NO
 OPT| **************************************************************************
 OPT| Estimated peak process memory after this step [MiB]                    184

 --------------------------
 OPTIMIZATION STEP:     10
 --------------------------

 CELL| Volume [angstrom^3]:                                           718.964941
 CELL| Vector a [angstrom]:       8.246     0.000     0.000   |a| =     8.246459
 CELL| Vector b [angstrom]:      -0.000    12.679     0.000   |b| =    12.679407
 CELL| Vector c [angstrom]:       0.000    -0.000     6.876   |c| =     6.876086
 CELL| Angle (b,c), alpha [degree]:                                    90.000000
 CELL| Angle (a,c), beta  [degree]:                                    89.999992
 CELL| Angle (a,b), gamma [degree]:                                    90.000000
 CELL| Numerically orthorhombic:                                              NO
 CELL| Periodicity                                                           XYZ

 Extrapolation method: ASPC

 Number of electrons:                                                        208
 Number of occupied orbitals:                                                104
 Number of molecular orbitals:                                               192

 Number of orbital functions:                                                192
 Number of independent orbital functions:                                    192


 SCF WAVEFUNCTION OPTIMIZATION

  Step     Update method      Time    Convergence         Total energy    Change
  ------------------------------------------------------------------------------
     1 TBLite/Diag 0.40E+00    0.0     0.01929216      -114.4081756080 -1.14E+02
     2 TBLite/Diag 0.40E+00    0.0     0.00170503      -114.4081932580 -1.76E-05
     3 TBLite/Diag 0.40E+00    0.0     0.00107598      -114.4081851905  8.07E-06
     4 TBLite/Diag 0.40E+00    0.0     0.00090020      -114.4081974438 -1.23E-05
     5 TBLite/Diag 0.40E+00    0.0     0.00015271      -114.4081975712 -1.27E-07
     6 TBLite/Diag 0.40E+00    0.0     0.00007377      -114.4081975840 -1.28E-08
     7 TBLite/Diag 0.40E+00    0.0     0.00003121      -114.4081975912 -7.17E-09
     8 TBLite/Diag 0.40E+00    0.0     0.00000352      -114.4081975912 -9.32E-12
     9 TBLite/Diag 0.40E+00    0.0     0.00000201      -114.4081975913 -7.15E-11
    10 TBLite/Diag 0.40E+00    0.0     0.00000026      -114.4081975913 -1.07E-12
    11 TBLite/Diag 0.40E+00    0.0     0.00000019      -114.4081975913  2.98E-13
    12 TBLite/Diag 0.40E+00    0.0     0.00000008      -114.4081975913 -8.53E-14
    13 TBLite/Diag 0.40E+00    0.0     0.00000002      -114.4081975913 -2.70E-13
    14 TBLite/Diag 0.40E+00    0.0     5.9143E-09      -114.4081975913  1.42E-14
    15 TBLite/Diag 0.40E+00    0.0     1.7980E-09      -114.4081975913 -1.28E-13
    16 TBLite/Diag 0.40E+00    0.0     2.1831E-10      -114.4081975913 -9.95E-14

  *** SCF run converged in    16 steps ***


  Core Hamiltonian energy:                                   -116.10085975029145
  Repulsive potential energy:                                   1.68912537366847
  Electrostatic energy:                                         0.15121646582696
  Self-consistent dispersion energy:                           -0.18375147981213
  Non-self consistent dispersion energy:                        0.03607179934247
  Correction for halogen bonding:                               0.00000000000000
  Electronic entropic energy:                                  -0.00000000000000
  Fermi energy:                                                -0.26142171118255

  Total energy:                                              -114.40819759126568
  Total energy (extrapolated to T->0):                       -114.40819759126568

 ENERGY| Total FORCE_EVAL ( QS ) energy [hartree]           -114.408197591265676

 OPT| **************************************************************************
 OPT| Step number                                                             10
 OPT| Optimization method                                                   BFGS
 OPT| Total energy [hartree]                                     -114.4081975913
 OPT| Internal pressure [bar]                                    -453.4566734539
 OPT| Effective energy change [hartree]                            -0.0022110726
 OPT| Predicted energy change [hartree]                            -0.0016293130
 OPT| Scaling factor                                                0.0000000000
 OPT| Step size                                                     0.0636681820
 OPT| Trust radius                                                  0.4724315332
 OPT| Decrease in energy                                                     YES
 OPT| Used time [s]                                                        2.202
 OPT|
 OPT| Maximum step size                                             0.0636681820
 OPT| Convergence limit for maximum step size                       0.0030000000
 OPT| Maximum step size is converged                                          NO
 OPT|
 OPT| RMS step size                                                 0.0129323794
 OPT| Convergence limit for RMS step size                           0.0015000000
 OPT| RMS step size is converged                                              NO
 OPT|
 OPT| Maximum gradient                                              0.0048950216
 OPT| Convergence limit for maximum gradient                        0.0004500000
 OPT| Maximum gradient is converged                                           NO
 OPT|
 OPT| RMS gradient                                                  0.0018728850
 OPT| Convergence limit for RMS gradient                            0.0003000000
 OPT| RMS gradient is converged                                               NO
 OPT|
 OPT| Pressure deviation [bar]                                   -453.4566734539
 OPT| Pressure tolerance [bar]                                    100.0000000000
 OPT| Pressure is converged                                                   NO
 OPT| **************************************************************************
 OPT| Estimated peak process memory after this step [MiB]                    185

 --------------------------
 OPTIMIZATION STEP:     11
 --------------------------

 CELL| Volume [angstrom^3]:                                           717.157419
 CELL| Vector a [angstrom]:       8.231     0.000     0.000   |a| =     8.231102
 CELL| Vector b [angstrom]:      -0.000    12.676     0.000   |b| =    12.676262
 CELL| Vector c [angstrom]:       0.000    -0.000     6.873   |c| =     6.873300
 CELL| Angle (b,c), alpha [degree]:                                    90.000000
 CELL| Angle (a,c), beta  [degree]:                                    89.999991
 CELL| Angle (a,b), gamma [degree]:                                    90.000000
 CELL| Numerically orthorhombic:                                              NO
 CELL| Periodicity                                                           XYZ

 Extrapolation method: ASPC

 Number of electrons:                                                        208
 Number of occupied orbitals:                                                104
 Number of molecular orbitals:                                               192

 Number of orbital functions:                                                192
 Number of independent orbital functions:                                    192


 SCF WAVEFUNCTION OPTIMIZATION

  Step     Update method      Time    Convergence         Total energy    Change
  ------------------------------------------------------------------------------
     1 TBLite/Diag 0.40E+00    0.0     0.00595470      -114.4090501878 -1.14E+02
     2 TBLite/Diag 0.40E+00    0.0     0.00121673      -114.4090625544 -1.24E-05
     3 TBLite/Diag 0.40E+00    0.0     0.00073866      -114.4090628225 -2.68E-07
     4 TBLite/Diag 0.40E+00    0.0     0.00043501      -114.4090661460 -3.32E-06
     5 TBLite/Diag 0.40E+00    0.0     0.00008656      -114.4090661928 -4.67E-08
     6 TBLite/Diag 0.40E+00    0.0     0.00003527      -114.4090662020 -9.19E-09
     7 TBLite/Diag 0.40E+00    0.0     0.00000752      -114.4090662024 -3.91E-10
     8 TBLite/Diag 0.40E+00    0.0     0.00000367      -114.4090662024 -5.26E-11
     9 TBLite/Diag 0.40E+00    0.0     0.00000156      -114.4090662024 -2.95E-11
    10 TBLite/Diag 0.40E+00    0.0     0.00000025      -114.4090662024 -3.55E-13
    11 TBLite/Diag 0.40E+00    0.0     0.00000013      -114.4090662024 -4.26E-14
    12 TBLite/Diag 0.40E+00    0.0     0.00000004      -114.4090662024  1.14E-13
    13 TBLite/Diag 0.40E+00    0.0     0.00000002      -114.4090662024 -2.13E-13
    14 TBLite/Diag 0.40E+00    0.0     1.6041E-09      -114.4090662024 -2.84E-14
    15 TBLite/Diag 0.40E+00    0.0     5.8415E-10      -114.4090662024  4.69E-13

  *** SCF run converged in    15 steps ***


  Core Hamiltonian energy:                                   -116.09767080594307
  Repulsive potential energy:                                   1.68564606783126
  Electrostatic energy:                                         0.15100904130900
  Self-consistent dispersion energy:                           -0.18429916884412
  Non-self consistent dispersion energy:                        0.03624866320759
  Correction for halogen bonding:                               0.00000000000000
  Electronic entropic energy:                                  -0.00000000000000
  Fermi energy:                                                -0.26136523792079

  Total energy:                                              -114.40906620243935
  Total energy (extrapolated to T->0):                       -114.40906620243935

[...]

 --------------------------
 OPTIMIZATION STEP:     78
 --------------------------

 CELL| Volume [angstrom^3]:                                           696.486113
 CELL| Vector a [angstrom]:       7.704     0.000     0.000   |a| =     7.704238
 CELL| Vector b [angstrom]:       0.000    12.850     0.000   |b| =    12.849547
 CELL| Vector c [angstrom]:       0.000    -0.000     7.035   |c| =     7.035500
 CELL| Angle (b,c), alpha [degree]:                                    90.000000
 CELL| Angle (a,c), beta  [degree]:                                    89.999871
 CELL| Angle (a,b), gamma [degree]:                                    90.000000
 CELL| Numerically orthorhombic:                                              NO
 CELL| Periodicity                                                           XYZ

 Extrapolation method: ASPC

 Number of electrons:                                                        208
 Number of occupied orbitals:                                                104
 Number of molecular orbitals:                                               192

 Number of orbital functions:                                                192
 Number of independent orbital functions:                                    192


 SCF WAVEFUNCTION OPTIMIZATION

  Step     Update method      Time    Convergence         Total energy    Change
  ------------------------------------------------------------------------------
     1 TBLite/Diag 0.40E+00    0.0     0.00051745      -114.4167419695 -1.14E+02
     2 TBLite/Diag 0.40E+00    0.0     0.00012032      -114.4167420505 -8.10E-08
     3 TBLite/Diag 0.40E+00    0.0     0.00006432      -114.4167420446  5.84E-09
     4 TBLite/Diag 0.40E+00    0.0     0.00004286      -114.4167420658 -2.12E-08
     5 TBLite/Diag 0.40E+00    0.0     0.00000748      -114.4167420669 -1.04E-09
     6 TBLite/Diag 0.40E+00    0.0     0.00000240      -114.4167420669 -8.53E-13
     7 TBLite/Diag 0.40E+00    0.0     0.00000157      -114.4167420669 -2.16E-11
     8 TBLite/Diag 0.40E+00    0.0     0.00000024      -114.4167420669 -6.68E-13
     9 TBLite/Diag 0.40E+00    0.0     0.00000009      -114.4167420669  3.55E-13
    10 TBLite/Diag 0.40E+00    0.0     0.00000002      -114.4167420669 -2.42E-13
    11 TBLite/Diag 0.40E+00    0.0     8.9637E-09      -114.4167420669  4.26E-13
    12 TBLite/Diag 0.40E+00    0.0     3.2317E-09      -114.4167420669  1.42E-14
    13 TBLite/Diag 0.40E+00    0.0     1.0198E-09      -114.4167420669 -8.53E-14
    14 TBLite/Diag 0.40E+00    0.0     5.7269E-10      -114.4167420669 -1.42E-14

  *** SCF run converged in    14 steps ***


  Core Hamiltonian energy:                                   -116.07633291164538
  Repulsive potential energy:                                   1.66740027988583
  Electrostatic energy:                                         0.14475347064585
  Self-consistent dispersion energy:                           -0.19080121363468
  Non-self consistent dispersion energy:                        0.03823830783572
  Correction for halogen bonding:                               0.00000000000000
  Electronic entropic energy:                                  -0.00000000000000
  Fermi energy:                                                -0.26068980781177

  Total energy:                                              -114.41674206691266
  Total energy (extrapolated to T->0):                       -114.41674206691266

 ENERGY| Total FORCE_EVAL ( QS ) energy [hartree]           -114.416742066912661

 OPT| **************************************************************************
 OPT| Step number                                                             78
 OPT| Optimization method                                                   BFGS
 OPT| Total energy [hartree]                                     -114.4167420669
 OPT| Internal pressure [bar]                                     -16.8273856655
 OPT| Effective energy change [hartree]                            -0.0000039442
 OPT| Predicted energy change [hartree]                            -0.0000028688
 OPT| Scaling factor                                                0.0000000000
 OPT| Step size                                                     0.0018292367
 OPT| Trust radius                                                  0.4724315332
 OPT| Decrease in energy                                                     YES
 OPT| Used time [s]                                                        2.301
 OPT|
 OPT| Maximum step size                                             0.0018292367
 OPT| Convergence limit for maximum step size                       0.0030000000
 OPT| Maximum step size is converged                                         YES
 OPT|
 OPT| RMS step size                                                 0.0006391513
 OPT| Convergence limit for RMS step size                           0.0015000000
 OPT| RMS step size is converged                                             YES
 OPT|
 OPT| Maximum gradient                                              0.0002546586
 OPT| Convergence limit for maximum gradient                        0.0004500000
 OPT| Maximum gradient is converged                                          YES
 OPT|
 OPT| RMS gradient                                                  0.0000917581
 OPT| Convergence limit for RMS gradient                            0.0003000000
 OPT| RMS gradient is converged                                              YES
 OPT|
 OPT| Pressure deviation [bar]                                    -16.8273856655
 OPT| Pressure tolerance [bar]                                    100.0000000000
 OPT| Pressure is converged                                                  YES
 OPT| **************************************************************************
 OPT| Estimated peak process memory after this step [MiB]                    185

 *******************************************************************************
 ***                    GEOMETRY OPTIMIZATION COMPLETED                      ***
 *******************************************************************************

 write_final_structure: Optimization converged, writing XYZ file gladly:
  pyrazole_GFN2_gamma_cell_opt-FINAL-1_78.xyz

 write_final_structure: Optimization converged, writing CIF file gladly:
  pyrazole_GFN2_gamma_cell_opt-FINAL-1_78.cif

 write_final_structure: Done!

                    Reevaluating energy at the minimum

 CELL| Volume [angstrom^3]:                                           696.486113
 CELL| Vector a [angstrom]:       7.704     0.000     0.000   |a| =     7.704238
 CELL| Vector b [angstrom]:       0.000    12.850     0.000   |b| =    12.849547
 CELL| Vector c [angstrom]:       0.000    -0.000     7.035   |c| =     7.035500
 CELL| Angle (b,c), alpha [degree]:                                    90.000000
 CELL| Angle (a,c), beta  [degree]:                                    89.999871
 CELL| Angle (a,b), gamma [degree]:                                    90.000000
 CELL| Numerically orthorhombic:                                              NO
 CELL| Periodicity                                                           XYZ

 Extrapolation method: ASPC

 Number of electrons:                                                        208
 Number of occupied orbitals:                                                104
 Number of molecular orbitals:                                               192

 Number of orbital functions:                                                192
 Number of independent orbital functions:                                    192


 SCF WAVEFUNCTION OPTIMIZATION

  Step     Update method      Time    Convergence         Total energy    Change
  ------------------------------------------------------------------------------
     1 TBLite/Diag 0.40E+00    0.0     2.2601E-10      -114.4167420669 -1.14E+02

  *** SCF run converged in     1 steps ***


  Core Hamiltonian energy:                                   -116.07633291159758
  Repulsive potential energy:                                   1.66740027988583
  Electrostatic energy:                                         0.14475347059639
  Self-consistent dispersion energy:                           -0.19080121363290
  Non-self consistent dispersion energy:                        0.03823830783572
  Correction for halogen bonding:                               0.00000000000000
  Electronic entropic energy:                                  -0.00000000000000
  Fermi energy:                                                -0.26068980781820

  Total energy:                                              -114.41674206691255
  Total energy (extrapolated to T->0):                       -114.41674206691255

 ENERGY| Total FORCE_EVAL ( QS ) energy [hartree]           -114.416742066912548

 -------------------------------------------------------------------------------
 -                                                                             -
 -                                DBCSR STATISTICS                             -
 -                                                                             -
 -------------------------------------------------------------------------------
 COUNTER                                    TOTAL       BLAS       SMM       ACC
 flops     1 x    32 x     1            151388160       0.0%    100.0%      0.0%     
 flops     1 x     1 x   192            273106944       0.0%    100.0%      0.0%     
 flops     1 x    32 x     4            756940800       0.0%    100.0%      0.0%     
 flops     4 x    32 x     1            756940800       0.0%    100.0%      0.0%     
 flops     1 x     4 x   192           1324154880       0.0%    100.0%      0.0%     
 flops     4 x     1 x   192           1324154880       0.0%    100.0%      0.0%     
 flops     4 x    32 x     4           3740344320       0.0%    100.0%      0.0%     
 flops     4 x     4 x   192           6708891648       0.0%    100.0%      0.0%     
 flops inhomo. stacks                           0       0.0%      0.0%      0.0%
 flops total                        15.035922E+09       0.0%    100.0%      0.0%
 flops max/rank                     15.035922E+09       0.0%    100.0%      0.0%
 matmuls inhomo. stacks                         0       0.0%      0.0%      0.0%
 matmuls total                           15459038       0.0%    100.0%      0.0%
 number of processed stacks                 18478       0.0%    100.0%      0.0%
 average stack size                                     0.0     836.6       0.0
 marketing flops                    15.778382E+09
 -------------------------------------------------------------------------------
 # multiplications                           1732
 max memory usage/rank              13.693383E+09
 # max total images/rank                        1
 # max 3D layers                                1
 # MPI messages exchanged                       0
 -------------------------------------------------------------------------------
 -                                                                             -
 -                      DBCSR MESSAGE PASSING PERFORMANCE                      -
 -                                                                             -
 -------------------------------------------------------------------------------
 ROUTINE             CALLS      AVE VOLUME [Bytes]
 MP_Bcast                9                     12.
 MP_Allreduce         7925                      8.
 MP_Alltoall         58173                 205380.
 MP_ISend             6928                  19161.
 MP_IRecv             6928                  19161.
 -------------------------------------------------------------------------------

 -------------------------------------------------------------------------------
 -                                                                             -
 -                          OFFLOAD MEMPOOL STATISTICS                         -
 -                                                                             -
 -------------------------------------------------------------------------------
 Memory consumption                Number of allocations  Used [MiB]  Size [MiB]
 Device                                                2           0           0
 Host                                                  2           0           0
 -------------------------------------------------------------------------------

 MEMORY| Estimated peak process memory [MiB]                                 185

 -------------------------------------------------------------------------------
 -                                                                             -
 -                         MESSAGE PASSING PERFORMANCE                         -
 -                                                                             -
 -------------------------------------------------------------------------------

 ROUTINE             CALLS      AVE VOLUME [Bytes]
 MP_Group               79
 MP_Bcast             2692                    777.
 MP_Allreduce        41219                    537.
 MP_Sync              1425
 MP_comm_split        1346
 -------------------------------------------------------------------------------


 -------------------------------------------------------------------------------
 -                                                                             -
 -                           R E F E R E N C E S                               -
 -                                                                             -
 -------------------------------------------------------------------------------
 
 CP2K version 2026.1 (Development Version), the CP2K developers group (2026).
 CP2K is freely available from https://www.cp2k.org/ .
 
 M. Iannuzzi, J. Wilhelm, F. Stein, A. Bussy, H. Elgabarty, D. Golze, A. Hehn, 
 M. Graml, S. Marek, B. Sertcan Gökmen, C. Schran, H. Forbert, R. Z. 
 Khaliullin, A. Kozhevnikov, M. Taillefumier, R. Meli, V. V. Rybkin, M. Brehm, 
 R. Schade, O. Schütt, J. V. Pototschnig, H. Mirhosseini, A. Knüpfer, D. Marx, 
 M. Krack, J. Hutter, T. D. Kühne.
 J. Phys. Chem. B 130, 1237-1310 (2026).
 The CP2K Program Package Made Simple.
 https://doi.org/10.1021/acs.jpcb.5c05851

 A. Katbashev, M. Stahn, T. Rose, V. Alizadeh, M. Friede, C. Plett, P. 
 Steinbach, S. Ehlert.
 J. Phys. Chem. A 129, 2667-2682 (2025).
 Overview on Building Blocks and Applications of Efficient and Robust Extended 
 Tight Binding.
 https://doi.org/10.1021/acs.jpca.4c08263

 T. D. Kühne, M. Iannuzzi, M. Del Ben, V. V. Rybkin, P. Seewald, F. Stein, T. 
 Laino, R. Z. Khaliullin, O. Schütt, F. Schiffmann, D. Golze, J. Wilhelm, S. 
 Chulkov, M. H. Bani-Hashemian, V. Weber, U. Borstnik, M. Taillefumier, A. S. 
 Jakobovits, A. Lazzaro, H. Pabst, T. Müller, R. Schade, M. Guidon, S. 
 Andermatt, N. Holmberg, G. K. Schenter, A. Hehn, A. Bussy, F. Belleflamme, G. 
 Tabacchi, A. Glöß, M. Lass, I. Bethune, C. J. Mundy, C. Plessl, M. Watkins, 
 J. VandeVondele, M. Krack, J. Hutter.
 J. Chem. Phys. 152, 194103 (2020).
 CP2K: An electronic structure and molecular dynamics software package - 
 Quickstep: Efficient and accurate electronic structure calculations.
 https://doi.org/10.1063/5.0007045

 P. Pracht, E. Caldeweyher, S. Ehlert, S. Grimme.
 ChemRxiv, (2019).
 A Robust Non-Self-Consistent Tight-Binding Quantum Chemistry Method for large 
 Molecules.
 https://doi.org/10.26434/chemrxiv.8326202.v1

 S. Grimme, C. Bannwarth, P. Shushkov.
 J. Chem. Theory Comput. 13, 1989 (2017).
 A Robust and Accurate Tight-Binding Quantum Chemical Method for Structures, 
 Vibrational Frequencies, and Noncovalent Interactions of Large Molecular 
 Systems Parametrized for All spd-Block Elements (Z = 1-86).
 https://doi.org/10.1021/acs.jctc.7b00118

 O. Schuett, P. Messmer, J. Hutter, J. VandeVondele.
 Electronic Structure Calculations on Graphics Processing Units, 173-190 (2016).
 GPU-Accelerated Sparse Matrix-Matrix Multiplication for Linear Scaling Density 
 Functional Theory.
 https://doi.org/10.1002/9781118670712.ch8

 A. Heinecke, G. Henry, M. Hutchinson, H. Pabst.
 Proceedings of Intl. Supercomputing Conference, 981-991 (2016).
 LIBXSMM: Accelerating Small Matrix Multiplications by Runtime Code Generation.
 https://doi.org/10.1109/SC.2016.83

 U. Borstnik, J. VandeVondele, V. Weber, J. Hutter.
 Parallel Comput. 40, 47-58 (2014).
 Sparse matrix multiplication: The distributed block-compressed sparse row 
 library.
 https://doi.org/10.1016/j.parco.2014.03.012

 T. D. Kühne, M. Krack, F. R. Mohamed, M. Parrinello.
 Phys. Rev. Lett. 98, 066401 (2007).
 Efficient and accurate Car-Parrinello-like approach to Born-Oppenheimer 
 molecular dynamics.
 https://doi.org/10.1103/PhysRevLett.98.066401

 M. Frigo, S. G. Johnson.
 Proc. IEEE 93, 216-231 (2005).
 The design and implementation of FFTW3.
 https://doi.org/10.1109/JPROC.2004.840301

 J. Kolafa.
 J. Comput. Chem. 25, 335-342 (2004).
 Time-reversible always stable predictor-corrector method for molecular dynamics 
 of polarizable molecules.
 https://doi.org/10.1002/jcc.10385

 N. D. Mermin.
 Phys. Rev. 137, A1441-A1443 (1965).
 Thermal Properties of the Inhomogeneous Electron Gas.
 https://doi.org/10.1103/PhysRev.137.A1441


 -------------------------------------------------------------------------------
 -                                                                             -
 -                                T I M I N G                                  -
 -                                                                             -
 -------------------------------------------------------------------------------
 SUBROUTINE                       CALLS  ASD         SELF TIME        TOTAL TIME
                                MAXIMUM       AVERAGE  MAXIMUM  AVERAGE  MAXIMUM
 CP2K                                 1  1.0    0.003    0.003  192.933  192.933
 cp_cell_opt                          1  2.0    0.000    0.000  192.925  192.925
 geoopt_bfgs                          1  3.0    0.010    0.010  192.925  192.925
 cp_eval_at                          80  4.0    0.008    0.008  192.574  192.574
 qs_forces                           79  5.0    0.005    0.005  191.989  191.989
 build_tblite_matrices              159  7.0  142.994  142.994  146.508  146.508
 qs_energies                         80  6.0    0.002    0.002   67.962   67.962
 qs_energies_init_hamiltonians       80  7.0    0.000    0.000   45.678   45.678
 rebuild_ks_matrix                 1268  9.8    0.002    0.002   29.739   29.739
 build_tblite_ks_matrix            1268 10.8   29.702   29.702   29.738   29.738
 qs_ks_update_qs_env_forces          79  6.0    0.000    0.000   23.582   23.582
 scf_env_do_scf                      80  7.0    0.001    0.001   20.268   20.268
 scf_env_do_scf_inner_loop         1189  8.0    3.002    3.002   20.259   20.259
 qs_scf_new_mos                    1189  9.0    0.008    0.008   10.424   10.424
 qs_ks_update_qs_env               1189  9.0    0.003    0.003    6.355    6.355
 eigensolver                       1189 10.0    0.018    0.018    4.250    4.250
 -------------------------------------------------------------------------------

 The number of warnings for this run is : 0
 
 -------------------------------------------------------------------------------
  **** **** ******  **  PROGRAM ENDED AT                 2026-05-23 22:50:57.889
 ***** ** ***  *** **   PROGRAM RAN ON                                spark-c86c
 **    ****   ******    PROGRAM RAN BY                                  kuehne88
 ***** **    ** ** **   PROGRAM PROCESS ID                               2270618
  **** **  *******  **  PROGRAM STOPPED IN /home/kuehne88/periodic-gfn2-benchmar
                                           ks/X23b/runs/cellopt_gamma/GFN2/pyraz
                                           ole_GFN2_gamma_cellopt
