 DBCSR| CPU Multiplication driver                                           XSMM (U)
 DBCSR| Multrec recursion limit                                              512 (U)
 DBCSR| Multiplication stack size                                           1000 (D)
 DBCSR| Maximum elements for images                                    UNLIMITED (U)
 DBCSR| Multiplicative factor virtual images                                   1 (U)
 DBCSR| Use multiplication densification                                       T (D)
 DBCSR| Multiplication size stacks                                             3 (U)
 DBCSR| Use memory pool for CPU allocation                                     F (U)
 DBCSR| Number of 3D layers                                               SINGLE (U)
 DBCSR| Use MPI memory allocation                                              F (U)
 DBCSR| Use RMA algorithm                                                      F (U)
 DBCSR| Use Communication thread                                               T (U)
 DBCSR| Communication thread load                                             87 (D)
 DBCSR| MPI: My process id                                                     0
 DBCSR| MPI: Number of processes                                               1
 DBCSR| OMP: Current number of threads                                         1
 DBCSR| OMP: Max number of threads                                             1
 DBCSR| Split modifier for TAS multiplication algorithm                  1.0E+00 (U)


  **** **** ******  **  PROGRAM STARTED AT               2026-05-23 22:46:49.517
 ***** ** ***  *** **   PROGRAM STARTED ON                            spark-c86c
 **    ****   ******    PROGRAM STARTED BY                              kuehne88
 ***** **    ** ** **   PROGRAM PROCESS ID                               2264178
  **** **  *******  **  PROGRAM STARTED IN /home/kuehne88/periodic-gfn2-benchmar
                                           ks/X23b/runs/cellopt_gamma/GFN1/benze
                                           ne_GFN1_gamma_cellopt

 CP2K| version string:                 CP2K version 2026.1 (Development Version)
 CP2K| source code revision number:                                   0622d442e4
 CP2K| cp2kflags: omp fftw3 libxc parallel scalapack mpi_f08 xsmm spglib libdftd
 CP2K|            4 dftd4_v3 mctc-lib tblite
 CP2K| is freely available from                            https://www.cp2k.org/
 CP2K| Program compiled at                                   2026-05-23 22:05:08
 CP2K| Program compiled on                                            spark-c86c
 CP2K| Program compiled for                                              aarch64
 CP2K| Data directory path    /home/kuehne88/cp2k-master-tblite-20260523/install
 CP2K| Input file name                            benzene_GFN1_gamma_cellopt.inp

 GLOBAL| Force Environment number                                              1
 GLOBAL| Basis set file name                                           BASIS_SET
 GLOBAL| Potential file name                                           POTENTIAL
 GLOBAL| MM Potential file name                                     MM_POTENTIAL
 GLOBAL| Coordinate file name                                      __STD_INPUT__
 GLOBAL| Method name                                                        CP2K
 GLOBAL| Project name                                benzene_GFN1_gamma_cell_opt
 GLOBAL| Run type                                                       CELL_OPT
 GLOBAL| FFT library                                                       FFTW3
 GLOBAL| Diagonalization library                                       ScaLAPACK
 GLOBAL| Cholesky decomposition library                                ScaLAPACK
 GLOBAL| DGEMM library                                                      BLAS
 GLOBAL| Direct generalized diagonalization requested                          F
 GLOBAL| Orthonormality check for eigenvectors                          DISABLED
 GLOBAL| Matrix multiplication library                                 ScaLAPACK
 GLOBAL| All-to-all communication in single precision                          F
 GLOBAL| FFTs using library dependent lengths                                  F
 GLOBAL| Grid backend                                                       AUTO
 GLOBAL| Global print level                                                  LOW
 GLOBAL| MPI I/O enabled                                                       T
 GLOBAL| Total number of message passing processes                             1
 GLOBAL| Number of distributed systems (nodes)                                 1
 GLOBAL| Number of threads for this process                                    1
 GLOBAL| This output is from process                                           0
 GLOBAL| OpenMP stack size per thread (OMP_STACKSIZE)                    default
 GLOBAL| CPU model name                                                  UNKNOWN
 GLOBAL| CPUID                                                              2200
 GLOBAL| Compiled for CPUID                                                 2000

 *** HINT in environment.F:970 :: The compiler target flags (arm_arch64)   ***
 *** used to build this binary cannot exploit all extensions of this CPU   ***
 *** model (arm_sve256). Consider compiler target flags as part of FCFLAGS ***
 *** and CFLAGS (ARCH file).                                               ***


 MEMORY| system memory details [Kb]
 MEMORY|                        rank 0           min           max       average
 MEMORY| MemTotal            125508532     125508532     125508532     125508532
 MEMORY| MemFree             101619980     101619980     101619980     101619980
 MEMORY| Buffers                867392        867392        867392        867392
 MEMORY| Cached               13914832      13914832      13914832      13914832
 MEMORY| Slab                  1588512       1588512       1588512       1588512
 MEMORY| SReclaimable           910340        910340        910340        910340
 MEMORY| MemLikelyFree       117312544     117312544     117312544     117312544


 GENERATE|  Preliminary Number of Bonds generated:                             0
 GENERATE|  Achieved consistency in connectivity generation.


                  #####   #####        #     #   #     #       #          
                 #     # #     #      #    ##### #     #   # #####  ####  
                 #     # #           #       #   ###   #       #   #    # 
                 #     #  #####     #        #   #  #  #   #   #   ###### 
                 #   # #       #   #         #   #   # #   #   #   #      
                 #    #  #     #  #          #   #  #  # # #   #    #   # 
                  #### #  #####  #           #   ###   ##  #   #     ###  

                                   GFN1-xTB  
                                 Version 0.0                       
                            Johann V. Pototschnig                  



 TOTAL NUMBERS AND MAXIMUM NUMBERS

  Total number of            - Atomic kinds:                                   2
                             - Atoms:                                         48
                             - Shell sets:                                    96
                             - Shells:                                        96
                             - Primitive Cartesian functions:                552
                             - Cartesian basis functions:                    144
                             - Spherical basis functions:                    144

  Maximum angular momentum of the orbital basis functions:                     1


 SCF PARAMETERS         Density guess:                                     MOPAC
                        --------------------------------------------------------
                        max_scf:                                             300
                        max_scf_history:                                       0
                        max_diis:                                              4
                        --------------------------------------------------------
                        eps_scf:                                        1.00E-09
                        eps_scf_history:                                0.00E+00
                        eps_diis:                                       1.00E-01
                        eps_eigval:                                     1.00E-05
                        --------------------------------------------------------
                        level_shift [a.u.]:                             0.000000
                        added MOs                                        84    0
                        --------------------------------------------------------
                        Mixing method:                           DIRECT_P_MIXING
                        --------------------------------------------------------
                        Smear method:                                FERMI_DIRAC
                        Electronic temperature [K]:                        300.0
                        Electronic temperature [a.u.]:                  9.50E-04
                        Accuracy threshold:                             1.00E-06
                        --------------------------------------------------------
                        No outer SCF

 CELL_OPT| Pressure tolerance [bar]:                                       100.0
 CELL_OPT| Keep volume of cell:                                               NO
 CELL_OPT| Keep angles between the cell vectors:                              NO
 CELL_OPT| Keep cell symmetry:                                                NO
 CELL_OPT| Constraint:                                                      NONE

 BFGS| Use rational function optimization for step estimation:                NO
 BFGS| Use model Hessian for initial guess:                                   NO
 BFGS| Restart Hessian:                                                       NO
 BFGS| Trust radius:                                                       0.472

 *******************************************************************************
 ***                     STARTING   CELL   OPTIMIZATION                      ***
 ***                                   BFGS                                  ***
 *******************************************************************************

 CELL| Volume [angstrom^3]:                                           474.069978
 CELL| Vector a [angstrom]:       7.390     0.000     0.000   |a| =     7.390000
 CELL| Vector b [angstrom]:       0.000     9.420     0.000   |b| =     9.420000
 CELL| Vector c [angstrom]:       0.000     0.000     6.810   |c| =     6.810000
 CELL| Angle (b,c), alpha [degree]:                                    90.000000
 CELL| Angle (a,c), beta  [degree]:                                    90.000000
 CELL| Angle (a,b), gamma [degree]:                                    90.000000
 CELL| Numerically orthorhombic:                                             YES
 CELL| Periodicity                                                           XYZ

 Extrapolation method: initial_guess

 Number of electrons:                                                        120
 Number of occupied orbitals:                                                 60
 Number of molecular orbitals:                                               144

 Number of orbital functions:                                                144
 Number of independent orbital functions:                                    144


 SCF WAVEFUNCTION OPTIMIZATION

  Step     Update method      Time    Convergence         Total energy    Change
  ------------------------------------------------------------------------------
     1 TBLite/Diag 0.40E+00    0.0     1.32262083       -63.6440735656 -6.36E+01
     2 TBLite/Diag 0.40E+00    0.0     0.00138548       -63.6441038044 -3.02E-05
     3 TBLite/Diag 0.40E+00    0.0     0.00096675       -63.6441055600 -1.76E-06
     4 TBLite/Diag 0.40E+00    0.0     0.00021659       -63.6441062459 -6.86E-07
     5 TBLite/Diag 0.40E+00    0.0     0.00010788       -63.6441063223 -7.64E-08
     6 TBLite/Diag 0.40E+00    0.0     0.00002011       -63.6441063240 -1.72E-09
     7 TBLite/Diag 0.40E+00    0.0     0.00000402       -63.6441063241 -9.38E-11
     8 TBLite/Diag 0.40E+00    0.0     0.00000005       -63.6441063241 -2.06E-13
     9 TBLite/Diag 0.40E+00    0.0     0.00000003       -63.6441063241 -7.11E-15
    10 TBLite/Diag 0.40E+00    0.0     6.9063E-09       -63.6441063241  1.42E-14
    11 TBLite/Diag 0.40E+00    0.0     3.7818E-12       -63.6441063241  0.00E+00

  *** SCF run converged in    11 steps ***


  Core Hamiltonian energy:                                    -64.71722776409545
  Repulsive potential energy:                                   1.15701277212918
  Electrostatic energy:                                         0.00215366101400
  Self-consistent dispersion energy:                            0.00000000000000
  Non-self consistent dispersion energy:                       -0.08604499317250
  Correction for halogen bonding:                               0.00000000000000
  Electronic entropic energy:                                  -0.00000000000000
  Fermi energy:                                                -0.30552633010874

  Total energy:                                               -63.64410632412477
  Total energy (extrapolated to T->0):                        -63.64410632412477

 ENERGY| Total FORCE_EVAL ( QS ) energy [hartree]            -63.644106324124770

 OPT| **************************************************************************
 OPT| Step number                                                              0
 OPT| Optimization method                                                   BFGS
 OPT| Total energy [hartree]                                      -63.6441063241
 OPT| Internal pressure [bar]                                  -16534.5507345235
 OPT| Used time [s]                                                        0.701
 OPT| **************************************************************************
 OPT| Estimated peak process memory [MiB]                                    171

 --------------------------
 OPTIMIZATION STEP:      1
 --------------------------

 CELL| Volume [angstrom^3]:                                           472.950225
 CELL| Vector a [angstrom]:       7.385     0.000     0.000   |a| =     7.384522
 CELL| Vector b [angstrom]:       0.000     9.412     0.000   |b| =     9.412148
 CELL| Vector c [angstrom]:       0.000     0.000     6.805   |c| =     6.804627
 CELL| Angle (b,c), alpha [degree]:                                    90.000000
 CELL| Angle (a,c), beta  [degree]:                                    90.000000
 CELL| Angle (a,b), gamma [degree]:                                    90.000000
 CELL| Numerically orthorhombic:                                             YES
 CELL| Periodicity                                                           XYZ

 Extrapolation method: ASPC

 Number of electrons:                                                        120
 Number of occupied orbitals:                                                 60
 Number of molecular orbitals:                                               144

 Number of orbital functions:                                                144
 Number of independent orbital functions:                                    144


 SCF WAVEFUNCTION OPTIMIZATION

  Step     Update method      Time    Convergence         Total energy    Change
  ------------------------------------------------------------------------------
     1 TBLite/Diag 0.40E+00    0.0     0.01036562       -63.6459967261 -6.36E+01
     2 TBLite/Diag 0.40E+00    0.0     0.00039514       -63.6459999100 -3.18E-06
     3 TBLite/Diag 0.40E+00    0.0     0.00017383       -63.6460001000 -1.90E-07
     4 TBLite/Diag 0.40E+00    0.0     0.00006255       -63.6460001112 -1.12E-08
     5 TBLite/Diag 0.40E+00    0.0     0.00001617       -63.6460001123 -1.08E-09
     6 TBLite/Diag 0.40E+00    0.0     0.00000443       -63.6460001124 -8.91E-11
     7 TBLite/Diag 0.40E+00    0.0     0.00000070       -63.6460001124 -3.11E-12
     8 TBLite/Diag 0.40E+00    0.0     8.2384E-09       -63.6460001124  0.00E+00
     9 TBLite/Diag 0.40E+00    0.0     5.8938E-11       -63.6460001124 -1.14E-13

  *** SCF run converged in     9 steps ***


  Core Hamiltonian energy:                                    -64.73235581345384
  Repulsive potential energy:                                   1.17043044356672
  Electrostatic energy:                                         0.00213952020811
  Self-consistent dispersion energy:                            0.00000000000000
  Non-self consistent dispersion energy:                       -0.08621426274084
  Correction for halogen bonding:                               0.00000000000000
  Electronic entropic energy:                                  -0.00000000000000
  Fermi energy:                                                -0.30408366573548

  Total energy:                                               -63.64600011241985
  Total energy (extrapolated to T->0):                        -63.64600011241985

 ENERGY| Total FORCE_EVAL ( QS ) energy [hartree]            -63.646000112419848

 OPT| **************************************************************************
 OPT| Step number                                                              1
 OPT| Optimization method                                                   BFGS
 OPT| Total energy [hartree]                                      -63.6460001124
 OPT| Internal pressure [bar]                                  -10766.9387870612
 OPT| Effective energy change [hartree]                            -0.0018937883
 OPT| Predicted energy change [hartree]                            -0.0016628363
 OPT| Scaling factor                                                0.0000000000
 OPT| Step size                                                     0.0148384025
 OPT| Trust radius                                                  0.4724315332
 OPT| Decrease in energy                                                     YES
 OPT| Used time [s]                                                        0.695
 OPT|
 OPT| Maximum step size                                             0.0148384025
 OPT| Convergence limit for maximum step size                       0.0030000000
 OPT| Maximum step size is converged                                          NO
 OPT|
 OPT| RMS step size                                                 0.0047086251
 OPT| Convergence limit for RMS step size                           0.0015000000
 OPT| RMS step size is converged                                              NO
 OPT|
 OPT| Maximum gradient                                              0.0108351916
 OPT| Convergence limit for maximum gradient                        0.0004500000
 OPT| Maximum gradient is converged                                           NO
 OPT|
 OPT| RMS gradient                                                  0.0018734421
 OPT| Convergence limit for RMS gradient                            0.0003000000
 OPT| RMS gradient is converged                                               NO
 OPT|
 OPT| Pressure deviation [bar]                                 -10766.9387870612
 OPT| Pressure tolerance [bar]                                    100.0000000000
 OPT| Pressure is converged                                                   NO
 OPT| **************************************************************************
 OPT| Estimated peak process memory after this step [MiB]                    172

 --------------------------
 OPTIMIZATION STEP:      2
 --------------------------

 CELL| Volume [angstrom^3]:                                           471.789535
 CELL| Vector a [angstrom]:       7.378     0.000     0.000   |a| =     7.378387
 CELL| Vector b [angstrom]:       0.000     9.407     0.000   |b| =     9.407419
 CELL| Vector c [angstrom]:       0.000     0.000     6.797   |c| =     6.796986
 CELL| Angle (b,c), alpha [degree]:                                    90.000000
 CELL| Angle (a,c), beta  [degree]:                                    90.000000
 CELL| Angle (a,b), gamma [degree]:                                    90.000000
 CELL| Numerically orthorhombic:                                             YES
 CELL| Periodicity                                                           XYZ

 Extrapolation method: ASPC

 Number of electrons:                                                        120
 Number of occupied orbitals:                                                 60
 Number of molecular orbitals:                                               144

 Number of orbital functions:                                                144
 Number of independent orbital functions:                                    144


 SCF WAVEFUNCTION OPTIMIZATION

  Step     Update method      Time    Convergence         Total energy    Change
  ------------------------------------------------------------------------------
     1 TBLite/Diag 0.40E+00    0.0     0.00297855       -63.6464993536 -6.36E+01
     2 TBLite/Diag 0.40E+00    0.0     0.00013292       -63.6464996339 -2.80E-07
     3 TBLite/Diag 0.40E+00    0.0     0.00005631       -63.6464996465 -1.26E-08
     4 TBLite/Diag 0.40E+00    0.0     0.00000334       -63.6464996464  8.59E-11
     5 TBLite/Diag 0.40E+00    0.0     0.00000759       -63.6464996467 -2.57E-10
     6 TBLite/Diag 0.40E+00    0.0     0.00000004       -63.6464996467 -1.71E-13
     7 TBLite/Diag 0.40E+00    0.0     0.00000002       -63.6464996467 -1.49E-13
     8 TBLite/Diag 0.40E+00    0.0     3.7492E-09       -63.6464996467  3.41E-13
     9 TBLite/Diag 0.40E+00    0.0     4.6577E-11       -63.6464996467 -2.49E-13

  *** SCF run converged in     9 steps ***


  Core Hamiltonian energy:                                    -64.74490682913891
  Repulsive potential energy:                                   1.18268672972777
  Electrostatic energy:                                         0.00213114551585
  Self-consistent dispersion energy:                            0.00000000000000
  Non-self consistent dispersion energy:                       -0.08641069279366
  Correction for halogen bonding:                               0.00000000000000
  Electronic entropic energy:                                  -0.00000000000000
  Fermi energy:                                                -0.30366305413218

  Total energy:                                               -63.64649964668895
  Total energy (extrapolated to T->0):                        -63.64649964668895

 ENERGY| Total FORCE_EVAL ( QS ) energy [hartree]            -63.646499646688952

 OPT| **************************************************************************
 OPT| Step number                                                              2
 OPT| Optimization method                                                   BFGS
 OPT| Total energy [hartree]                                      -63.6464996467
 OPT| Internal pressure [bar]                                   -6019.6483487444
 OPT| Effective energy change [hartree]                            -0.0004995343
 OPT| Predicted energy change [hartree]                            -0.0003468760
 OPT| Scaling factor                                                0.0000000000
 OPT| Step size                                                     0.0144390767
 OPT| Trust radius                                                  0.4724315332
 OPT| Decrease in energy                                                     YES
 OPT| Used time [s]                                                        0.419
 OPT|
 OPT| Maximum step size                                             0.0144390767
 OPT| Convergence limit for maximum step size                       0.0030000000
 OPT| Maximum step size is converged                                          NO
 OPT|
 OPT| RMS step size                                                 0.0026041497
 OPT| Convergence limit for RMS step size                           0.0015000000
 OPT| RMS step size is converged                                              NO
 OPT|
 OPT| Maximum gradient                                              0.0069508612
 OPT| Convergence limit for maximum gradient                        0.0004500000
 OPT| Maximum gradient is converged                                           NO
 OPT|
 OPT| RMS gradient                                                  0.0011251746
 OPT| Convergence limit for RMS gradient                            0.0003000000
 OPT| RMS gradient is converged                                               NO
 OPT|
 OPT| Pressure deviation [bar]                                  -6019.6483487444
 OPT| Pressure tolerance [bar]                                    100.0000000000
 OPT| Pressure is converged                                                   NO
 OPT| **************************************************************************
 OPT| Estimated peak process memory after this step [MiB]                    174

 --------------------------
 OPTIMIZATION STEP:      3
 --------------------------

 CELL| Volume [angstrom^3]:                                           470.460292
 CELL| Vector a [angstrom]:       7.371     0.000     0.000   |a| =     7.371223
 CELL| Vector b [angstrom]:       0.000     9.403     0.000   |b| =     9.402999
 CELL| Vector c [angstrom]:       0.000     0.000     6.788   |c| =     6.787613
 CELL| Angle (b,c), alpha [degree]:                                    90.000000
 CELL| Angle (a,c), beta  [degree]:                                    90.000000
 CELL| Angle (a,b), gamma [degree]:                                    90.000000
 CELL| Numerically orthorhombic:                                             YES
 CELL| Periodicity                                                           XYZ

 Extrapolation method: ASPC

 Number of electrons:                                                        120
 Number of occupied orbitals:                                                 60
 Number of molecular orbitals:                                               144

 Number of orbital functions:                                                144
 Number of independent orbital functions:                                    144


 SCF WAVEFUNCTION OPTIMIZATION

  Step     Update method      Time    Convergence         Total energy    Change
  ------------------------------------------------------------------------------
     1 TBLite/Diag 0.40E+00    0.0     0.00236628       -63.6467613416 -6.36E+01
     2 TBLite/Diag 0.40E+00    0.0     0.00010216       -63.6467615366 -1.95E-07
     3 TBLite/Diag 0.40E+00    0.0     0.00003620       -63.6467615403 -3.71E-09
     4 TBLite/Diag 0.40E+00    0.0     0.00000571       -63.6467615407 -4.18E-10
     5 TBLite/Diag 0.40E+00    0.0     0.00000476       -63.6467615409 -1.45E-10
     6 TBLite/Diag 0.40E+00    0.0     0.00000050       -63.6467615409 -1.46E-12
     7 TBLite/Diag 0.40E+00    0.0     0.00000019       -63.6467615409 -2.34E-13
     8 TBLite/Diag 0.40E+00    0.0     1.9286E-09       -63.6467615409 -5.68E-14
     9 TBLite/Diag 0.40E+00    0.0     1.4744E-11       -63.6467615409  4.26E-14

  *** SCF run converged in     9 steps ***


  Core Hamiltonian energy:                                    -64.75692482192264
  Repulsive potential energy:                                   1.19468754782581
  Electrostatic energy:                                         0.00212391783588
  Self-consistent dispersion energy:                            0.00000000000000
  Non-self consistent dispersion energy:                       -0.08664818462773
  Correction for halogen bonding:                               0.00000000000000
  Electronic entropic energy:                                  -0.00000000000000
  Fermi energy:                                                -0.30344773829237

  Total energy:                                               -63.64676154088868
  Total energy (extrapolated to T->0):                        -63.64676154088868

 ENERGY| Total FORCE_EVAL ( QS ) energy [hartree]            -63.646761540888683

 OPT| **************************************************************************
 OPT| Step number                                                              3
 OPT| Optimization method                                                   BFGS
 OPT| Total energy [hartree]                                      -63.6467615409
 OPT| Internal pressure [bar]                                   -1523.7884877831
 OPT| Effective energy change [hartree]                            -0.0002618942
 OPT| Predicted energy change [hartree]                            -0.0002076880
 OPT| Scaling factor                                                0.0000000000
 OPT| Step size                                                     0.0177131380
 OPT| Trust radius                                                  0.4724315332
 OPT| Decrease in energy                                                     YES
 OPT| Used time [s]                                                        0.352
 OPT|
 OPT| Maximum step size                                             0.0177131380
 OPT| Convergence limit for maximum step size                       0.0030000000
 OPT| Maximum step size is converged                                          NO
 OPT|
 OPT| RMS step size                                                 0.0027409824
 OPT| Convergence limit for RMS step size                           0.0015000000
 OPT| RMS step size is converged                                              NO
 OPT|
 OPT| Maximum gradient                                              0.0026584578
 OPT| Convergence limit for maximum gradient                        0.0004500000
 OPT| Maximum gradient is converged                                           NO
 OPT|
 OPT| RMS gradient                                                  0.0007657416
 OPT| Convergence limit for RMS gradient                            0.0003000000
 OPT| RMS gradient is converged                                               NO
 OPT|
 OPT| Pressure deviation [bar]                                  -1523.7884877831
 OPT| Pressure tolerance [bar]                                    100.0000000000
 OPT| Pressure is converged                                                   NO
 OPT| **************************************************************************
 OPT| Estimated peak process memory after this step [MiB]                    174

 --------------------------
 OPTIMIZATION STEP:      4
 --------------------------

 CELL| Volume [angstrom^3]:                                           469.730342
 CELL| Vector a [angstrom]:       7.367     0.000     0.000   |a| =     7.367196
 CELL| Vector b [angstrom]:       0.000     9.401     0.000   |b| =     9.401274
 CELL| Vector c [angstrom]:       0.000     0.000     6.782   |c| =     6.782030
 CELL| Angle (b,c), alpha [degree]:                                    90.000000
 CELL| Angle (a,c), beta  [degree]:                                    90.000000
 CELL| Angle (a,b), gamma [degree]:                                    90.000000
 CELL| Numerically orthorhombic:                                             YES
 CELL| Periodicity                                                           XYZ

 Extrapolation method: ASPC

 Number of electrons:                                                        120
 Number of occupied orbitals:                                                 60
 Number of molecular orbitals:                                               144

 Number of orbital functions:                                                144
 Number of independent orbital functions:                                    144


 SCF WAVEFUNCTION OPTIMIZATION

  Step     Update method      Time    Convergence         Total energy    Change
  ------------------------------------------------------------------------------
     1 TBLite/Diag 0.40E+00    0.0     0.00146958       -63.6468734347 -6.36E+01
     2 TBLite/Diag 0.40E+00    0.0     0.00003319       -63.6468734489 -1.42E-08
     3 TBLite/Diag 0.40E+00    0.0     0.00002476       -63.6468734498 -9.17E-10
     4 TBLite/Diag 0.40E+00    0.0     0.00000381       -63.6468734501 -2.36E-10
     5 TBLite/Diag 0.40E+00    0.0     0.00000237       -63.6468734501 -2.71E-11
     6 TBLite/Diag 0.40E+00    0.0     0.00000029       -63.6468734501 -6.47E-13
     7 TBLite/Diag 0.40E+00    0.0     7.2340E-09       -63.6468734501 -1.49E-13
     8 TBLite/Diag 0.40E+00    0.0     1.4003E-09       -63.6468734501  1.07E-13
     9 TBLite/Diag 0.40E+00    0.0     4.0122E-11       -63.6468734501 -2.84E-14

  *** SCF run converged in     9 steps ***


  Core Hamiltonian energy:                                    -64.76105447446599
  Repulsive potential energy:                                   1.19884629805903
  Electrostatic energy:                                         0.00212010216113
  Self-consistent dispersion energy:                            0.00000000000000
  Non-self consistent dispersion energy:                       -0.08678537585254
  Correction for halogen bonding:                               0.00000000000000
  Electronic entropic energy:                                  -0.00000000000000
  Fermi energy:                                                -0.30339352525310

  Total energy:                                               -63.64687345009837
  Total energy (extrapolated to T->0):                        -63.64687345009837

 ENERGY| Total FORCE_EVAL ( QS ) energy [hartree]            -63.646873450098369

 OPT| **************************************************************************
 OPT| Step number                                                              4
 OPT| Optimization method                                                   BFGS
 OPT| Total energy [hartree]                                      -63.6468734501
 OPT| Internal pressure [bar]                                      34.8957352023
 OPT| Effective energy change [hartree]                            -0.0001119092
 OPT| Predicted energy change [hartree]                            -0.0000714991
 OPT| Scaling factor                                                0.0000000000
 OPT| Step size                                                     0.0105502296
 OPT| Trust radius                                                  0.4724315332
 OPT| Decrease in energy                                                     YES
 OPT| Used time [s]                                                        0.353
 OPT|
 OPT| Maximum step size                                             0.0105502296
 OPT| Convergence limit for maximum step size                       0.0030000000
 OPT| Maximum step size is converged                                          NO
 OPT|
 OPT| RMS step size                                                 0.0016704267
 OPT| Convergence limit for RMS step size                           0.0015000000
 OPT| RMS step size is converged                                              NO
 OPT|
 OPT| Maximum gradient                                              0.0013717070
 OPT| Convergence limit for maximum gradient                        0.0004500000
 OPT| Maximum gradient is converged                                           NO
 OPT|
 OPT| RMS gradient                                                  0.0007021372
 OPT| Convergence limit for RMS gradient                            0.0003000000
 OPT| RMS gradient is converged                                               NO
 OPT|
 OPT| Pressure deviation [bar]                                     34.8957352023
 OPT| Pressure tolerance [bar]                                    100.0000000000
 OPT| Pressure is converged                                                  YES
 OPT| **************************************************************************
 OPT| Estimated peak process memory after this step [MiB]                    174

 --------------------------
 OPTIMIZATION STEP:      5
 --------------------------

 CELL| Volume [angstrom^3]:                                           468.625308
 CELL| Vector a [angstrom]:       7.361     0.000     0.000   |a| =     7.361034
 CELL| Vector b [angstrom]:       0.000     9.399     0.000   |b| =     9.399398
 CELL| Vector c [angstrom]:       0.000     0.000     6.773   |c| =     6.773091
 CELL| Angle (b,c), alpha [degree]:                                    90.000000
 CELL| Angle (a,c), beta  [degree]:                                    90.000000
 CELL| Angle (a,b), gamma [degree]:                                    90.000000
 CELL| Numerically orthorhombic:                                             YES
 CELL| Periodicity                                                           XYZ

 Extrapolation method: ASPC

 Number of electrons:                                                        120
 Number of occupied orbitals:                                                 60
 Number of molecular orbitals:                                               144

 Number of orbital functions:                                                144
 Number of independent orbital functions:                                    144


 SCF WAVEFUNCTION OPTIMIZATION

  Step     Update method      Time    Convergence         Total energy    Change
  ------------------------------------------------------------------------------
     1 TBLite/Diag 0.40E+00    0.0     0.00291905       -63.6470292102 -6.36E+01
     2 TBLite/Diag 0.40E+00    0.0     0.00005040       -63.6470292647 -5.44E-08
     3 TBLite/Diag 0.40E+00    0.0     0.00003340       -63.6470292680 -3.30E-09
     4 TBLite/Diag 0.40E+00    0.0     0.00000320       -63.6470292680 -2.43E-11
     5 TBLite/Diag 0.40E+00    0.0     0.00000391       -63.6470292680 -5.34E-11
     6 TBLite/Diag 0.40E+00    0.0     0.00000048       -63.6470292680 -1.99E-12
     7 TBLite/Diag 0.40E+00    0.0     0.00000007       -63.6470292680 -2.06E-13
     8 TBLite/Diag 0.40E+00    0.0     3.6238E-09       -63.6470292680  2.06E-13
     9 TBLite/Diag 0.40E+00    0.0     2.8198E-10       -63.6470292680  8.53E-14

  *** SCF run converged in     9 steps ***


  Core Hamiltonian energy:                                    -64.76329985083264
  Repulsive potential energy:                                   1.20115983920637
  Electrostatic energy:                                         0.00211382217805
  Self-consistent dispersion energy:                            0.00000000000000
  Non-self consistent dispersion energy:                       -0.08700307859852
  Correction for halogen bonding:                               0.00000000000000
  Electronic entropic energy:                                  -0.00000000000000
  Fermi energy:                                                -0.30339093293061

  Total energy:                                               -63.64702926804674
  Total energy (extrapolated to T->0):                        -63.64702926804674

 ENERGY| Total FORCE_EVAL ( QS ) energy [hartree]            -63.647029268046737

 OPT| **************************************************************************
 OPT| Step number                                                              5
 OPT| Optimization method                                                   BFGS
 OPT| Total energy [hartree]                                      -63.6470292680
 OPT| Internal pressure [bar]                                     929.5889228181
 OPT| Effective energy change [hartree]                            -0.0001558179
 OPT| Predicted energy change [hartree]                            -0.0001126137
 OPT| Scaling factor                                                0.0000000000
 OPT| Step size                                                     0.0168923951
 OPT| Trust radius                                                  0.4724315332
 OPT| Decrease in energy                                                     YES
 OPT| Used time [s]                                                        0.353
 OPT|
 OPT| Maximum step size                                             0.0168923951
 OPT| Convergence limit for maximum step size                       0.0030000000
 OPT| Maximum step size is converged                                          NO
 OPT|
 OPT| RMS step size                                                 0.0030573027
 OPT| Convergence limit for RMS step size                           0.0015000000
 OPT| RMS step size is converged                                              NO
 OPT|
 OPT| Maximum gradient                                              0.0013201171
 OPT| Convergence limit for maximum gradient                        0.0004500000
 OPT| Maximum gradient is converged                                           NO
 OPT|
 OPT| RMS gradient                                                  0.0007015679
 OPT| Convergence limit for RMS gradient                            0.0003000000
 OPT| RMS gradient is converged                                               NO
 OPT|
 OPT| Pressure deviation [bar]                                    929.5889228181
 OPT| Pressure tolerance [bar]                                    100.0000000000
 OPT| Pressure is converged                                                   NO
 OPT| **************************************************************************
 OPT| Estimated peak process memory after this step [MiB]                    175

 --------------------------
 OPTIMIZATION STEP:      6
 --------------------------

 CELL| Volume [angstrom^3]:                                           467.797454
 CELL| Vector a [angstrom]:       7.356     0.000     0.000   |a| =     7.356434
 CELL| Vector b [angstrom]:       0.000     9.398     0.000   |b| =     9.398210
 CELL| Vector c [angstrom]:       0.000     0.000     6.766   |c| =     6.766209
 CELL| Angle (b,c), alpha [degree]:                                    90.000000
 CELL| Angle (a,c), beta  [degree]:                                    90.000000
 CELL| Angle (a,b), gamma [degree]:                                    90.000000
 CELL| Numerically orthorhombic:                                             YES
 CELL| Periodicity                                                           XYZ

 Extrapolation method: ASPC

 Number of electrons:                                                        120
 Number of occupied orbitals:                                                 60
 Number of molecular orbitals:                                               144

 Number of orbital functions:                                                144
 Number of independent orbital functions:                                    144


 SCF WAVEFUNCTION OPTIMIZATION

  Step     Update method      Time    Convergence         Total energy    Change
  ------------------------------------------------------------------------------
     1 TBLite/Diag 0.40E+00    0.0     0.00247238       -63.6471490486 -6.36E+01
     2 TBLite/Diag 0.40E+00    0.0     0.00005049       -63.6471490874 -3.88E-08
     3 TBLite/Diag 0.40E+00    0.0     0.00001276       -63.6471490884 -9.71E-10
     4 TBLite/Diag 0.40E+00    0.0     0.00000452       -63.6471490884 -1.05E-11
     5 TBLite/Diag 0.40E+00    0.0     0.00000229       -63.6471490884 -1.98E-11
     6 TBLite/Diag 0.40E+00    0.0     0.00000012       -63.6471490884 -3.06E-13
     7 TBLite/Diag 0.40E+00    0.0     0.00000001       -63.6471490884  2.70E-13
     8 TBLite/Diag 0.40E+00    0.0     2.2089E-09       -63.6471490884 -2.20E-13
     9 TBLite/Diag 0.40E+00    0.0     1.2288E-10       -63.6471490884  1.78E-13

  *** SCF run converged in     9 steps ***


  Core Hamiltonian energy:                                    -64.76106878742637
  Repulsive potential energy:                                   1.19898727271479
  Electrostatic energy:                                         0.00210804919827
  Self-consistent dispersion energy:                            0.00000000000000
  Non-self consistent dispersion energy:                       -0.08717562288496
  Correction for halogen bonding:                               0.00000000000000
  Electronic entropic energy:                                  -0.00000000000000
  Fermi energy:                                                -0.30349438595337

  Total energy:                                               -63.64714908839826
  Total energy (extrapolated to T->0):                        -63.64714908839826

 ENERGY| Total FORCE_EVAL ( QS ) energy [hartree]            -63.647149088398258

 OPT| **************************************************************************
 OPT| Step number                                                              6
 OPT| Optimization method                                                   BFGS
 OPT| Total energy [hartree]                                      -63.6471490884
 OPT| Internal pressure [bar]                                     158.4091780519
 OPT| Effective energy change [hartree]                            -0.0001198204
 OPT| Predicted energy change [hartree]                            -0.0000794971
 OPT| Scaling factor                                                0.0000000000
 OPT| Step size                                                     0.0130047684
 OPT| Trust radius                                                  0.4724315332
 OPT| Decrease in energy                                                     YES
 OPT| Used time [s]                                                        0.353
 OPT|
 OPT| Maximum step size                                             0.0130047684
 OPT| Convergence limit for maximum step size                       0.0030000000
 OPT| Maximum step size is converged                                          NO
 OPT|
 OPT| RMS step size                                                 0.0028384815
 OPT| Convergence limit for RMS step size                           0.0015000000
 OPT| RMS step size is converged                                              NO
 OPT|
 OPT| Maximum gradient                                              0.0016442259
 OPT| Convergence limit for maximum gradient                        0.0004500000
 OPT| Maximum gradient is converged                                           NO
 OPT|
 OPT| RMS gradient                                                  0.0007225840
 OPT| Convergence limit for RMS gradient                            0.0003000000
 OPT| RMS gradient is converged                                               NO
 OPT|
 OPT| Pressure deviation [bar]                                    158.4091780519
 OPT| Pressure tolerance [bar]                                    100.0000000000
 OPT| Pressure is converged                                                   NO
 OPT| **************************************************************************
 OPT| Estimated peak process memory after this step [MiB]                    175

 --------------------------
 OPTIMIZATION STEP:      7
 --------------------------

 CELL| Volume [angstrom^3]:                                           466.754970
 CELL| Vector a [angstrom]:       7.351     0.000     0.000   |a| =     7.350791
 CELL| Vector b [angstrom]:       0.000     9.396     0.000   |b| =     9.395933
 CELL| Vector c [angstrom]:       0.000     0.000     6.758   |c| =     6.757950
 CELL| Angle (b,c), alpha [degree]:                                    90.000000
 CELL| Angle (a,c), beta  [degree]:                                    90.000000
 CELL| Angle (a,b), gamma [degree]:                                    90.000000
 CELL| Numerically orthorhombic:                                             YES
 CELL| Periodicity                                                           XYZ

 Extrapolation method: ASPC

 Number of electrons:                                                        120
 Number of occupied orbitals:                                                 60
 Number of molecular orbitals:                                               144

 Number of orbital functions:                                                144
 Number of independent orbital functions:                                    144


 SCF WAVEFUNCTION OPTIMIZATION

  Step     Update method      Time    Convergence         Total energy    Change
  ------------------------------------------------------------------------------
     1 TBLite/Diag 0.40E+00    0.0     0.00279167       -63.6472927494 -6.36E+01
     2 TBLite/Diag 0.40E+00    0.0     0.00005037       -63.6472927891 -3.97E-08
     3 TBLite/Diag 0.40E+00    0.0     0.00000961       -63.6472927894 -2.49E-10
     4 TBLite/Diag 0.40E+00    0.0     0.00000098       -63.6472927894 -1.14E-11
     5 TBLite/Diag 0.40E+00    0.0     0.00000121       -63.6472927894 -6.37E-12
     6 TBLite/Diag 0.40E+00    0.0     0.00000026       -63.6472927894 -6.39E-14
     7 TBLite/Diag 0.40E+00    0.0     0.00000004       -63.6472927894 -1.35E-13
     8 TBLite/Diag 0.40E+00    0.0     4.7273E-10       -63.6472927894  2.27E-13

  *** SCF run converged in     8 steps ***


  Core Hamiltonian energy:                                    -64.75518232434715
  Repulsive potential energy:                                   1.19319084439487
  Electrostatic energy:                                         0.00209898258433
  Self-consistent dispersion energy:                            0.00000000000000
  Non-self consistent dispersion energy:                       -0.08740029202911
  Correction for halogen bonding:                               0.00000000000000
  Electronic entropic energy:                                  -0.00000000000000
  Fermi energy:                                                -0.30373387478515

  Total energy:                                               -63.64729278939706
  Total energy (extrapolated to T->0):                        -63.64729278939706

 ENERGY| Total FORCE_EVAL ( QS ) energy [hartree]            -63.647292789397063

 OPT| **************************************************************************
 OPT| Step number                                                              7
 OPT| Optimization method                                                   BFGS
 OPT| Total energy [hartree]                                      -63.6472927894
 OPT| Internal pressure [bar]                                   -1948.2604592542
 OPT| Effective energy change [hartree]                            -0.0001437010
 OPT| Predicted energy change [hartree]                            -0.0001013069
 OPT| Scaling factor                                                0.0000000000
 OPT| Step size                                                     0.0156066344
 OPT| Trust radius                                                  0.4724315332
 OPT| Decrease in energy                                                     YES
 OPT| Used time [s]                                                        0.349
 OPT|
 OPT| Maximum step size                                             0.0156066344
 OPT| Convergence limit for maximum step size                       0.0030000000
 OPT| Maximum step size is converged                                          NO
 OPT|
 OPT| RMS step size                                                 0.0039528651
 OPT| Convergence limit for RMS step size                           0.0015000000
 OPT| RMS step size is converged                                              NO
 OPT|
 OPT| Maximum gradient                                              0.0030741751
 OPT| Convergence limit for maximum gradient                        0.0004500000
 OPT| Maximum gradient is converged                                           NO
 OPT|
 OPT| RMS gradient                                                  0.0007176492
 OPT| Convergence limit for RMS gradient                            0.0003000000
 OPT| RMS gradient is converged                                               NO
 OPT|
 OPT| Pressure deviation [bar]                                  -1948.2604592542
 OPT| Pressure tolerance [bar]                                    100.0000000000
 OPT| Pressure is converged                                                   NO
 OPT| **************************************************************************
 OPT| Estimated peak process memory after this step [MiB]                    175

 --------------------------
 OPTIMIZATION STEP:      8
 --------------------------

 CELL| Volume [angstrom^3]:                                           465.724899
 CELL| Vector a [angstrom]:       7.345     0.000     0.000   |a| =     7.345453
 CELL| Vector b [angstrom]:       0.000     9.392     0.000   |b| =     9.391810
 CELL| Vector c [angstrom]:       0.000     0.000     6.751   |c| =     6.750898
 CELL| Angle (b,c), alpha [degree]:                                    90.000000
 CELL| Angle (a,c), beta  [degree]:                                    90.000000
 CELL| Angle (a,b), gamma [degree]:                                    90.000000
 CELL| Numerically orthorhombic:                                             YES
 CELL| Periodicity                                                           XYZ

 Extrapolation method: ASPC

 Number of electrons:                                                        120
 Number of occupied orbitals:                                                 60
 Number of molecular orbitals:                                               144

 Number of orbital functions:                                                144
 Number of independent orbital functions:                                    144


 SCF WAVEFUNCTION OPTIMIZATION

  Step     Update method      Time    Convergence         Total energy    Change
  ------------------------------------------------------------------------------
     1 TBLite/Diag 0.40E+00    0.0     0.00200220       -63.6474174924 -6.36E+01
     2 TBLite/Diag 0.40E+00    0.0     0.00003841       -63.6474175141 -2.17E-08
     3 TBLite/Diag 0.40E+00    0.0     0.00001144       -63.6474175145 -3.67E-10
     4 TBLite/Diag 0.40E+00    0.0     0.00000086       -63.6474175145 -1.16E-11
     5 TBLite/Diag 0.40E+00    0.0     0.00000138       -63.6474175145 -8.37E-12
     6 TBLite/Diag 0.40E+00    0.0     0.00000019       -63.6474175145 -1.42E-13
     7 TBLite/Diag 0.40E+00    0.0     0.00000003       -63.6474175145  1.42E-14
     8 TBLite/Diag 0.40E+00    0.0     1.7022E-09       -63.6474175145  6.39E-14
     9 TBLite/Diag 0.40E+00    0.0     3.4555E-10       -63.6474175145 -1.56E-13

  *** SCF run converged in     9 steps ***


  Core Hamiltonian energy:                                    -64.74947822135788
  Repulsive potential energy:                                   1.18759495842987
  Electrostatic energy:                                         0.00208831368959
  Self-consistent dispersion energy:                            0.00000000000000
  Non-self consistent dispersion energy:                       -0.08762256525800
  Correction for halogen bonding:                               0.00000000000000
  Electronic entropic energy:                                  -0.00000000000000
  Fermi energy:                                                -0.30399022911359

  Total energy:                                               -63.64741751449641
  Total energy (extrapolated to T->0):                        -63.64741751449641

 ENERGY| Total FORCE_EVAL ( QS ) energy [hartree]            -63.647417514496411

 OPT| **************************************************************************
 OPT| Step number                                                              8
 OPT| Optimization method                                                   BFGS
 OPT| Total energy [hartree]                                      -63.6474175145
 OPT| Internal pressure [bar]                                   -3984.7506851247
 OPT| Effective energy change [hartree]                            -0.0001247251
 OPT| Predicted energy change [hartree]                            -0.0000848641
 OPT| Scaling factor                                                0.0000000000
 OPT| Step size                                                     0.0133268119
 OPT| Trust radius                                                  0.4724315332
 OPT| Decrease in energy                                                     YES
 OPT| Used time [s]                                                        0.354
 OPT|
 OPT| Maximum step size                                             0.0133268119
 OPT| Convergence limit for maximum step size                       0.0030000000
 OPT| Maximum step size is converged                                          NO
 OPT|
 OPT| RMS step size                                                 0.0037315994
 OPT| Convergence limit for RMS step size                           0.0015000000
 OPT| RMS step size is converged                                              NO
 OPT|
 OPT| Maximum gradient                                              0.0048562120
 OPT| Convergence limit for maximum gradient                        0.0004500000
 OPT| Maximum gradient is converged                                           NO
 OPT|
 OPT| RMS gradient                                                  0.0006991233
 OPT| Convergence limit for RMS gradient                            0.0003000000
 OPT| RMS gradient is converged                                               NO
 OPT|
 OPT| Pressure deviation [bar]                                  -3984.7506851247
 OPT| Pressure tolerance [bar]                                    100.0000000000
 OPT| Pressure is converged                                                   NO
 OPT| **************************************************************************
 OPT| Estimated peak process memory after this step [MiB]                    175

 --------------------------
 OPTIMIZATION STEP:      9
 --------------------------

 CELL| Volume [angstrom^3]:                                           464.348719
 CELL| Vector a [angstrom]:       7.339     0.000     0.000   |a| =     7.338520
 CELL| Vector b [angstrom]:       0.000     9.384     0.000   |b| =     9.383924
 CELL| Vector c [angstrom]:       0.000     0.000     6.743   |c| =     6.742970
 CELL| Angle (b,c), alpha [degree]:                                    90.000000
 CELL| Angle (a,c), beta  [degree]:                                    90.000000
 CELL| Angle (a,b), gamma [degree]:                                    90.000000
 CELL| Numerically orthorhombic:                                             YES
 CELL| Periodicity                                                           XYZ

 Extrapolation method: ASPC

 Number of electrons:                                                        120
 Number of occupied orbitals:                                                 60
 Number of molecular orbitals:                                               144

 Number of orbital functions:                                                144
 Number of independent orbital functions:                                    144


 SCF WAVEFUNCTION OPTIMIZATION

  Step     Update method      Time    Convergence         Total energy    Change
  ------------------------------------------------------------------------------
     1 TBLite/Diag 0.40E+00    0.0     0.00195485       -63.6475535589 -6.36E+01
     2 TBLite/Diag 0.40E+00    0.0     0.00004207       -63.6475535939 -3.50E-08
     3 TBLite/Diag 0.40E+00    0.0     0.00001237       -63.6475535948 -9.54E-10
     4 TBLite/Diag 0.40E+00    0.0     0.00000242       -63.6475535948  1.49E-12
     5 TBLite/Diag 0.40E+00    0.0     0.00000190       -63.6475535948 -2.34E-11
     6 TBLite/Diag 0.40E+00    0.0     0.00000028       -63.6475535948  8.53E-14
     7 TBLite/Diag 0.40E+00    0.0     0.00000001       -63.6475535948  4.97E-14
     8 TBLite/Diag 0.40E+00    0.0     2.2452E-09       -63.6475535948 -4.97E-14
     9 TBLite/Diag 0.40E+00    0.0     1.1725E-10       -63.6475535948 -2.20E-13

  *** SCF run converged in     9 steps ***


  Core Hamiltonian energy:                                    -64.74547888229627
  Repulsive potential energy:                                   1.18376427555862
  Electrostatic energy:                                         0.00207316195673
  Self-consistent dispersion energy:                            0.00000000000000
  Non-self consistent dispersion energy:                       -0.08791215005079
  Correction for halogen bonding:                               0.00000000000000
  Electronic entropic energy:                                  -0.00000000000000
  Fermi energy:                                                -0.30423488902914

  Total energy:                                               -63.64755359483171
  Total energy (extrapolated to T->0):                        -63.64755359483171

 ENERGY| Total FORCE_EVAL ( QS ) energy [hartree]            -63.647553594831713

 OPT| **************************************************************************
 OPT| Step number                                                              9
 OPT| Optimization method                                                   BFGS
 OPT| Total energy [hartree]                                      -63.6475535948
 OPT| Internal pressure [bar]                                   -5345.5086305458
 OPT| Effective energy change [hartree]                            -0.0001360803
 OPT| Predicted energy change [hartree]                            -0.0000921068
 OPT| Scaling factor                                                0.0000000000
 OPT| Step size                                                     0.0149807690
 OPT| Trust radius                                                  0.4724315332
 OPT| Decrease in energy                                                     YES
 OPT| Used time [s]                                                        0.353
 OPT|
 OPT| Maximum step size                                             0.0149807690
 OPT| Convergence limit for maximum step size                       0.0030000000
 OPT| Maximum step size is converged                                          NO
 OPT|
 OPT| RMS step size                                                 0.0042305646
 OPT| Convergence limit for RMS step size                           0.0015000000
 OPT| RMS step size is converged                                              NO
 OPT|
 OPT| Maximum gradient                                              0.0056688801
 OPT| Convergence limit for maximum gradient                        0.0004500000
 OPT| Maximum gradient is converged                                           NO
 OPT|
 OPT| RMS gradient                                                  0.0007209301
 OPT| Convergence limit for RMS gradient                            0.0003000000
 OPT| RMS gradient is converged                                               NO
 OPT|
 OPT| Pressure deviation [bar]                                  -5345.5086305458
 OPT| Pressure tolerance [bar]                                    100.0000000000
 OPT| Pressure is converged                                                   NO
 OPT| **************************************************************************
 OPT| Estimated peak process memory after this step [MiB]                    175

 --------------------------
 OPTIMIZATION STEP:     10
 --------------------------

 CELL| Volume [angstrom^3]:                                           462.442772
 CELL| Vector a [angstrom]:       7.329     0.000     0.000   |a| =     7.328899
 CELL| Vector b [angstrom]:       0.000     9.371     0.000   |b| =     9.371261
 CELL| Vector c [angstrom]:       0.000     0.000     6.733   |c| =     6.733196
 CELL| Angle (b,c), alpha [degree]:                                    90.000000
 CELL| Angle (a,c), beta  [degree]:                                    90.000000
 CELL| Angle (a,b), gamma [degree]:                                    90.000000
 CELL| Numerically orthorhombic:                                             YES
 CELL| Periodicity                                                           XYZ

 Extrapolation method: ASPC

 Number of electrons:                                                        120
 Number of occupied orbitals:                                                 60
 Number of molecular orbitals:                                               144

 Number of orbital functions:                                                144
 Number of independent orbital functions:                                    144


 SCF WAVEFUNCTION OPTIMIZATION

  Step     Update method      Time    Convergence         Total energy    Change
  ------------------------------------------------------------------------------
     1 TBLite/Diag 0.40E+00    0.0     0.00210326       -63.6477024748 -6.36E+01
     2 TBLite/Diag 0.40E+00    0.0     0.00005412       -63.6477025340 -5.92E-08
     3 TBLite/Diag 0.40E+00    0.0     0.00001771       -63.6477025355 -1.46E-09
     4 TBLite/Diag 0.40E+00    0.0     0.00000563       -63.6477025355  1.90E-12
     5 TBLite/Diag 0.40E+00    0.0     0.00000280       -63.6477025355 -4.41E-11
     6 TBLite/Diag 0.40E+00    0.0     0.00000042       -63.6477025355 -7.46E-13
     7 TBLite/Diag 0.40E+00    0.0     8.6492E-09       -63.6477025355  5.68E-14
     8 TBLite/Diag 0.40E+00    0.0     1.2903E-09       -63.6477025355 -3.55E-14
     9 TBLite/Diag 0.40E+00    0.0     4.6343E-10       -63.6477025355 -3.55E-14

  *** SCF run converged in     9 steps ***


  Core Hamiltonian energy:                                    -64.74498751193707
  Repulsive potential energy:                                   1.18353642810020
  Electrostatic energy:                                         0.00205232956285
  Self-consistent dispersion energy:                            0.00000000000000
  Non-self consistent dispersion energy:                       -0.08830378125950
  Correction for halogen bonding:                               0.00000000000000
  Electronic entropic energy:                                  -0.00000000000000
  Fermi energy:                                                -0.30440942095152

  Total energy:                                               -63.64770253553352
  Total energy (extrapolated to T->0):                        -63.64770253553352

 ENERGY| Total FORCE_EVAL ( QS ) energy [hartree]            -63.647702535533519

 OPT| **************************************************************************
 OPT| Step number                                                             10
 OPT| Optimization method                                                   BFGS
 OPT| Total energy [hartree]                                      -63.6477025355
 OPT| Internal pressure [bar]                                   -5315.7649888430
 OPT| Effective energy change [hartree]                            -0.0001489407
 OPT| Predicted energy change [hartree]                            -0.0000996882
 OPT| Scaling factor                                                0.0000000000
 OPT| Step size                                                     0.0239303606
 OPT| Trust radius                                                  0.4724315332
 OPT| Decrease in energy                                                     YES
 OPT| Used time [s]                                                        0.361
 OPT|
 OPT| Maximum step size                                             0.0239303606
 OPT| Convergence limit for maximum step size                       0.0030000000
 OPT| Maximum step size is converged                                          NO
 OPT|
 OPT| RMS step size                                                 0.0048828016
 OPT| Convergence limit for RMS step size                           0.0015000000
 OPT| RMS step size is converged                                              NO
 OPT|
 OPT| Maximum gradient                                              0.0049750975
 OPT| Convergence limit for maximum gradient                        0.0004500000
 OPT| Maximum gradient is converged                                           NO
 OPT|
 OPT| RMS gradient                                                  0.0007629477
 OPT| Convergence limit for RMS gradient                            0.0003000000
 OPT| RMS gradient is converged                                               NO
 OPT|
 OPT| Pressure deviation [bar]                                  -5315.7649888430
 OPT| Pressure tolerance [bar]                                    100.0000000000
 OPT| Pressure is converged                                                   NO
 OPT| **************************************************************************
 OPT| Estimated peak process memory after this step [MiB]                    175

 --------------------------
 OPTIMIZATION STEP:     11
 --------------------------

 CELL| Volume [angstrom^3]:                                           459.967449
 CELL| Vector a [angstrom]:       7.316     0.000     0.000   |a| =     7.316092
 CELL| Vector b [angstrom]:       0.000     9.354     0.000   |b| =     9.354137
 CELL| Vector c [angstrom]:      -0.000     0.000     6.721   |c| =     6.721160
 CELL| Angle (b,c), alpha [degree]:                                    90.000000
 CELL| Angle (a,c), beta  [degree]:                                    90.000000
 CELL| Angle (a,b), gamma [degree]:                                    90.000000
 CELL| Numerically orthorhombic:                                              NO
 CELL| Periodicity                                                           XYZ

 Extrapolation method: ASPC

 Number of electrons:                                                        120
 Number of occupied orbitals:                                                 60
 Number of molecular orbitals:                                               144

 Number of orbital functions:                                                144
 Number of independent orbital functions:                                    144


 SCF WAVEFUNCTION OPTIMIZATION

  Step     Update method      Time    Convergence         Total energy    Change
  ------------------------------------------------------------------------------
     1 TBLite/Diag 0.40E+00    0.0     0.00234767       -63.6478572439 -6.36E+01
     2 TBLite/Diag 0.40E+00    0.0     0.00007750       -63.6478573447 -1.01E-07
     3 TBLite/Diag 0.40E+00    0.0     0.00002192       -63.6478573482 -3.58E-09
     4 TBLite/Diag 0.40E+00    0.0     0.00000584       -63.6478573482  6.96E-12
     5 TBLite/Diag 0.40E+00    0.0     0.00000289       -63.6478573483 -8.00E-11
     6 TBLite/Diag 0.40E+00    0.0     0.00000050       -63.6478573483 -1.61E-12
     7 TBLite/Diag 0.40E+00    0.0     0.00000012       -63.6478573483  6.39E-14
     8 TBLite/Diag 0.40E+00    0.0     2.7404E-09       -63.6478573483 -1.85E-13
     9 TBLite/Diag 0.40E+00    0.0     7.4179E-11       -63.6478573483  1.42E-14

  *** SCF run converged in     9 steps ***


  Core Hamiltonian energy:                                    -64.74840354066154
  Repulsive potential energy:                                   1.18732735489900
  Electrostatic energy:                                         0.00202597322427
  Self-consistent dispersion energy:                            0.00000000000000
  Non-self consistent dispersion energy:                       -0.08880713577950
  Correction for halogen bonding:                               0.00000000000000
  Electronic entropic energy:                                  -0.00000000000000
  Fermi energy:                                                -0.30447878396415

  Total energy:                                               -63.64785734831778
  Total energy (extrapolated to T->0):                        -63.64785734831778

 ENERGY| Total FORCE_EVAL ( QS ) energy [hartree]            -63.647857348317778

 OPT| **************************************************************************
 OPT| Step number                                                             11
 OPT| Optimization method                                                   BFGS
 OPT| Total energy [hartree]                                      -63.6478573483
 OPT| Internal pressure [bar]                                   -3710.2135697918
 OPT| Effective energy change [hartree]                            -0.0001548128
 OPT| Predicted energy change [hartree]                            -0.0001053288
 OPT| Scaling factor                                                0.0000000000
 OPT| Step size                                                     0.0323583355
 OPT| Trust radius                                                  0.4724315332
 OPT| Decrease in energy                                                     YES
 OPT| Used time [s]                                                        0.355
 OPT|
 OPT| Maximum step size                                             0.0323583355
 OPT| Convergence limit for maximum step size                       0.0030000000
 OPT| Maximum step size is converged                                          NO
 OPT|
 OPT| RMS step size                                                 0.0055193097
 OPT| Convergence limit for RMS step size                           0.0015000000
 OPT| RMS step size is converged                                              NO
 OPT|
 OPT| Maximum gradient                                              0.0031437749
 OPT| Convergence limit for maximum gradient                        0.0004500000
 OPT| Maximum gradient is converged                                           NO
 OPT|
 OPT| RMS gradient                                                  0.0007542976
 OPT| Convergence limit for RMS gradient                            0.0003000000
 OPT| RMS gradient is converged                                               NO
 OPT|
 OPT| Pressure deviation [bar]                                  -3710.2135697918
 OPT| Pressure tolerance [bar]                                    100.0000000000
 OPT| Pressure is converged                                                   NO
 OPT| **************************************************************************
 OPT| Estimated peak process memory after this step [MiB]                    175

 --------------------------
 OPTIMIZATION STEP:     12
 --------------------------

 CELL| Volume [angstrom^3]:                                           457.388016
 CELL| Vector a [angstrom]:       7.302     0.000     0.000   |a| =     7.302160
 CELL| Vector b [angstrom]:       0.000     9.337     0.000   |b| =     9.336530
 CELL| Vector c [angstrom]:      -0.000     0.000     6.709   |c| =     6.708847
 CELL| Angle (b,c), alpha [degree]:                                    90.000000
 CELL| Angle (a,c), beta  [degree]:                                    90.000000
 CELL| Angle (a,b), gamma [degree]:                                    90.000000
 CELL| Numerically orthorhombic:                                              NO
 CELL| Periodicity                                                           XYZ

 Extrapolation method: ASPC

 Number of electrons:                                                        120
 Number of occupied orbitals:                                                 60
 Number of molecular orbitals:                                               144

 Number of orbital functions:                                                144
 Number of independent orbital functions:                                    144


 SCF WAVEFUNCTION OPTIMIZATION

  Step     Update method      Time    Convergence         Total energy    Change
  ------------------------------------------------------------------------------
     1 TBLite/Diag 0.40E+00    0.0     0.00214867       -63.6479958024 -6.36E+01
     2 TBLite/Diag 0.40E+00    0.0     0.00008798       -63.6479959314 -1.29E-07
     3 TBLite/Diag 0.40E+00    0.0     0.00003633       -63.6479959378 -6.36E-09
     4 TBLite/Diag 0.40E+00    0.0     0.00000718       -63.6479959378 -3.05E-11
     5 TBLite/Diag 0.40E+00    0.0     0.00000440       -63.6479959379 -1.20E-10
     6 TBLite/Diag 0.40E+00    0.0     0.00000077       -63.6479959379 -3.35E-12
     7 TBLite/Diag 0.40E+00    0.0     0.00000020       -63.6479959379 -7.11E-15
     8 TBLite/Diag 0.40E+00    0.0     1.6697E-09       -63.6479959379  7.11E-15
     9 TBLite/Diag 0.40E+00    0.0     3.1749E-10       -63.6479959379 -1.07E-13

  *** SCF run converged in     9 steps ***


  Core Hamiltonian energy:                                    -64.75379576129046
  Repulsive potential energy:                                   1.19313318057143
  Electrostatic energy:                                         0.00199935236792
  Self-consistent dispersion energy:                            0.00000000000000
  Non-self consistent dispersion energy:                       -0.08933270958162
  Correction for halogen bonding:                               0.00000000000000
  Electronic entropic energy:                                  -0.00000000000000
  Fermi energy:                                                -0.30445050093672

  Total energy:                                               -63.64799593793274
  Total energy (extrapolated to T->0):                        -63.64799593793274

 ENERGY| Total FORCE_EVAL ( QS ) energy [hartree]            -63.647995937932741

 OPT| **************************************************************************
 OPT| Step number                                                             12
 OPT| Optimization method                                                   BFGS
 OPT| Total energy [hartree]                                      -63.6479959379
 OPT| Internal pressure [bar]                                   -1304.2558641199
 OPT| Effective energy change [hartree]                            -0.0001385896
 OPT| Predicted energy change [hartree]                            -0.0000945662
 OPT| Scaling factor                                                0.0000000000
 OPT| Step size                                                     0.0332722836
 OPT| Trust radius                                                  0.4724315332
 OPT| Decrease in energy                                                     YES
 OPT| Used time [s]                                                        0.356
 OPT|
 OPT| Maximum step size                                             0.0332722836
 OPT| Convergence limit for maximum step size                       0.0030000000
 OPT| Maximum step size is converged                                          NO
 OPT|
 OPT| RMS step size                                                 0.0052791522
 OPT| Convergence limit for RMS step size                           0.0015000000
 OPT| RMS step size is converged                                              NO
 OPT|
 OPT| Maximum gradient                                              0.0020829938
 OPT| Convergence limit for maximum gradient                        0.0004500000
 OPT| Maximum gradient is converged                                           NO
 OPT|
 OPT| RMS gradient                                                  0.0007207081
 OPT| Convergence limit for RMS gradient                            0.0003000000
 OPT| RMS gradient is converged                                               NO
 OPT|
 OPT| Pressure deviation [bar]                                  -1304.2558641199
 OPT| Pressure tolerance [bar]                                    100.0000000000
 OPT| Pressure is converged                                                   NO
[...]
 CELL| Numerically orthorhombic:                                              NO
 CELL| Periodicity                                                           XYZ

 Extrapolation method: ASPC

 Number of electrons:                                                        120
 Number of occupied orbitals:                                                 60
 Number of molecular orbitals:                                               144

 Number of orbital functions:                                                144
 Number of independent orbital functions:                                    144


 SCF WAVEFUNCTION OPTIMIZATION

  Step     Update method      Time    Convergence         Total energy    Change
  ------------------------------------------------------------------------------
     1 TBLite/Diag 0.40E+00    0.0     0.00022061       -63.6497599370 -6.36E+01
     2 TBLite/Diag 0.40E+00    0.0     0.00000581       -63.6497599377 -6.72E-10
     3 TBLite/Diag 0.40E+00    0.0     0.00000396       -63.6497599378 -4.05E-11
     4 TBLite/Diag 0.40E+00    0.0     0.00000044       -63.6497599378 -1.73E-12
     5 TBLite/Diag 0.40E+00    0.0     0.00000042       -63.6497599378 -6.04E-13
     6 TBLite/Diag 0.40E+00    0.0     0.00000006       -63.6497599378 -6.39E-14
     7 TBLite/Diag 0.40E+00    0.0     0.00000002       -63.6497599378  7.11E-15
     8 TBLite/Diag 0.40E+00    0.0     1.4052E-09       -63.6497599378 -1.21E-13
     9 TBLite/Diag 0.40E+00    0.0     1.3205E-10       -63.6497599378  3.20E-13

  *** SCF run converged in     9 steps ***


  Core Hamiltonian energy:                                    -64.74786085701288
  Repulsive potential energy:                                   1.19097241120067
  Electrostatic energy:                                         0.00181882101750
  Self-consistent dispersion energy:                            0.00000000000000
  Non-self consistent dispersion energy:                       -0.09469031296908
  Correction for halogen bonding:                               0.00000000000000
  Electronic entropic energy:                                  -0.00000000000000
  Fermi energy:                                                -0.30572890689032

  Total energy:                                               -63.64975993776379
  Total energy (extrapolated to T->0):                        -63.64975993776379

 ENERGY| Total FORCE_EVAL ( QS ) energy [hartree]            -63.649759937763790

 OPT| **************************************************************************
 OPT| Step number                                                             46
 OPT| Optimization method                                                   BFGS
 OPT| Total energy [hartree]                                      -63.6497599378
 OPT| Internal pressure [bar]                                      38.2318208220
 OPT| Effective energy change [hartree]                            -0.0000008997
 OPT| Predicted energy change [hartree]                            -0.0000007717
 OPT| Scaling factor                                                0.0000000000
 OPT| Step size                                                     0.0022877630
 OPT| Trust radius                                                  0.4724315332
 OPT| Decrease in energy                                                     YES
 OPT| Used time [s]                                                        0.736
 OPT|
 OPT| Maximum step size                                             0.0022877630
 OPT| Convergence limit for maximum step size                       0.0030000000
 OPT| Maximum step size is converged                                         YES
 OPT|
 OPT| RMS step size                                                 0.0003119167
 OPT| Convergence limit for RMS step size                           0.0015000000
 OPT| RMS step size is converged                                             YES
 OPT|
 OPT| Maximum gradient                                              0.0002322557
 OPT| Convergence limit for maximum gradient                        0.0004500000
 OPT| Maximum gradient is converged                                          YES
 OPT|
 OPT| RMS gradient                                                  0.0000378171
 OPT| Convergence limit for RMS gradient                            0.0003000000
 OPT| RMS gradient is converged                                              YES
 OPT|
 OPT| Pressure deviation [bar]                                     38.2318208220
 OPT| Pressure tolerance [bar]                                    100.0000000000
 OPT| Pressure is converged                                                  YES
 OPT| **************************************************************************
 OPT| Estimated peak process memory after this step [MiB]                    175

 *******************************************************************************
 ***                    GEOMETRY OPTIMIZATION COMPLETED                      ***
 *******************************************************************************

 write_final_structure: Optimization converged, writing XYZ file gladly:
  benzene_GFN1_gamma_cell_opt-FINAL-1_46.xyz

 write_final_structure: Optimization converged, writing CIF file gladly:
  benzene_GFN1_gamma_cell_opt-FINAL-1_46.cif

 write_final_structure: Done!

                    Reevaluating energy at the minimum

 CELL| Volume [angstrom^3]:                                           433.417834
 CELL| Vector a [angstrom]:       7.161     0.000     0.000   |a| =     7.160595
 CELL| Vector b [angstrom]:      -0.000     9.066     0.000   |b| =     9.066305
 CELL| Vector c [angstrom]:       0.000     0.000     6.676   |c| =     6.676169
 CELL| Angle (b,c), alpha [degree]:                                    90.000000
 CELL| Angle (a,c), beta  [degree]:                                    90.000000
 CELL| Angle (a,b), gamma [degree]:                                    90.000000
 CELL| Numerically orthorhombic:                                              NO
 CELL| Periodicity                                                           XYZ

 Extrapolation method: ASPC

 Number of electrons:                                                        120
 Number of occupied orbitals:                                                 60
 Number of molecular orbitals:                                               144

 Number of orbital functions:                                                144
 Number of independent orbital functions:                                    144


 SCF WAVEFUNCTION OPTIMIZATION

  Step     Update method      Time    Convergence         Total energy    Change
  ------------------------------------------------------------------------------
     1 TBLite/Diag 0.40E+00    0.0     1.3927E-12       -63.6497599378 -6.36E+01

  *** SCF run converged in     1 steps ***


  Core Hamiltonian energy:                                    -64.74786085701290
  Repulsive potential energy:                                   1.19097241120067
  Electrostatic energy:                                         0.00181882101750
  Self-consistent dispersion energy:                            0.00000000000000
  Non-self consistent dispersion energy:                       -0.09469031296908
  Correction for halogen bonding:                               0.00000000000000
  Electronic entropic energy:                                  -0.00000000000000
  Fermi energy:                                                -0.30572890689083

  Total energy:                                               -63.64975993776380
  Total energy (extrapolated to T->0):                        -63.64975993776380

 ENERGY| Total FORCE_EVAL ( QS ) energy [hartree]            -63.649759937763804

 -------------------------------------------------------------------------------
 -                                                                             -
 -                                DBCSR STATISTICS                             -
 -                                                                             -
 -------------------------------------------------------------------------------
 COUNTER                                    TOTAL       BLAS       SMM       ACC
 flops     2 x    16 x     2             16588800       0.0%    100.0%      0.0%     
 flops     4 x    16 x     2             33177600       0.0%    100.0%      0.0%     
 flops     2 x    16 x     4             33177600       0.0%    100.0%      0.0%     
 flops     4 x    16 x     4             66355200       0.0%    100.0%      0.0%     
 flops     2 x    32 x     2            132710400       0.0%    100.0%      0.0%     
 flops     2 x     2 x   144            175219200       0.0%    100.0%      0.0%     
 flops     2 x    32 x     4            265420800       0.0%    100.0%      0.0%     
 flops     4 x    32 x     2            265420800       0.0%    100.0%      0.0%     
 flops     4 x     2 x   144            336420864       0.0%    100.0%      0.0%     
 flops     2 x     4 x   144            336420864       0.0%    100.0%      0.0%     
 flops     4 x    32 x     4            530841600       0.0%    100.0%      0.0%     
 flops     4 x     4 x   144            700876800       0.0%    100.0%      0.0%     
 flops inhomo. stacks                           0       0.0%      0.0%      0.0%
 flops total                         2.892631E+09       0.0%    100.0%      0.0%
 flops max/rank                      2.892631E+09       0.0%    100.0%      0.0%
 matmuls inhomo. stacks                         0       0.0%      0.0%      0.0%
 matmuls total                            3188232       0.0%    100.0%      0.0%
 number of processed stacks                  5628       0.0%    100.0%      0.0%
 average stack size                                     0.0     566.5       0.0
 marketing flops                     2.605271E+09
 -------------------------------------------------------------------------------
 # multiplications                            732
 max memory usage/rank              13.678625E+09
 # max total images/rank                        1
 # max 3D layers                                1
 # MPI messages exchanged                       0
 -------------------------------------------------------------------------------
 -                                                                             -
 -                      DBCSR MESSAGE PASSING PERFORMANCE                      -
 -                                                                             -
 -------------------------------------------------------------------------------
 ROUTINE             CALLS      AVE VOLUME [Bytes]
 MP_Bcast               13                     12.
 MP_Allreduce         3253                      8.
 MP_Alltoall         22749                 110619.
 MP_ISend             2928                  11144.
 MP_IRecv             2928                  11144.
 -------------------------------------------------------------------------------

 -------------------------------------------------------------------------------
 -                                                                             -
 -                          OFFLOAD MEMPOOL STATISTICS                         -
 -                                                                             -
 -------------------------------------------------------------------------------
 Memory consumption                Number of allocations  Used [MiB]  Size [MiB]
 Device                                                1           0           0
 Host                                                  1           0           0
 -------------------------------------------------------------------------------

 MEMORY| Estimated peak process memory [MiB]                                 175

 -------------------------------------------------------------------------------
 -                                                                             -
 -                         MESSAGE PASSING PERFORMANCE                         -
 -                                                                             -
 -------------------------------------------------------------------------------

 ROUTINE             CALLS      AVE VOLUME [Bytes]
 MP_Group               47
 MP_Bcast             1012                    580.
 MP_Allreduce         7743                    366.
 MP_Sync               553
 MP_comm_split         506
 -------------------------------------------------------------------------------


 -------------------------------------------------------------------------------
 -                                                                             -
 -                           R E F E R E N C E S                               -
 -                                                                             -
 -------------------------------------------------------------------------------
 
 CP2K version 2026.1 (Development Version), the CP2K developers group (2026).
 CP2K is freely available from https://www.cp2k.org/ .
 
 M. Iannuzzi, J. Wilhelm, F. Stein, A. Bussy, H. Elgabarty, D. Golze, A. Hehn, 
 M. Graml, S. Marek, B. Sertcan Gökmen, C. Schran, H. Forbert, R. Z. 
 Khaliullin, A. Kozhevnikov, M. Taillefumier, R. Meli, V. V. Rybkin, M. Brehm, 
 R. Schade, O. Schütt, J. V. Pototschnig, H. Mirhosseini, A. Knüpfer, D. Marx, 
 M. Krack, J. Hutter, T. D. Kühne.
 J. Phys. Chem. B 130, 1237-1310 (2026).
 The CP2K Program Package Made Simple.
 https://doi.org/10.1021/acs.jpcb.5c05851

 A. Katbashev, M. Stahn, T. Rose, V. Alizadeh, M. Friede, C. Plett, P. 
 Steinbach, S. Ehlert.
 J. Phys. Chem. A 129, 2667-2682 (2025).
 Overview on Building Blocks and Applications of Efficient and Robust Extended 
 Tight Binding.
 https://doi.org/10.1021/acs.jpca.4c08263

 T. D. Kühne, M. Iannuzzi, M. Del Ben, V. V. Rybkin, P. Seewald, F. Stein, T. 
 Laino, R. Z. Khaliullin, O. Schütt, F. Schiffmann, D. Golze, J. Wilhelm, S. 
 Chulkov, M. H. Bani-Hashemian, V. Weber, U. Borstnik, M. Taillefumier, A. S. 
 Jakobovits, A. Lazzaro, H. Pabst, T. Müller, R. Schade, M. Guidon, S. 
 Andermatt, N. Holmberg, G. K. Schenter, A. Hehn, A. Bussy, F. Belleflamme, G. 
 Tabacchi, A. Glöß, M. Lass, I. Bethune, C. J. Mundy, C. Plessl, M. Watkins, 
 J. VandeVondele, M. Krack, J. Hutter.
 J. Chem. Phys. 152, 194103 (2020).
 CP2K: An electronic structure and molecular dynamics software package - 
 Quickstep: Efficient and accurate electronic structure calculations.
 https://doi.org/10.1063/5.0007045

 P. Pracht, E. Caldeweyher, S. Ehlert, S. Grimme.
 ChemRxiv, (2019).
 A Robust Non-Self-Consistent Tight-Binding Quantum Chemistry Method for large 
 Molecules.
 https://doi.org/10.26434/chemrxiv.8326202.v1

 S. Grimme, C. Bannwarth, P. Shushkov.
 J. Chem. Theory Comput. 13, 1989 (2017).
 A Robust and Accurate Tight-Binding Quantum Chemical Method for Structures, 
 Vibrational Frequencies, and Noncovalent Interactions of Large Molecular 
 Systems Parametrized for All spd-Block Elements (Z = 1-86).
 https://doi.org/10.1021/acs.jctc.7b00118

 O. Schuett, P. Messmer, J. Hutter, J. VandeVondele.
 Electronic Structure Calculations on Graphics Processing Units, 173-190 (2016).
 GPU-Accelerated Sparse Matrix-Matrix Multiplication for Linear Scaling Density 
 Functional Theory.
 https://doi.org/10.1002/9781118670712.ch8

 A. Heinecke, G. Henry, M. Hutchinson, H. Pabst.
 Proceedings of Intl. Supercomputing Conference, 981-991 (2016).
 LIBXSMM: Accelerating Small Matrix Multiplications by Runtime Code Generation.
 https://doi.org/10.1109/SC.2016.83

 U. Borstnik, J. VandeVondele, V. Weber, J. Hutter.
 Parallel Comput. 40, 47-58 (2014).
 Sparse matrix multiplication: The distributed block-compressed sparse row 
 library.
 https://doi.org/10.1016/j.parco.2014.03.012

 T. D. Kühne, M. Krack, F. R. Mohamed, M. Parrinello.
 Phys. Rev. Lett. 98, 066401 (2007).
 Efficient and accurate Car-Parrinello-like approach to Born-Oppenheimer 
 molecular dynamics.
 https://doi.org/10.1103/PhysRevLett.98.066401

 M. Frigo, S. G. Johnson.
 Proc. IEEE 93, 216-231 (2005).
 The design and implementation of FFTW3.
 https://doi.org/10.1109/JPROC.2004.840301

 J. Kolafa.
 J. Comput. Chem. 25, 335-342 (2004).
 Time-reversible always stable predictor-corrector method for molecular dynamics 
 of polarizable molecules.
 https://doi.org/10.1002/jcc.10385

 N. D. Mermin.
 Phys. Rev. 137, A1441-A1443 (1965).
 Thermal Properties of the Inhomogeneous Electron Gas.
 https://doi.org/10.1103/PhysRev.137.A1441


 -------------------------------------------------------------------------------
 -                                                                             -
 -                                T I M I N G                                  -
 -                                                                             -
 -------------------------------------------------------------------------------
 SUBROUTINE                       CALLS  ASD         SELF TIME        TOTAL TIME
                                MAXIMUM       AVERAGE  MAXIMUM  AVERAGE  MAXIMUM
 CP2K                                 1  1.0    0.003    0.003   18.968   18.968
 cp_cell_opt                          1  2.0    0.000    0.000   18.959   18.959
 geoopt_bfgs                          1  3.0    0.005    0.005   18.959   18.959
 cp_eval_at                          48  4.0    0.005    0.005   18.849   18.849
 qs_forces                           47  5.0    0.003    0.003   18.670   18.670
 build_tblite_matrices               95  7.0    8.085    8.085    8.184    8.184
 rebuild_ks_matrix                  460  9.7    0.001    0.001    7.904    7.904
 build_tblite_ks_matrix             460 10.7    7.898    7.898    7.904    7.904
 qs_ks_update_qs_env_forces          47  6.0    0.000    0.000    7.755    7.755
 qs_energies                         48  6.0    0.002    0.002    6.358    6.358
 qs_energies_init_hamiltonians       48  7.0    0.000    0.000    3.573    3.573
 scf_env_do_scf                      48  7.0    0.001    0.001    2.178    2.178
 scf_env_do_scf_inner_loop          413  8.0    0.052    0.052    2.174    2.174
 qs_scf_new_mos                     413  9.0    0.002    0.002    1.849    1.849
 eigensolver                        413 10.0    0.006    0.006    0.782    0.782
 cp_fm_syevd                        506 10.5    0.001    0.001    0.743    0.743
 cp_fm_syevd_base                   506 11.5    0.703    0.703    0.703    0.703
 cp_dbcsr_plus_fm_fm_t              507 10.8    0.003    0.003    0.591    0.591
 dbcsr_multiply_generic             732 12.0    0.018    0.018    0.562    0.562
 calculate_dm_sparse                460 10.0    0.002    0.002    0.544    0.544
 init_scf_run                        48  7.0    0.000    0.000    0.518    0.518
 dbcsr_complete_redistribute       2290 12.2    0.416    0.416    0.514    0.514
 scf_env_initial_rho_setup           48  8.0    0.000    0.000    0.485    0.485
 wfi_extrapolate                     48  9.0    0.002    0.002    0.484    0.484
 copy_dbcsr_to_fm                  1051 10.6    0.005    0.005    0.480    0.480
 -------------------------------------------------------------------------------

 The number of warnings for this run is : 0
 
 -------------------------------------------------------------------------------
  **** **** ******  **  PROGRAM ENDED AT                 2026-05-23 22:47:08.874
 ***** ** ***  *** **   PROGRAM RAN ON                                spark-c86c
 **    ****   ******    PROGRAM RAN BY                                  kuehne88
 ***** **    ** ** **   PROGRAM PROCESS ID                               2264178
  **** **  *******  **  PROGRAM STOPPED IN /home/kuehne88/periodic-gfn2-benchmar
                                           ks/X23b/runs/cellopt_gamma/GFN1/benze
                                           ne_GFN1_gamma_cellopt
