 GXTB-QUALIFICATION_ONLY ACP-PROJECTOR-CACHE repeatedHit=1 directBypass=1
 GXTB-QUALIFICATION_ONLY ACP-MESH nFull=3 batch=2 blockResidual=  0.0000E+00 foldedResidual=  0.0000E+00
 GXTB-QUALIFICATION_ONLY ACP-PROJECTOR-CACHE repeatedHit=1 directBypass=1
 GXTB-QUALIFICATION_ONLY ACP-MESH nFull=3 batch=2 blockResidual=  0.0000E+00 foldedResidual=  0.0000E+00
 ACP_SPARSE_RESPONSE_QUALIFY residual=  0.0000E+00
 GXTB-ACP-MESH SPARSE-REVERSE projectorImages=5 densityImages=11 fullDifferenceSet=0
 GXTB-QUALIFICATION_ONLY ACP-SPARSE-REVERSE residual=  1.1102E-16 dEdCN=  2.7756E-17 dEdq=  6.9389E-18 gradient=  2.7756E-17 sigma=  1.1102E-16 gate=  1.0000E-07
                  F (U)
 DBCSR| Number of 3D layers                                               SINGLE (U)
 DBCSR| Use MPI memory allocation                                              F (U)
 DBCSR| Use RMA algorithm                                                      F (U)
 DBCSR| Use Communication thread                                               T (U)
 DBCSR| Communication thread load                                             87 (D)
 DBCSR| MPI: My process id                                                     0
 DBCSR| MPI: Number of processes                                               2
 DBCSR| OMP: Current number of threads                                         1
 DBCSR| OMP: Max number of threads                                             1
 DBCSR| Split modifier for TAS multiplication algorithm                  1.0E+00 (U)


  **** **** ******  **  PROGRAM STARTED AT               2026-07-22 16:38:06.165
 ***** ** ***  *** **   PROGRAM STARTED ON                                 terok
 **    ****   ******    PROGRAM STARTED BY                              kuehne88
 ***** **    ** ** **   PROGRAM PROCESS ID                               4014357
  **** **  *******  **  PROGRAM STARTED IN /home/kuehne88/work/gxtb-compact-part
                                           ial-combination-20260722/results/acp-
                                           h2-1d-3x1x1-fixed

 CP2K| version string:                 CP2K version 2026.2 (Development Version)
 CP2K| source code revision number:                                      unknown
 CP2K| cp2kflags: omp parallel scalapack spglib s_dftd3 mctc-lib tblite tblite_g
 CP2K|            xtb
 CP2K| is freely available from                            https://www.cp2k.org/
 CP2K| Program compiled at                                   2026-07-22 16:37:41
 CP2K| Program compiled on                                                 terok
 CP2K| Program compiled for                                               x86_64
 CP2K| Data directory path    /home/kuehne88/work/gxtb-compact-partial-combinati
 CP2K| Input file name                                                 input.inp

 GLOBAL| Force Environment number                                              1
 GLOBAL| Basis set file name                                           BASIS_SET
 GLOBAL| Potential file name                                           POTENTIAL
 GLOBAL| MM Potential file name                                     MM_POTENTIAL
 GLOBAL| Coordinate file name                                      __STD_INPUT__
 GLOBAL| Method name                                                        CP2K
 GLOBAL| Project name                               H2_gxtb_1d_kp_symmetry_fused
 GLOBAL| Run type                                                   ENERGY_FORCE
 GLOBAL| FFT library                                                       FFTW3
 GLOBAL| Diagonalization library                                       ScaLAPACK
 GLOBAL| Cholesky decomposition library                                ScaLAPACK
 GLOBAL| DGEMM library                                                      BLAS
 GLOBAL| Direct generalized diagonalization requested                          F
 GLOBAL| Orthonormality check for eigenvectors                          DISABLED
 GLOBAL| Matrix multiplication library                                 ScaLAPACK
 GLOBAL| All-to-all communication in single precision                          F
 GLOBAL| FFTs using library dependent lengths                                  F
 GLOBAL| Grid backend                                                       AUTO
 GLOBAL| Global print level                                               MEDIUM
 GLOBAL| MPI I/O enabled                                                       T
 GLOBAL| Total number of message passing processes                             2
 GLOBAL| Number of distributed systems (nodes)                                 1
 GLOBAL| Number of threads for this process                                    1
 GLOBAL| This output is from process                                           0
 GLOBAL| OpenMP stack size per thread (OMP_STACKSIZE)                    default
 GLOBAL| CPU model name                                       AMD EPYC Processor
 GLOBAL| CPUID                                                              1002

 MEMORY| system memory details [Kb]
 MEMORY|                        rank 0           min           max       average
 MEMORY| MemTotal            528104804     528104804     528104804     528104804
 MEMORY| MemFree             469670348     469670348     469670348     469670348
 MEMORY| Buffers                    20            20            20            20
 MEMORY| Cached               51667924      51667924      51667924      51667924
 MEMORY| Slab                  3400376       3400376       3400376       3400376
 MEMORY| SReclaimable          1796344       1796344       1796344       1796344
 MEMORY| MemLikelyFree       523134636     523134636     523134636     523134636


 *** WARNING in environment.F:1098 :: FFT library FFTW3 is not available. ***
 *** Trying FFT library FFTSG.                                            ***


 *** Fundamental physical constants (SI units) ***

 *** Literature: B. J. Mohr and B. N. Taylor,
 ***             CODATA recommended values of the fundamental physical
 ***             constants: 2006, Web Version 5.1
 ***             http://physics.nist.gov/constants

 Speed of light in vacuum [m/s]                             2.99792458000000E+08
 Magnetic constant or permeability of vacuum [N/A**2]       1.25663706143592E-06
 Electric constant or permittivity of vacuum [F/m]          8.85418781762039E-12
 Planck constant (h) [J*s]                                  6.62606896000000E-34
 Planck constant (h-bar) [J*s]                              1.05457162825177E-34
 Elementary charge [C]                                      1.60217648700000E-19
 Electron mass [kg]                                         9.10938215000000E-31
 Electron g factor [ ]                                     -2.00231930436220E+00
 Proton mass [kg]                                           1.67262163700000E-27
 Fine-structure constant                                    7.29735253760000E-03
 Rydberg constant [1/m]                                     1.09737315685270E+07
 Avogadro constant [1/mol]                                  6.02214179000000E+23
 Boltzmann constant [J/K]                                   1.38065040000000E-23
 Atomic mass unit [kg]                                      1.66053878200000E-27
 Bohr radius [m]                                            5.29177208590000E-11

 *** Conversion factors ***

 [u] -> [a.u.]                                              1.82288848426455E+03
 [Angstrom] -> [Bohr] = [a.u.]                              1.88972613288564E+00
 [a.u.] = [Bohr] -> [Angstrom]                              5.29177208590000E-01
 [a.u.] -> [s]                                              2.41888432650478E-17
 [a.u.] -> [fs]                                             2.41888432650478E-02
 [a.u.] -> [J]                                              4.35974393937059E-18
 [a.u.] -> [N]                                              8.23872205491840E-08
 [a.u.] -> [K]                                              3.15774647902944E+05
 [a.u.] -> [kJ/mol]                                         2.62549961709828E+03
 [a.u.] -> [kcal/mol]                                       6.27509468713739E+02
 [a.u.] -> [Pa]                                             2.94210107994716E+13
 [a.u.] -> [bar]                                            2.94210107994716E+08
 [a.u.] -> [atm]                                            2.90362800883016E+08
 [a.u.] -> [eV]                                             2.72113838565563E+01
 [a.u.] -> [Hz]                                             6.57968392072181E+15
 [a.u.] -> [1/cm] (wave numbers)                            2.19474631370540E+05
 [a.u./Bohr**2] -> [1/cm]                                   5.14048714338585E+03
 

 CELL| Volume [angstrom^3]:                                          1782.000000
 CELL| Vector a [angstrom]:       5.500     0.000     0.000   |a| =     5.500000
 CELL| Vector b [angstrom]:       0.000    18.000     0.000   |b| =    18.000000
 CELL| Vector c [angstrom]:       0.000     0.000    18.000   |c| =    18.000000
 CELL| Angle (b,c), alpha [degree]:                                    90.000000
 CELL| Angle (a,c), beta  [degree]:                                    90.000000
 CELL| Angle (a,b), gamma [degree]:                                    90.000000
 CELL| Numerically orthorhombic:                                             YES
 CELL| Periodicity                                                             X

 CELL_REF| Volume [angstrom^3]:                                      1782.000000
 CELL_REF| Vector a [angstrom     5.500     0.000     0.000   |a| =     5.500000
 CELL_REF| Vector b [angstrom     0.000    18.000     0.000   |b| =    18.000000
 CELL_REF| Vector c [angstrom     0.000     0.000    18.000   |c| =    18.000000
 CELL_REF| Angle (b,c), alpha [degree]:                                90.000000
 CELL_REF| Angle (a,c), beta  [degree]:                                90.000000
 CELL_REF| Angle (a,b), gamma [degree]:                                90.000000
 CELL_REF| Numerically orthorhombic:                                         YES
 CELL_REF| Periodicity                                                         X

 GENERATE|  Preliminary Number of Bonds generated:                             0
 GENERATE|  Achieved consistency in connectivity generation.


                  #####   #####        #     #   #     #       #          
                 #     # #     #      #    ##### #     #   # #####  ####  
                 #     # #           #       #   ###   #       #   #    # 
                 #     #  #####     #        #   #  #  #   #   #   ###### 
                 #   # #       #   #         #   #   # #   #   #   #      
                 #    #  #     #  #          #   #  #  # # #   #    #   # 
                  #### #  #####  #           #   ###   ##  #   #     ###  

                                     g-xTB   
                                 Version 0.0                       
                            Johann V. Pototschnig                  

                tblite provider: SAVE
                tblite source revision: unknown
                g-xTB support: enabled

 xTB| Parameter file                                             xTB1_parameters
 xTB| Basis expansion STO-NG                                                   6
 xTB| Basis expansion STO-NG for Hydrogen                                      4
 xTB| Repulsive pair potential accuracy                               0.1000E-09
 xTB| Repulsive enhancement factor                                      0.000000
 xTB| Halogen interaction potential                                            T
 xTB| Halogen interaction potential cutoff radius                         20.000
 xTB| Nonbonded interactions                                                   F
 xTB| vdW potential type:                                              DFTD3(BJ)
 xTB| D3 Dispersion: Parameter                                         dftd3.dat
 xTB| Huckel constants ks kp kd                        1.850     2.250     2.000
 xTB| Huckel constants ksp k2sh                                  2.080     2.850
 xTB| Mataga-Nishimoto exponent                                            2.000
 xTB| Repulsion potential exponent                                         1.500
 xTB| Coordination number scaling kcn(s) kcn(p) kc     0.006    -0.003    -0.005
 xTB| Electronegativity scaling                                           -0.007
 xTB| Halogen potential scaling kxr kx2                          1.300     0.440
 xTB| SCC mixer:                                                       AUTO
 xTB| tblite accuracy:                                                 1.000E+00
 xTB| tblite SCC mixer damping:                                            0.400
 xTB| tblite SCC mixer iterations:                                           250
 xTB| tblite SCC mixer memory:                                               250
 xTB| tblite SCC mixer solver:                                         GVD
 xTB| tblite SCC mixer omega0:                                         1.000E-02
 xTB| tblite SCC mixer min weight:                                     1.000E+00
 xTB| tblite SCC mixer max weight:                                     1.000E+05
 xTB| tblite SCC mixer weight factor:                                  1.000E-02




 ATOMIC KIND INFORMATION

  1. Atomic kind: H                                     Number of atoms:       2

     Orbital Basis Set                                                 H _STO-8G

       Number of orbital shell sets:                                           1
       Number of orbital shells:                                               1
       Number of primitive Cartesian functions:                                8
       Number of Cartesian basis functions:                                    1
       Number of spherical basis functions:                                    1
       Norm type:                                                              3

       Normalised Cartesian orbitals:

                        Set   Shell   Orbital            Exponent    Coefficient

                          1       1    1s              337.005012       0.027850
                                                        53.310531       0.054508
                                                        12.208253       0.089812
                                                         3.418827       0.144307
                                                         1.108790       0.167901
                                                         0.478718       0.115754
                                                         0.212137       0.081144
                                                         0.069058       0.019866

     AE Potential information for                                       Hydrogen

       Description:                                       Bare Coulomb Potential
                                                              Full atomic charge

       Gaussian exponent of the core charge distribution:              12.500000
       Electronic configuration (s p d ...):                       1   0   0   0


 MOLECULE KIND INFORMATION


 All atoms are their own molecule, skipping detailed information


 TOTAL NUMBERS AND MAXIMUM NUMBERS

  Total number of            - Atomic kinds:                                   1
                             - Atoms:                                          2
                             - Shell sets:                                     2
                             - Shells:                                         2
                             - Primitive Cartesian functions:                 16
                             - Cartesian basis functions:                      2
                             - Spherical basis functions:                      2

  Maximum angular momentum of the orbital basis functions:                     0


 MODULE QUICKSTEP: ATOMIC COORDINATES IN ANGSTROM

   Atom Kind Element         X             Y             Z       Z(eff)     Mass
      1    1 H     1      1.100000      9.000000      9.000000   1.0000   1.0079
      2    1 H     1      2.000000      9.000000      9.000000   1.0000   1.0079



 SCF PARAMETERS         Density guess:                                     MOPAC
                        --------------------------------------------------------
                        max_scf:                                             300
                        max_scf_history:                                       0
                        max_diis:                                              4
                        --------------------------------------------------------
                        eps_scf:                                        1.00E-10
                        eps_scf_history:                                0.00E+00
                        eps_diis:                                       1.00E-01
                        eps_eigval:                                     1.00E-05
                        --------------------------------------------------------
                        level_shift [a.u.]:                             0.000000
                        added MOs                                         1    0
                        --------------------------------------------------------
                        Mixing method:                           DIRECT_P_MIXING
                        --------------------------------------------------------
                        No outer SCF

 PW_GRID| Information for grid number                                          1
 PW_GRID| Grid distributed over                                     2 processors
 PW_GRID| Real space group dimensions                                     2    1
 PW_GRID| the grid is blocked:                                                NO
 PW_GRID| Cutoff [a.u.]                                                      1.0
 PW_GRID| spherical cutoff:                                                   NO
 PW_GRID|   Bounds   1             -3       2                Points:           6
 PW_GRID|   Bounds   2             -7       7                Points:          15
 PW_GRID|   Bounds   3             -7       7                Points:          15
 PW_GRID| Volume element (a.u.^3)   8.908         Volume (a.u.^3)     12025.5322
 PW_GRID| Grid span                                                    FULLSPACE
 PW_GRID|   Distribution                         Average         Max         Min
 PW_GRID|   G-Vectors                              675.0         678         672
 PW_GRID|   G-Rays                                 112.5         113         112
 PW_GRID|   Real Space Points                      675.0         675         675

 POISSON| Solver                                                        PERIODIC
 POISSON| Periodicity                                                        XYZ

 RS_GRID| Information for grid number                                          1
 RS_GRID|   Bounds   1             -3       2                Points:           6
 RS_GRID|   Bounds   2             -7       7                Points:          15
 RS_GRID|   Bounds   3             -7       7                Points:          15
 RS_GRID| Real space fully replicated
 RS_GRID| Group size                                                           1

 *******************************************************************************
                                    Kpoints
 *******************************************************************************
 BRILLOUIN| K-point scheme                                             MacDonald
 BRILLOUIN| K-Point grid                                             3    1    1
 BRILLOUIN| K-Point shift                             0.0000    0.0000    0.0000
 BRILLOUIN| K-point symmetry accuracy                               0.100000E-05
 BRILLOUIN| K-Point point group symmetrization                               OFF
 BRILLOUIN| Restrict symmetry to inversion                                    ON
 BRILLOUIN| Wavefunction type                                            COMPLEX
 BRILLOUIN| List of Kpoints [2 Pi/Bohr]                                        2
 BRILLOUIN| Number           Weight            X              Y              Z
 BRILLOUIN|     1           0.66667       -0.33333        0.00000        0.00000
 BRILLOUIN|     2           0.33333        0.00000        0.00000        0.00000
 *******************************************************************************
 GXTB-QUALIFICATION_ONLY ACP-PROJECTOR-CACHE repeatedHit=1 directBypass=1
 GXTB-QUALIFICATION_ONLY ACP-MESH nFull=3 batch=2 blockResidual=  0.0000E+00 foldedResidual=  0.0000E+00

 Extrapolation method: initial_guess

 Number of electrons:                                                          2
 Number of occupied orbitals:                                                  1
 Number of molecular orbitals:                                                 2

 Number of orbital functions:                                                  2
 Number of independent orbital functions:                                      2


 SCF WAVEFUNCTION OPTIMIZATION

  Step     Update method      Time    Convergence         Total energy    Change
  ------------------------------------------------------------------------------
 GXTB-SYMMETRY-FUSED-OVERLAP-COVARIANCE maxResidual=  0.000000E+00 maxAdjointResidual=  0.000000E+00 tolerance=  1.000000E-10
 GXTB-QUALIFICATION_ONLY STREAM-ORACLE iter=1 dE=  0.000000E+00 dVsh=  0.000000E+00 dFfold=  0.000000E+00 hermFull=  0.000000E+00 covOracleFull=  0.000000E+00 covOracleFold=  0.000000E+00 dualOracleFold=  0.000000E+00 covStream=  0.000000E+00 dualStream=  0.000000E+00
 GXTB-SYMMETRY-FUSED nred=2, nfull=3, requestedBatch=2, effectiveBatch=2, cachedRepresentativeOverlaps=2, persistentFullExchangeStarMatrices=0
 GXTB-EXCHANGE-TRANSFORM stage=FORWARD backend=MIXED_RADIX_FFT fallback=0 iter=1
 GXTB-QUALIFICATION_ONLY MIXER-STAR iter=1 denseCov=  0.000000E+00 streamCov=  0.000000E+00 streamRoundtrip=  0.000000E+00 covDelta=  0.000000E+00 denseFullComplex=12 streamedPeakComplex=12
 GXTB-QUALIFICATION_ONLY STREAM-ORACLE iter=1 dE=  0.000000E+00 dVsh=  0.000000E+00 dFfold=  5.551115E-17 hermFull=  0.000000E+00 covOracleFull=  2.168404E-19 covOracleFold=  1.084202E-19 dualOracleFold=  0.000000E+00 covStream=  5.551115E-17 dualStream=  0.000000E+00
 GXTB-SYMMETRY-FUSED nred=2, nfull=3, requestedBatch=2, effectiveBatch=2, cachedRepresentativeOverlaps=2, persistentFullExchangeStarMatrices=0
 GXTB-EXCHANGE-TRANSFORM stage=FORWARD backend=MIXED_RADIX_FFT fallback=0 iter=1
     1 GXTB-Raw    0.10E+01    0.0     0.61993373        -1.1541271401 -1.15E+00
 GXTB-QUALIFICATION_ONLY STREAM-ORACLE iter=2 dE=  0.000000E+00 dVsh=  0.000000E+00 dFfold=  5.551115E-17 hermFull=  0.000000E+00 covOracleFull=  2.168404E-19 covOracleFold=  1.084202E-19 dualOracleFold=  0.000000E+00 covStream=  5.551115E-17 dualStream=  0.000000E+00
 GXTB-EXCHANGE-TRANSFORM stage=FORWARD backend=MIXED_RADIX_FFT fallback=0 iter=2
 GXTB-QUALIFICATION_ONLY MIXER-STAR iter=2 denseCov=  0.000000E+00 streamCov=  0.000000E+00 streamRoundtrip=  0.000000E+00 covDelta=  0.000000E+00 denseFullComplex=12 streamedPeakComplex=12
 GXTB-QUALIFICATION_ONLY STREAM-ORACLE iter=2 dE=  0.000000E+00 dVsh=  0.000000E+00 dFfold=  5.551115E-17 hermFull=  0.000000E+00 covOracleFull=  2.775558E-17 covOracleFold=  2.775558E-17 dualOracleFold=  0.000000E+00 covStream=  5.551115E-17 dualStream=  1.485150E-16
 GXTB-EXCHANGE-TRANSFORM stage=FORWARD backend=MIXED_RADIX_FFT fallback=0 iter=2
     2 GXTB-Simple 0.20E+00    0.0     0.00011321        -1.1541271873 -4.72E-08
 GXTB-QUALIFICATION_ONLY STREAM-ORACLE iter=3 dE=  0.000000E+00 dVsh=  0.000000E+00 dFfold=  5.551115E-17 hermFull=  0.000000E+00 covOracleFull=  2.775558E-17 covOracleFold=  2.775558E-17 dualOracleFold=  0.000000E+00 covStream=  5.551115E-17 dualStream=  1.485150E-16
 GXTB-EXCHANGE-TRANSFORM stage=FORWARD backend=MIXED_RADIX_FFT fallback=0 iter=3
 GXTB-QUALIFICATION_ONLY MIXER-STAR iter=3 denseCov=  0.000000E+00 streamCov=  0.000000E+00 streamRoundtrip=  0.000000E+00 covDelta=  0.000000E+00 denseFullComplex=12 streamedPeakComplex=12
 GXTB-QUALIFICATION_ONLY STREAM-ORACLE iter=3 dE=  0.000000E+00 dVsh=  0.000000E+00 dFfold=  2.775558E-17 hermFull=  0.000000E+00 covOracleFull=  0.000000E+00 covOracleFold=  0.000000E+00 dualOracleFold=  0.000000E+00 covStream=  2.775558E-17 dualStream=  0.000000E+00
 GXTB-EXCHANGE-TRANSFORM stage=FORWARD backend=MIXED_RADIX_FFT fallback=0 iter=3
     3 GXTB-Simple 0.20E+00    0.0     0.00009592        -1.1541272204 -3.31E-08
 GXTB-QUALIFICATION_ONLY STREAM-ORACLE iter=4 dE=  0.000000E+00 dVsh=  0.000000E+00 dFfold=  2.775558E-17 hermFull=  0.000000E+00 covOracleFull=  0.000000E+00 covOracleFold=  0.000000E+00 dualOracleFold=  0.000000E+00 covStream=  2.775558E-17 dualStream=  0.000000E+00
 GXTB-EXCHANGE-TRANSFORM stage=FORWARD backend=MIXED_RADIX_FFT fallback=0 iter=4
 GXTB-QUALIFICATION_ONLY MIXER-STAR iter=4 denseCov=  0.000000E+00 streamCov=  0.000000E+00 streamRoundtrip=  0.000000E+00 covDelta=  0.000000E+00 denseFullComplex=12 streamedPeakComplex=12
 GXTB-QUALIFICATION_ONLY STREAM-ORACLE iter=4 dE=  0.000000E+00 dVsh=  0.000000E+00 dFfold=  2.775558E-17 hermFull=  0.000000E+00 covOracleFull=  2.168404E-19 covOracleFold=  1.084202E-19 dualOracleFold=  0.000000E+00 covStream=  2.775558E-17 dualStream=  0.000000E+00
 GXTB-EXCHANGE-TRANSFORM stage=FORWARD backend=MIXED_RADIX_FFT fallback=0 iter=4
     4 GXTB-FDIIS  0.10E+01    0.0     0.00045109        -1.1541272913 -7.09E-08
 GXTB-QUALIFICATION_ONLY STREAM-ORACLE iter=5 dE=  0.000000E+00 dVsh=  0.000000E+00 dFfold=  2.775558E-17 hermFull=  0.000000E+00 covOracleFull=  2.168404E-19 covOracleFold=  1.084202E-19 dualOracleFold=  0.000000E+00 covStream=  2.775558E-17 dualStream=  0.000000E+00
 GXTB-EXCHANGE-TRANSFORM stage=FORWARD backend=MIXED_RADIX_FFT fallback=0 iter=5
 GXTB-QUALIFICATION_ONLY MIXER-STAR iter=5 denseCov=  0.000000E+00 streamCov=  0.000000E+00 streamRoundtrip=  0.000000E+00 covDelta=  0.000000E+00 denseFullComplex=12 streamedPeakComplex=12
 GXTB-QUALIFICATION_ONLY STREAM-ORACLE iter=5 dE=  2.775558E-17 dVsh=  0.000000E+00 dFfold=  2.775558E-17 hermFull=  0.000000E+00 covOracleFull=  2.168404E-19 covOracleFold=  1.084202E-19 dualOracleFold=  0.000000E+00 covStream=  2.775558E-17 dualStream=  1.485150E-16
 GXTB-EXCHANGE-TRANSFORM stage=FORWARD backend=MIXED_RADIX_FFT fallback=0 iter=5
     5 GXTB-FDIIS  0.10E+01    0.0     0.00000362        -1.1541272913 -3.61E-12
 GXTB-QUALIFICATION_ONLY STREAM-ORACLE iter=6 dE=  2.775558E-17 dVsh=  0.000000E+00 dFfold=  2.775558E-17 hermFull=  0.000000E+00 covOracleFull=  2.168404E-19 covOracleFold=  1.084202E-19 dualOracleFold=  0.000000E+00 covStream=  2.775558E-17 dualStream=  1.485150E-16
 GXTB-EXCHANGE-TRANSFORM stage=FORWARD backend=MIXED_RADIX_FFT fallback=0 iter=6
 GXTB-QUALIFICATION_ONLY MIXER-STAR iter=6 denseCov=  0.000000E+00 streamCov=  0.000000E+00 streamRoundtrip=  0.000000E+00 covDelta=  0.000000E+00 denseFullComplex=12 streamedPeakComplex=12
 GXTB-QUALIFICATION_ONLY STREAM-ORACLE iter=6 dE=  5.551115E-17 dVsh=  0.000000E+00 dFfold=  2.775558E-17 hermFull=  0.000000E+00 covOracleFull=  1.084202E-19 covOracleFold=  1.084202E-19 dualOracleFold=  0.000000E+00 covStream=  2.775558E-17 dualStream=  0.000000E+00
 GXTB-EXCHANGE-TRANSFORM stage=FORWARD backend=MIXED_RADIX_FFT fallback=0 iter=6
     6 GXTB-FDIIS  0.10E+01    0.0     0.00000034        -1.1541272913 -4.40E-14
 GXTB-QUALIFICATION_ONLY STREAM-ORACLE iter=7 dE=  5.551115E-17 dVsh=  0.000000E+00 dFfold=  2.775558E-17 hermFull=  0.000000E+00 covOracleFull=  1.084202E-19 covOracleFold=  1.084202E-19 dualOracleFold=  0.000000E+00 covStream=  2.775558E-17 dualStream=  0.000000E+00
 GXTB-EXCHANGE-TRANSFORM stage=FORWARD backend=MIXED_RADIX_FFT fallback=0 iter=7
 GXTB-QUALIFICATION_ONLY MIXER-STAR iter=7 denseCov=  0.000000E+00 streamCov=  0.000000E+00 streamRoundtrip=  0.000000E+00 covDelta=  0.000000E+00 denseFullComplex=12 streamedPeakComplex=12
 GXTB-QUALIFICATION_ONLY STREAM-ORACLE iter=7 dE=  5.551115E-17 dVsh=  0.000000E+00 dFfold=  5.551115E-17 hermFull=  0.000000E+00 covOracleFull=  0.000000E+00 covOracleFold=  0.000000E+00 dualOracleFold=  0.000000E+00 covStream=  5.551115E-17 dualStream=  0.000000E+00
 GXTB-EXCHANGE-TRANSFORM stage=FORWARD backend=MIXED_RADIX_FFT fallback=0 iter=7
     7 GXTB-FDIIS  0.10E+01    0.0     0.00000003        -1.1541272913  4.44E-16
 GXTB-QUALIFICATION_ONLY STREAM-ORACLE iter=8 dE=  5.551115E-17 dVsh=  0.000000E+00 dFfold=  5.551115E-17 hermFull=  0.000000E+00 covOracleFull=  0.000000E+00 covOracleFold=  0.000000E+00 dualOracleFold=  0.000000E+00 covStream=  5.551115E-17 dualStream=  0.000000E+00
 GXTB-EXCHANGE-TRANSFORM stage=FORWARD backend=MIXED_RADIX_FFT fallback=0 iter=8
 GXTB-QUALIFICATION_ONLY MIXER-STAR iter=8 denseCov=  0.000000E+00 streamCov=  0.000000E+00 streamRoundtrip=  0.000000E+00 covDelta=  0.000000E+00 denseFullComplex=12 streamedPeakComplex=12
 GXTB-QUALIFICATION_ONLY STREAM-ORACLE iter=8 dE=  0.000000E+00 dVsh=  0.000000E+00 dFfold=  2.775558E-17 hermFull=  0.000000E+00 covOracleFull=  0.000000E+00 covOracleFold=  0.000000E+00 dualOracleFold=  0.000000E+00 covStream=  2.775558E-17 dualStream=  0.000000E+00
 GXTB-EXCHANGE-TRANSFORM stage=FORWARD backend=MIXED_RADIX_FFT fallback=0 iter=8
     8 GXTB-FDIIS  0.10E+01    0.0     0.00000061        -1.1541272913  1.25E-13
 GXTB-QUALIFICATION_ONLY STREAM-ORACLE iter=9 dE=  0.000000E+00 dVsh=  0.000000E+00 dFfold=  2.775558E-17 hermFull=  0.000000E+00 covOracleFull=  0.000000E+00 covOracleFold=  0.000000E+00 dualOracleFold=  0.000000E+00 covStream=  2.775558E-17 dualStream=  0.000000E+00
 GXTB-EXCHANGE-TRANSFORM stage=FORWARD backend=MIXED_RADIX_FFT fallback=0 iter=9
 GXTB-QUALIFICATION_ONLY MIXER-STAR iter=9 denseCov=  0.000000E+00 streamCov=  0.000000E+00 streamRoundtrip=  0.000000E+00 covDelta=  0.000000E+00 denseFullComplex=12 streamedPeakComplex=12
 GXTB-QUALIFICATION_ONLY STREAM-ORACLE iter=9 dE=  2.775558E-17 dVsh=  0.000000E+00 dFfold=  2.775582E-17 hermFull=  0.000000E+00 covOracleFull=  0.000000E+00 covOracleFold=  0.000000E+00 dualOracleFold=  0.000000E+00 covStream=  2.775582E-17 dualStream=  1.485150E-16
 GXTB-EXCHANGE-TRANSFORM stage=FORWARD backend=MIXED_RADIX_FFT fallback=0 iter=9
     9 GXTB-FDIIS  0.10E+01    0.0     0.00000057        -1.1541272913 -1.25E-13
 GXTB-QUALIFICATION_ONLY STREAM-ORACLE iter=10 dE=  2.775558E-17 dVsh=  0.000000E+00 dFfold=  2.775582E-17 hermFull=  0.000000E+00 covOracleFull=  0.000000E+00 covOracleFold=  0.000000E+00 dualOracleFold=  0.000000E+00 covStream=  2.775582E-17 dualStream=  1.485150E-16
 GXTB-EXCHANGE-TRANSFORM stage=FORWARD backend=MIXED_RADIX_FFT fallback=0 iter=10
 GXTB-QUALIFICATION_ONLY MIXER-STAR iter=10 denseCov=  0.000000E+00 streamCov=  0.000000E+00 streamRoundtrip=  0.000000E+00 covDelta=  0.000000E+00 denseFullComplex=12 streamedPeakComplex=12
 GXTB-QUALIFICATION_ONLY STREAM-ORACLE iter=10 dE=  5.551115E-17 dVsh=  0.000000E+00 dFfold=  2.775558E-17 hermFull=  0.000000E+00 covOracleFull=  0.000000E+00 covOracleFold=  0.000000E+00 dualOracleFold=  0.000000E+00 covStream=  2.775558E-17 dualStream=  1.485150E-16
 GXTB-EXCHANGE-TRANSFORM stage=FORWARD backend=MIXED_RADIX_FFT fallback=0 iter=10
    10 GXTB-FDIIS  0.10E+01    0.0     0.00000004        -1.1541272913 -6.66E-16
 GXTB-QUALIFICATION_ONLY STREAM-ORACLE iter=11 dE=  5.551115E-17 dVsh=  0.000000E+00 dFfold=  2.775558E-17 hermFull=  0.000000E+00 covOracleFull=  0.000000E+00 covOracleFold=  0.000000E+00 dualOracleFold=  0.000000E+00 covStream=  2.775558E-17 dualStream=  1.485150E-16
 GXTB-EXCHANGE-TRANSFORM stage=FORWARD backend=MIXED_RADIX_FFT fallback=0 iter=11
 GXTB-QUALIFICATION_ONLY MIXER-STAR iter=11 denseCov=  0.000000E+00 streamCov=  0.000000E+00 streamRoundtrip=  0.000000E+00 covDelta=  0.000000E+00 denseFullComplex=12 streamedPeakComplex=12
 GXTB-QUALIFICATION_ONLY STREAM-ORACLE iter=11 dE=  2.775558E-17 dVsh=  0.000000E+00 dFfold=  2.775558E-17 hermFull=  0.000000E+00 covOracleFull=  1.084202E-19 covOracleFold=  1.084202E-19 dualOracleFold=  0.000000E+00 covStream=  2.775558E-17 dualStream=  0.000000E+00
 GXTB-EXCHANGE-TRANSFORM stage=FORWARD backend=MIXED_RADIX_FFT fallback=0 iter=11
    11 GXTB-FDIIS  0.10E+01    0.0     1.3323E-15        -1.1541272913  2.22E-16

  *** SCF run converged in    11 steps ***


  Core Hamiltonian energy:                                     -0.63677485062042
  Repulsive potential energy:                                   0.05054599693324
  Electrostatic energy:                                         0.00704919460313
  Self-consistent dispersion energy:                           -0.00007203900188
  Non-self consistent dispersion energy:                       -0.00000068056140
  Correction for halogen bonding:                               0.00000000000000

  Total energy:                                                -1.15412729128094


 MULLIKEN POPULATION ANALYSIS

  # Atom   Element   Kind        Atomic population                    Net charge
       1     H          1                 1.000000                     -0.000000
       2     H          1                 1.000000                      0.000000
 # Total charge                           2.000000                      0.000000

 GXTB-QUALIFICATION_ONLY ACP-PROJECTOR-CACHE repeatedHit=1 directBypass=1
 GXTB-QUALIFICATION_ONLY ACP-MESH nFull=3 batch=2 blockResidual=  0.0000E+00 foldedResidual=  0.0000E+00
 GXTB-QUALIFICATION_ONLY STREAM-ORACLE iter=11 dE=  2.775558E-17 dVsh=  0.000000E+00 dFfold=  2.775558E-17 hermFull=  0.000000E+00 covOracleFull=  1.084202E-19 covOracleFold=  1.084202E-19 dualOracleFold=  0.000000E+00 covStream=  2.775558E-17 dualStream=  0.000000E+00
 GXTB-EXCHANGE-TRANSFORM stage=FORWARD backend=MIXED_RADIX_FFT fallback=0 iter=11
 GXTB-QUALIFICATION_ONLY STREAMED-REVERSE dOverlap=  2.77555756156289E-17 dForce=  0.00000000000000E+00 dStress=  0.00000000000000E+00 peak=149 expected=149
 GXTB-EXCHANGE-TRANSFORM stage=REVERSE backend=MIXED_RADIX_FFT fallback=0
 GXTB STREAMED-REVERSE nfull=3 batch=2 peak_complex=149
 GXTB-SYMMETRY-FUSED-REVERSE nred=2, nfull=3, cachedRepresentativeOverlaps=2
 ACP_SPARSE_RESPONSE_QUALIFY residual=  0.0000E+00
 GXTB-ACP-MESH SPARSE-REVERSE projectorImages=5 densityImages=11 fullDifferenceSet=0
 GXTB-QUALIFICATION_ONLY ACP-SPARSE-REVERSE residual=  1.1102E-16 dEdCN=  2.7756E-17 dEdq=  6.9389E-18 gradient=  2.7756E-17 sigma=  1.1102E-16 gate=  1.0000E-07

 ENERGY| Total FORCE_EVAL ( QS ) energy [hartree]             -1.154127291280940

 FORCES| Atomic forces [hartree/bohr]
 FORCES|   Atom     x               y               z               |f|
 FORCES|      1  5.05908009E-02  4.09973538E-24  1.94182001E-24   5.05908009E-02
 FORCES|      2 -5.05908009E-02 -4.09973538E-24 -1.94182001E-24   5.05908009E-02
 FORCES| Sum     0.00000000E+00  7.34683969E-40 -3.67341985E-40
 FORCES| Total atomic force                                       8.21401649E-40

 STRESS| Stress tensor components (GPW/GAPW) [bar]
 STRESS|                                           1/3 Trace         Determinant
 STRESS| Overlap                           0.00000000000E+00   0.00000000000E+00
 STRESS| Kinetic energy                    0.00000000000E+00   0.00000000000E+00
 STRESS| Local pseudopotential/core        0.00000000000E+00   0.00000000000E+00
 STRESS| Nonlocal pseudopotential          0.00000000000E+00   0.00000000000E+00
 STRESS| Core charge overlap               0.00000000000E+00   0.00000000000E+00
 STRESS| Hartree                           0.00000000000E+00   0.00000000000E+00
 STRESS| Exchange-correlation              0.00000000000E+00   0.00000000000E+00
 STRESS| Exact exchange (EXX)              0.00000000000E+00   0.00000000000E+00
 STRESS| vdW correction                    0.00000000000E+00   0.00000000000E+00
 STRESS| Moller-Plesset (MP2)              0.00000000000E+00   0.00000000000E+00
 STRESS| Nonlinear core correction (NLCC)  0.00000000000E+00   0.00000000000E+00
 STRESS| Local atomic parts (GAPW)         0.00000000000E+00   0.00000000000E+00
 STRESS| Resolution-of-the-identity (LRI)  0.00000000000E+00   0.00000000000E+00
 STRESS| Sum of components                 0.00000000000E+00   0.00000000000E+00
 STRESS| Total                            -7.04776386166E+02  -1.19768666193E-09

 STRESS| Analytical stress tensor [bar]
 STRESS|                        x                   y                   z
 STRESS|      x       -2.11432916000E+03  -4.30379514362E-18  -3.39057789166E-18
 STRESS|      y       -4.30379514362E-18   7.52636553112E-07   1.67706963517E-19
 STRESS|      z       -3.39057789166E-18   1.67706963517E-19   7.52636553217E-07
 STRESS| 1/3 Trace                                            -7.04776386166E+02
 STRESS| Determinant                                          -1.19768666193E-09

 STRESS| Eigenvectors and eigenvalues of the analytical stress tensor [bar]
 STRESS|                        1                   2                   3
 STRESS| Eigenvalues  -2.11432916000E+03   7.52636553112E-07   7.52636553217E-07
 STRESS|      x           1.000000000000      0.000000000000      0.000000000000
 STRESS|      y           0.000000000000      1.000000000000      0.000000000000
 STRESS|      z           0.000000000000      0.000000000000      1.000000000000

 -------------------------------------------------------------------------------
 -                                                                             -
 -                                DBCSR STATISTICS                             -
 -                                                                             -
 -------------------------------------------------------------------------------
 COUNTER                                    TOTAL       BLAS       SMM       ACC
 flops inhomo. stacks                           0       0.0%      0.0%      0.0%
 flops total                         0.000000E+00       0.0%      0.0%      0.0%
 flops max/rank                      0.000000E+00       0.0%      0.0%      0.0%
 matmuls inhomo. stacks                         0       0.0%      0.0%      0.0%
 matmuls total                                  0       0.0%      0.0%      0.0%
 number of processed stacks                     0       0.0%      0.0%      0.0%
 average stack size                                     0.0       0.0       0.0
 marketing flops                     0.000000E+00
 -------------------------------------------------------------------------------
 -                                                                             -
 -                      DBCSR MESSAGE PASSING PERFORMANCE                      -
 -                                                                             -
 -------------------------------------------------------------------------------
 ROUTINE             CALLS      AVE VOLUME [Bytes]
 MP_Bcast                1                     12.
 MP_Allreduce           19                     21.
 MP_Alltoall          1928                     35.
 -------------------------------------------------------------------------------

 -------------------------------------------------------------------------------
 -                                                                             -
 -                          OFFLOAD MEMPOOL STATISTICS                         -
 -                                                                             -
 -------------------------------------------------------------------------------
 Memory consumption                Number of allocations  Used [MiB]  Size [MiB]
 Host                                                  1           0           0
 -------------------------------------------------------------------------------

 MEMORY| Estimated peak process memory [MiB]                                 122

 -------------------------------------------------------------------------------
 ----                             MULTIGRID INFO                            ----
 -------------------------------------------------------------------------------
 total grid count     :           144              cutoff [a.u.]            1.00

 -------------------------------------------------------------------------------
 -                                                                             -
 -                         MESSAGE PASSING PERFORMANCE                         -
 -                                                                             -
 -------------------------------------------------------------------------------

 ROUTINE             CALLS      AVE VOLUME [Bytes]
 MP_Group                2
 MP_Bcast             2027                      7.
 MP_Allreduce         3507                     19.
 MP_Sync                 1
 MP_Wait              1512
 MP_comm_split           2
 MP_ISend             1848                      9.
 MP_IRecv             2352                      9.
 -------------------------------------------------------------------------------


 -------------------------------------------------------------------------------
 -                                                                             -
 -                           R E F E R E N C E S                               -
 -                                                                             -
 -------------------------------------------------------------------------------
 
 CP2K version 2026.2 (Development Version), the CP2K developers group (2026).
 CP2K is freely available from https://www.cp2k.org/ .
 
 M. Iannuzzi, J. Wilhelm, F. Stein, A. Bussy, H. Elgabarty, D. Golze, A. Hehn, 
 M. Graml, S. Marek, B. Sertcan Gökmen, C. Schran, H. Forbert, R. Z. 
 Khaliullin, A. Kozhevnikov, M. Taillefumier, R. Meli, V. V. Rybkin, M. Brehm, 
 R. Schade, O. Schütt, J. V. Pototschnig, H. Mirhosseini, A. Knüpfer, D. Marx, 
 M. Krack, J. Hutter, T. D. Kühne.
 J. Phys. Chem. B 130, 1237-1310 (2026).
 The CP2K Program Package Made Simple.
 https://doi.org/10.1021/acs.jpcb.5c05851

 A. Katbashev, M. Stahn, T. Rose, V. Alizadeh, M. Friede, C. Plett, P. 
 Steinbach, S. Ehlert.
 J. Phys. Chem. A 129, 2667-2682 (2025).
 Overview on Building Blocks and Applications of Efficient and Robust Extended 
 Tight Binding.
 https://doi.org/10.1021/acs.jpca.4c08263

 T. D. Kühne, M. Iannuzzi, M. Del Ben, V. V. Rybkin, P. Seewald, F. Stein, T. 
 Laino, R. Z. Khaliullin, O. Schütt, F. Schiffmann, D. Golze, J. Wilhelm, S. 
 Chulkov, M. H. Bani-Hashemian, V. Weber, U. Borstnik, M. Taillefumier, A. S. 
 Jakobovits, A. Lazzaro, H. Pabst, T. Müller, R. Schade, M. Guidon, S. 
 Andermatt, N. Holmberg, G. K. Schenter, A. Hehn, A. Bussy, F. Belleflamme, G. 
 Tabacchi, A. Glöß, M. Lass, I. Bethune, C. J. Mundy, C. Plessl, M. Watkins, 
 J. VandeVondele, M. Krack, J. Hutter.
 J. Chem. Phys. 152, 194103 (2020).
 CP2K: An electronic structure and molecular dynamics software package - 
 Quickstep: Efficient and accurate electronic structure calculations.
 https://doi.org/10.1063/5.0007045

 P. Pracht, E. Caldeweyher, S. Ehlert, S. Grimme.
 ChemRxiv, (2019).
 A Robust Non-Self-Consistent Tight-Binding Quantum Chemistry Method for large 
 Molecules.
 https://doi.org/10.26434/chemrxiv.8326202.v1

 S. Grimme, C. Bannwarth, P. Shushkov.
 J. Chem. Theory Comput. 13, 1989 (2017).
 A Robust and Accurate Tight-Binding Quantum Chemical Method for Structures, 
 Vibrational Frequencies, and Noncovalent Interactions of Large Molecular 
 Systems Parametrized for All spd-Block Elements (Z = 1-86).
 https://doi.org/10.1021/acs.jctc.7b00118

 O. Schuett, P. Messmer, J. Hutter, J. VandeVondele.
 Electronic Structure Calculations on Graphics Processing Units, 173-190 (2016).
 GPU-Accelerated Sparse Matrix-Matrix Multiplication for Linear Scaling Density 
 Functional Theory.
 https://doi.org/10.1002/9781118670712.ch8

 U. Borstnik, J. VandeVondele, V. Weber, J. Hutter.
 Parallel Comput. 40, 47-58 (2014).
 Sparse matrix multiplication: The distributed block-compressed sparse row 
 library.
 https://doi.org/10.1016/j.parco.2014.03.012

 M. Frigo, S. G. Johnson.
 Proc. IEEE 93, 216-231 (2005).
 The design and implementation of FFTW3.
 https://doi.org/10.1109/JPROC.2004.840301

 C.-L. Fu, K.-M. Ho.
 Phys. Rev. B 28, 5480-5486 (1983).
 First-principles calculation of the equilibrium ground-state properties of 
 transition metals: Applications to Nb and Mo.
 https://doi.org/10.1103/PhysRevB.28.5480


 -------------------------------------------------------------------------------
 -                                                                             -
 -                                T I M I N G                                  -
 -                                                                             -
 -------------------------------------------------------------------------------
 SUBROUTINE                       CALLS  ASD         SELF TIME        TOTAL TIME
                                MAXIMUM       AVERAGE  MAXIMUM  AVERAGE  MAXIMUM
 CP2K                                 1  1.0    0.002    0.003    0.063    0.063
 qs_forces                            1  2.0    0.000    0.000    0.054    0.054
 qs_energies                          1  3.0    0.000    0.000    0.047    0.047
 scf_env_do_scf                       1  4.0    0.000    0.000    0.042    0.042
 scf_env_do_scf_inner_loop           11  5.0    0.003    0.004    0.042    0.042
 qs_scf_new_mos_kp                   11  6.0    0.000    0.000    0.021    0.021
 do_general_diag_kp                  11  7.0    0.001    0.001    0.021    0.021
 rebuild_ks_matrix                   12  6.8    0.000    0.000    0.015    0.015
 build_tblite_ks_matrix              12  7.8    0.009    0.009    0.015    0.015
 qs_ks_update_qs_env                 11  6.0    0.000    0.000    0.011    0.011
 copy_dbcsr_to_fm                    92  7.9    0.000    0.000    0.010    0.010
 dbcsr_complete_redistribute        144  9.1    0.002    0.002    0.008    0.008
 cp_fm_start_copy_general           336  7.7    0.002    0.003    0.006    0.006
 qs_ks_update_qs_env_forces           1  3.0    0.000    0.000    0.005    0.005
 build_tblite_matrices                2  4.0    0.003    0.003    0.005    0.005
 kpoint_density_transform            13  7.6    0.000    0.000    0.005    0.005
 qs_init_subsys                       1  2.0    0.001    0.001    0.004    0.004
 dbcsr_desymmetrize_deep            184  8.4    0.001    0.001    0.004    0.004
 mp_bcast_iv                       1345  8.7    0.002    0.003    0.002    0.003
 copy_fm_to_dbcsr                    52  8.6    0.000    0.000    0.003    0.003
 dbcsr_iterator_start              4126  8.1    0.002    0.002    0.003    0.003
 qs_energies_init_hamiltonians        1  4.0    0.000    0.000    0.003    0.003
 dbcsr_create_new                  1379  7.5    0.002    0.002    0.002    0.002
 dbcsr_iterator_stop               4126  8.1    0.002    0.002    0.002    0.002
 qs_env_setup                         1  3.0    0.000    0.000    0.001    0.002
 dbcsr_finalize                    2039  6.8    0.001    0.001    0.002    0.002
 cp_dbcsr_alloc_block_from_nbl      630  5.7    0.001    0.001    0.002    0.002
 qs_env_rebuild_pw_env                3  3.7    0.000    0.000    0.001    0.002
 pw_env_rebuild                       1  5.0    0.000    0.000    0.001    0.002
 mp_sum_dv                         2278  7.4    0.002    0.002    0.002    0.002
 pw_grid_setup                        1  6.0    0.000    0.000    0.001    0.002
 pw_grid_setup_internal               1  7.0    0.000    0.000    0.001    0.002
 mp_cart_sub                        186  9.9    0.002    0.002    0.002    0.002
 mp_sum_l                            23  2.3    0.001    0.002    0.001    0.002
 evaluate_core_matrix_traces         23  6.4    0.000    0.000    0.001    0.002
 calculate_ptrace_kp                 23  7.4    0.000    0.000    0.001    0.001
 mp_sum_dm                          785  7.2    0.001    0.001    0.001    0.001
 kpoint_density_matrices             12  7.8    0.000    0.000    0.001    0.001
 dbcsr_dot                          253  8.4    0.001    0.001    0.001    0.001
 mp_cart_create                      95  9.8    0.001    0.001    0.001    0.001
 parallel_gemm_fm_gemm               48  8.8    0.000    0.000    0.001    0.001
 cp_fm_gemm                          48  9.8    0.001    0.001    0.001    0.001
 -------------------------------------------------------------------------------

 The number of warnings for this run is : 1
 
 -------------------------------------------------------------------------------
  **** **** ******  **  PROGRAM ENDED AT                 2026-07-22 16:38:07.626
 ***** ** ***  *** **   PROGRAM RAN ON                                     terok
 **    ****   ******    PROGRAM RAN BY                                  kuehne88
 ***** **    ** ** **   PROGRAM PROCESS ID                               4014357
  **** **  *******  **  PROGRAM STOPPED IN /home/kuehne88/work/gxtb-compact-part
                                           ial-combination-20260722/results/acp-
                                           h2-1d-3x1x1-fixed
