 DBCSR| CPU Multiplication driver                                           XSMM (U)
 DBCSR| Multrec recursion limit                                              512 (U)
 DBCSR| Multiplication stack size                                           1000 (D)
 DBCSR| Maximum elements for images                                    UNLIMITED (U)
 DBCSR| Multiplicative factor virtual images                                   1 (U)
 DBCSR| Use multiplication densification                                       T (D)
 DBCSR| Multiplication size stacks                                             3 (U)
 DBCSR| Use memory pool for CPU allocation                                     F (U)
 DBCSR| Number of 3D layers                                               SINGLE (U)
 DBCSR| Use MPI memory allocation                                              F (U)
 DBCSR| Use RMA algorithm                                                      F (U)
 DBCSR| Use Communication thread                                               T (U)
 DBCSR| Communication thread load                                             87 (D)
 DBCSR| MPI: My process id                                                     0
 DBCSR| MPI: Number of processes                                               1
 DBCSR| OMP: Current number of threads                                         1
 DBCSR| OMP: Max number of threads                                             1
 DBCSR| Split modifier for TAS multiplication algorithm                  1.0E+00 (U)


  **** **** ******  **  PROGRAM STARTED AT               2026-05-23 22:47:56.531
 ***** ** ***  *** **   PROGRAM STARTED ON                            spark-c86c
 **    ****   ******    PROGRAM STARTED BY                              kuehne88
 ***** **    ** ** **   PROGRAM PROCESS ID                               2270799
  **** **  *******  **  PROGRAM STARTED IN /home/kuehne88/periodic-gfn2-benchmar
                                           ks/X23b/runs/cellopt_gamma/GFN2/succi
                                           nic_acid_GFN2_gamma_cellopt

 CP2K| version string:                 CP2K version 2026.1 (Development Version)
 CP2K| source code revision number:                                   0622d442e4
 CP2K| cp2kflags: omp fftw3 libxc parallel scalapack mpi_f08 xsmm spglib libdftd
 CP2K|            4 dftd4_v3 mctc-lib tblite
 CP2K| is freely available from                            https://www.cp2k.org/
 CP2K| Program compiled at                                   2026-05-23 22:05:08
 CP2K| Program compiled on                                            spark-c86c
 CP2K| Program compiled for                                              aarch64
 CP2K| Data directory path    /home/kuehne88/cp2k-master-tblite-20260523/install
 CP2K| Input file name                      succinic_acid_GFN2_gamma_cellopt.inp

 GLOBAL| Force Environment number                                              1
 GLOBAL| Basis set file name                                           BASIS_SET
 GLOBAL| Potential file name                                           POTENTIAL
 GLOBAL| MM Potential file name                                     MM_POTENTIAL
 GLOBAL| Coordinate file name                                      __STD_INPUT__
 GLOBAL| Method name                                                        CP2K
 GLOBAL| Project name                          succinic_acid_GFN2_gamma_cell_opt
 GLOBAL| Run type                                                       CELL_OPT
 GLOBAL| FFT library                                                       FFTW3
 GLOBAL| Diagonalization library                                       ScaLAPACK
 GLOBAL| Cholesky decomposition library                                ScaLAPACK
 GLOBAL| DGEMM library                                                      BLAS
 GLOBAL| Direct generalized diagonalization requested                          F
 GLOBAL| Orthonormality check for eigenvectors                          DISABLED
 GLOBAL| Matrix multiplication library                                 ScaLAPACK
 GLOBAL| All-to-all communication in single precision                          F
 GLOBAL| FFTs using library dependent lengths                                  F
 GLOBAL| Grid backend                                                       AUTO
 GLOBAL| Global print level                                                  LOW
 GLOBAL| MPI I/O enabled                                                       T
 GLOBAL| Total number of message passing processes                             1
 GLOBAL| Number of distributed systems (nodes)                                 1
 GLOBAL| Number of threads for this process                                    1
 GLOBAL| This output is from process                                           0
 GLOBAL| OpenMP stack size per thread (OMP_STACKSIZE)                    default
 GLOBAL| CPU model name                                                  UNKNOWN
 GLOBAL| CPUID                                                              2200
 GLOBAL| Compiled for CPUID                                                 2000

 *** HINT in environment.F:970 :: The compiler target flags (arm_arch64)   ***
 *** used to build this binary cannot exploit all extensions of this CPU   ***
 *** model (arm_sve256). Consider compiler target flags as part of FCFLAGS ***
 *** and CFLAGS (ARCH file).                                               ***


 MEMORY| system memory details [Kb]
 MEMORY|                        rank 0           min           max       average
 MEMORY| MemTotal            125508532     125508532     125508532     125508532
 MEMORY| MemFree             104329044     104329044     104329044     104329044
 MEMORY| Buffers                868400        868400        868400        868400
 MEMORY| Cached               14093408      14093408      14093408      14093408
 MEMORY| Slab                  1598580       1598580       1598580       1598580
 MEMORY| SReclaimable           920548        920548        920548        920548
 MEMORY| MemLikelyFree       120211400     120211400     120211400     120211400


 GENERATE|  Preliminary Number of Bonds generated:                             0
 GENERATE|  Achieved consistency in connectivity generation.


                  #####   #####        #     #   #     #       #          
                 #     # #     #      #    ##### #     #   # #####  ####  
                 #     # #           #       #   ###   #       #   #    # 
                 #     #  #####     #        #   #  #  #   #   #   ###### 
                 #   # #       #   #         #   #   # #   #   #   #      
                 #    #  #     #  #          #   #  #  # # #   #    #   # 
                  #### #  #####  #           #   ###   ##  #   #     ###  

                                   GFN2-xTB  
                                 Version 0.0                       
                            Johann V. Pototschnig                  



 TOTAL NUMBERS AND MAXIMUM NUMBERS

  Total number of            - Atomic kinds:                                   3
                             - Atoms:                                         28
                             - Shell sets:                                    44
                             - Shells:                                        44
                             - Primitive Cartesian functions:                164
                             - Cartesian basis functions:                     76
                             - Spherical basis functions:                     76

  Maximum angular momentum of the orbital basis functions:                     1


 SCF PARAMETERS         Density guess:                                     MOPAC
                        --------------------------------------------------------
                        max_scf:                                             300
                        max_scf_history:                                       0
                        max_diis:                                              4
                        --------------------------------------------------------
                        eps_scf:                                        1.00E-09
                        eps_scf_history:                                0.00E+00
                        eps_diis:                                       1.00E-01
                        eps_eigval:                                     1.00E-05
                        --------------------------------------------------------
                        level_shift [a.u.]:                             0.000000
                        added MOs                                        30    0
                        --------------------------------------------------------
                        Mixing method:                           DIRECT_P_MIXING
                        --------------------------------------------------------
                        Smear method:                                FERMI_DIRAC
                        Electronic temperature [K]:                        300.0
                        Electronic temperature [a.u.]:                  9.50E-04
                        Accuracy threshold:                             1.00E-06
                        --------------------------------------------------------
                        No outer SCF

 CELL_OPT| Pressure tolerance [bar]:                                       100.0
 CELL_OPT| Keep volume of cell:                                               NO
 CELL_OPT| Keep angles between the cell vectors:                              NO
 CELL_OPT| Keep cell symmetry:                                                NO
 CELL_OPT| Constraint:                                                      NONE

 BFGS| Use rational function optimization for step estimation:                NO
 BFGS| Use model Hessian for initial guess:                                   NO
 BFGS| Restart Hessian:                                                       NO
 BFGS| Trust radius:                                                       0.472

 *******************************************************************************
 ***                     STARTING   CELL   OPTIMIZATION                      ***
 ***                                   BFGS                                  ***
 *******************************************************************************

 CELL| Volume [angstrom^3]:                                           239.283683
 CELL| Vector a [angstrom]:       5.464     0.000     0.000   |a| =     5.464000
 CELL| Vector b [angstrom]:       0.000     8.766     0.000   |b| =     8.766000
 CELL| Vector c [angstrom]:      -0.287     0.000     4.996   |c| =     5.004000
 CELL| Angle (b,c), alpha [degree]:                                    90.000000
 CELL| Angle (a,c), beta  [degree]:                                    93.290000
 CELL| Angle (a,b), gamma [degree]:                                    90.000000
 CELL| Numerically orthorhombic:                                              NO
 CELL| Periodicity                                                           XYZ

 Extrapolation method: initial_guess

 Number of electrons:                                                         92
 Number of occupied orbitals:                                                 46
 Number of molecular orbitals:                                                76

 Number of orbital functions:                                                 76
 Number of independent orbital functions:                                     76


 SCF WAVEFUNCTION OPTIMIZATION

  Step     Update method      Time    Convergence         Total energy    Change
  ------------------------------------------------------------------------------
     1 TBLite/Diag 0.40E+00    0.0     0.71613608       -55.1647709250 -5.52E+01
     2 TBLite/Diag 0.40E+00    0.0     0.28328070       -55.8841138055 -7.19E-01
     3 TBLite/Diag 0.40E+00    0.0     0.08296488       -55.9137181968 -2.96E-02
     4 TBLite/Diag 0.40E+00    0.0     0.03571804       -55.9209121050 -7.19E-03
     5 TBLite/Diag 0.40E+00    0.0     0.01450197       -55.9224435431 -1.53E-03
     6 TBLite/Diag 0.40E+00    0.0     0.00295024       -55.9224882738 -4.47E-05
     7 TBLite/Diag 0.40E+00    0.0     0.00170676       -55.9225063718 -1.81E-05
     8 TBLite/Diag 0.40E+00    0.0     0.00028146       -55.9225073878 -1.02E-06
     9 TBLite/Diag 0.40E+00    0.0     0.00009238       -55.9225073998 -1.20E-08
    10 TBLite/Diag 0.40E+00    0.0     0.00008942       -55.9225074176 -1.78E-08
    11 TBLite/Diag 0.40E+00    0.0     0.00004283       -55.9225074300 -1.24E-08
    12 TBLite/Diag 0.40E+00    0.0     0.00000402       -55.9225074301 -5.16E-11
    13 TBLite/Diag 0.40E+00    0.0     0.00000487       -55.9225074302 -1.19E-10
    14 TBLite/Diag 0.40E+00    0.0     0.00000038       -55.9225074302 -1.25E-12
    15 TBLite/Diag 0.40E+00    0.0     0.00000007       -55.9225074302  3.55E-14
    16 TBLite/Diag 0.40E+00    0.0     7.4861E-09       -55.9225074302 -8.53E-14
    17 TBLite/Diag 0.40E+00    0.0     0.00000001       -55.9225074302  2.13E-14
    18 TBLite/Diag 0.40E+00    0.0     1.4743E-09       -55.9225074302 -3.55E-14
    19 TBLite/Diag 0.40E+00    0.0     3.2421E-10       -55.9225074302  7.82E-14

  *** SCF run converged in    19 steps ***


  Core Hamiltonian energy:                                    -56.48307161873743
  Repulsive potential energy:                                   0.45038128574375
  Electrostatic energy:                                         0.16449622503826
  Self-consistent dispersion energy:                           -0.06866347240914
  Non-self consistent dispersion energy:                        0.01435015015830
  Correction for halogen bonding:                               0.00000000000000
  Electronic entropic energy:                                  -0.00000000000000
  Fermi energy:                                                -0.28363349137843

  Total energy:                                               -55.92250743020627
  Total energy (extrapolated to T->0):                        -55.92250743020627

 ENERGY| Total FORCE_EVAL ( QS ) energy [hartree]            -55.922507430206267

 OPT| **************************************************************************
 OPT| Step number                                                              0
 OPT| Optimization method                                                   BFGS
 OPT| Total energy [hartree]                                      -55.9225074302
 OPT| Internal pressure [bar]                                  -33000.8579111419
 OPT| Used time [s]                                                        1.654
 OPT| **************************************************************************
 OPT| Estimated peak process memory [MiB]                                    164

 --------------------------
 OPTIMIZATION STEP:      1
 --------------------------

 CELL| Volume [angstrom^3]:                                           238.272397
 CELL| Vector a [angstrom]:       5.457     0.000     0.000   |a| =     5.457172
 CELL| Vector b [angstrom]:      -0.000     8.759     0.000   |b| =     8.759135
 CELL| Vector c [angstrom]:      -0.288    -0.000     4.985   |c| =     4.993074
 CELL| Angle (b,c), alpha [degree]:                                    90.000000
 CELL| Angle (a,c), beta  [degree]:                                    93.305447
 CELL| Angle (a,b), gamma [degree]:                                    90.000000
 CELL| Numerically orthorhombic:                                              NO
 CELL| Periodicity                                                           XYZ

 Extrapolation method: ASPC

 Number of electrons:                                                         92
 Number of occupied orbitals:                                                 46
 Number of molecular orbitals:                                                76

 Number of orbital functions:                                                 76
 Number of independent orbital functions:                                     76


 SCF WAVEFUNCTION OPTIMIZATION

  Step     Update method      Time    Convergence         Total energy    Change
  ------------------------------------------------------------------------------
     1 TBLite/Diag 0.40E+00    0.0     0.01663451       -55.9239544238 -5.59E+01
     2 TBLite/Diag 0.40E+00    0.0     0.00354360       -55.9240442295 -8.98E-05
     3 TBLite/Diag 0.40E+00    0.0     0.00108477       -55.9240534247 -9.20E-06
     4 TBLite/Diag 0.40E+00    0.0     0.00031242       -55.9240538244 -4.00E-07
     5 TBLite/Diag 0.40E+00    0.0     0.00010903       -55.9240538952 -7.08E-08
     6 TBLite/Diag 0.40E+00    0.0     0.00003495       -55.9240539052 -1.00E-08
     7 TBLite/Diag 0.40E+00    0.0     0.00000943       -55.9240539055 -2.93E-10
     8 TBLite/Diag 0.40E+00    0.0     0.00000285       -55.9240539056 -4.36E-11
     9 TBLite/Diag 0.40E+00    0.0     0.00000023       -55.9240539056 -1.56E-13
    10 TBLite/Diag 0.40E+00    0.0     0.00000014       -55.9240539056 -1.78E-13
    11 TBLite/Diag 0.40E+00    0.0     0.00000002       -55.9240539056  1.42E-14
    12 TBLite/Diag 0.40E+00    0.0     0.00000001       -55.9240539056  7.11E-15
    13 TBLite/Diag 0.40E+00    0.0     1.9661E-09       -55.9240539056  1.42E-14
    14 TBLite/Diag 0.40E+00    0.0     2.2230E-09       -55.9240539056 -2.84E-14
    15 TBLite/Diag 0.40E+00    0.0     4.9151E-10       -55.9240539056  7.11E-15

  *** SCF run converged in    15 steps ***


  Core Hamiltonian energy:                                    -56.50084823102929
  Repulsive potential energy:                                   0.46920412747100
  Electrostatic energy:                                         0.16211073140476
  Self-consistent dispersion energy:                           -0.06899330283852
  Non-self consistent dispersion energy:                        0.01447276941199
  Correction for halogen bonding:                               0.00000000000000
  Electronic entropic energy:                                  -0.00000000000000
  Fermi energy:                                                -0.27862780325147

  Total energy:                                               -55.92405390558006
  Total energy (extrapolated to T->0):                        -55.92405390558006

 ENERGY| Total FORCE_EVAL ( QS ) energy [hartree]            -55.924053905580060

 OPT| **************************************************************************
 OPT| Step number                                                              1
 OPT| Optimization method                                                   BFGS
 OPT| Total energy [hartree]                                      -55.9240539056
 OPT| Internal pressure [bar]                                  -14943.7516821650
 OPT| Effective energy change [hartree]                            -0.0015464754
 OPT| Predicted energy change [hartree]                            -0.0012813972
 OPT| Scaling factor                                                0.0000000000
 OPT| Step size                                                     0.0207601328
 OPT| Trust radius                                                  0.4724315332
 OPT| Decrease in energy                                                     YES
 OPT| Used time [s]                                                        1.644
 OPT|
 OPT| Maximum step size                                             0.0207601328
 OPT| Convergence limit for maximum step size                       0.0030000000
 OPT| Maximum step size is converged                                          NO
 OPT|
 OPT| RMS step size                                                 0.0053362433
 OPT| Convergence limit for RMS step size                           0.0015000000
 OPT| RMS step size is converged                                              NO
 OPT|
 OPT| Maximum gradient                                              0.0123017889
 OPT| Convergence limit for maximum gradient                        0.0004500000
 OPT| Maximum gradient is converged                                           NO
 OPT|
 OPT| RMS gradient                                                  0.0027997530
 OPT| Convergence limit for RMS gradient                            0.0003000000
 OPT| RMS gradient is converged                                               NO
 OPT|
 OPT| Pressure deviation [bar]                                 -14943.7516821650
 OPT| Pressure tolerance [bar]                                    100.0000000000
 OPT| Pressure is converged                                                   NO
 OPT| **************************************************************************
 OPT| Estimated peak process memory after this step [MiB]                    164

 --------------------------
 OPTIMIZATION STEP:      2
 --------------------------

 CELL| Volume [angstrom^3]:                                           237.241659
 CELL| Vector a [angstrom]:       5.450     0.000     0.000   |a| =     5.449789
 CELL| Vector b [angstrom]:       0.000     8.754     0.000   |b| =     8.754452
 CELL| Vector c [angstrom]:      -0.289    -0.000     4.973   |c| =     4.980986
 CELL| Angle (b,c), alpha [degree]:                                    90.000000
 CELL| Angle (a,c), beta  [degree]:                                    93.327820
 CELL| Angle (a,b), gamma [degree]:                                    90.000000
 CELL| Numerically orthorhombic:                                              NO
 CELL| Periodicity                                                           XYZ

 Extrapolation method: ASPC

 Number of electrons:                                                         92
 Number of occupied orbitals:                                                 46
 Number of molecular orbitals:                                                76

 Number of orbital functions:                                                 76
 Number of independent orbital functions:                                     76


 SCF WAVEFUNCTION OPTIMIZATION

  Step     Update method      Time    Convergence         Total energy    Change
  ------------------------------------------------------------------------------
     1 TBLite/Diag 0.40E+00    0.0     0.01211243       -55.9247216807 -5.59E+01
     2 TBLite/Diag 0.40E+00    0.0     0.00353476       -55.9247869184 -6.52E-05
     3 TBLite/Diag 0.40E+00    0.0     0.00085544       -55.9247914411 -4.52E-06
     4 TBLite/Diag 0.40E+00    0.0     0.00023661       -55.9247916525 -2.11E-07
     5 TBLite/Diag 0.40E+00    0.0     0.00014230       -55.9247918160 -1.64E-07
     6 TBLite/Diag 0.40E+00    0.0     0.00002141       -55.9247918179 -1.90E-09
     7 TBLite/Diag 0.40E+00    0.0     0.00000206       -55.9247918180 -7.99E-11
     8 TBLite/Diag 0.40E+00    0.0     0.00000205       -55.9247918180 -3.54E-11
     9 TBLite/Diag 0.40E+00    0.0     0.00000014       -55.9247918180 -5.68E-14
    10 TBLite/Diag 0.40E+00    0.0     0.00000009       -55.9247918180 -7.82E-14
    11 TBLite/Diag 0.40E+00    0.0     0.00000003       -55.9247918180  4.97E-14
    12 TBLite/Diag 0.40E+00    0.0     0.00000002       -55.9247918180 -9.95E-14
    13 TBLite/Diag 0.40E+00    0.0     3.2075E-09       -55.9247918180  4.26E-14
    14 TBLite/Diag 0.40E+00    0.0     4.1823E-10       -55.9247918180  7.11E-15

  *** SCF run converged in    14 steps ***


  Core Hamiltonian energy:                                    -56.50840592230464
  Repulsive potential energy:                                   0.47645787072306
  Electrostatic energy:                                         0.16186921999595
  Self-consistent dispersion energy:                           -0.06931187660743
  Non-self consistent dispersion energy:                        0.01459889015387
  Correction for halogen bonding:                               0.00000000000000
  Electronic entropic energy:                                  -0.00000000000000
  Fermi energy:                                                -0.27698587828576

  Total energy:                                               -55.92479181803919
  Total energy (extrapolated to T->0):                        -55.92479181803919

 ENERGY| Total FORCE_EVAL ( QS ) energy [hartree]            -55.924791818039189

 OPT| **************************************************************************
 OPT| Step number                                                              2
 OPT| Optimization method                                                   BFGS
 OPT| Total energy [hartree]                                      -55.9247918180
 OPT| Internal pressure [bar]                                   -6418.7940158623
 OPT| Effective energy change [hartree]                            -0.0007379125
 OPT| Predicted energy change [hartree]                            -0.0005355125
 OPT| Scaling factor                                                0.0000000000
 OPT| Step size                                                     0.0230177483
 OPT| Trust radius                                                  0.4724315332
 OPT| Decrease in energy                                                     YES
 OPT| Used time [s]                                                        1.655
 OPT|
 OPT| Maximum step size                                             0.0230177483
 OPT| Convergence limit for maximum step size                       0.0030000000
 OPT| Maximum step size is converged                                          NO
 OPT|
 OPT| RMS step size                                                 0.0046212010
 OPT| Convergence limit for RMS step size                           0.0015000000
 OPT| RMS step size is converged                                              NO
 OPT|
 OPT| Maximum gradient                                              0.0090868080
 OPT| Convergence limit for maximum gradient                        0.0004500000
 OPT| Maximum gradient is converged                                           NO
 OPT|
 OPT| RMS gradient                                                  0.0021643855
 OPT| Convergence limit for RMS gradient                            0.0003000000
 OPT| RMS gradient is converged                                               NO
 OPT|
 OPT| Pressure deviation [bar]                                  -6418.7940158623
 OPT| Pressure tolerance [bar]                                    100.0000000000
 OPT| Pressure is converged                                                   NO
 OPT| **************************************************************************
 OPT| Estimated peak process memory after this step [MiB]                    165

 --------------------------
 OPTIMIZATION STEP:      3
 --------------------------

 CELL| Volume [angstrom^3]:                                           235.882749
 CELL| Vector a [angstrom]:       5.441     0.000     0.000   |a| =     5.441354
 CELL| Vector b [angstrom]:       0.000     8.750     0.000   |b| =     8.749920
 CELL| Vector c [angstrom]:      -0.292     0.000     4.954   |c| =     4.962944
 CELL| Angle (b,c), alpha [degree]:                                    90.000000
 CELL| Angle (a,c), beta  [degree]:                                    93.375819
 CELL| Angle (a,b), gamma [degree]:                                    90.000000
 CELL| Numerically orthorhombic:                                              NO
 CELL| Periodicity                                                           XYZ

 Extrapolation method: ASPC

 Number of electrons:                                                         92
 Number of occupied orbitals:                                                 46
 Number of molecular orbitals:                                                76

 Number of orbital functions:                                                 76
 Number of independent orbital functions:                                     76


 SCF WAVEFUNCTION OPTIMIZATION

  Step     Update method      Time    Convergence         Total energy    Change
  ------------------------------------------------------------------------------
     1 TBLite/Diag 0.40E+00    0.0     0.00916076       -55.9255152579 -5.59E+01
     2 TBLite/Diag 0.40E+00    0.0     0.00150747       -55.9255274239 -1.22E-05
     3 TBLite/Diag 0.40E+00    0.0     0.00061245       -55.9255286675 -1.24E-06
     4 TBLite/Diag 0.40E+00    0.0     0.00020210       -55.9255291339 -4.66E-07
     5 TBLite/Diag 0.40E+00    0.0     0.00003071       -55.9255291458 -1.18E-08
     6 TBLite/Diag 0.40E+00    0.0     0.00001409       -55.9255291471 -1.31E-09
     7 TBLite/Diag 0.40E+00    0.0     0.00000147       -55.9255291471 -4.12E-11
     8 TBLite/Diag 0.40E+00    0.0     0.00000181       -55.9255291471 -1.94E-11
     9 TBLite/Diag 0.40E+00    0.0     0.00000025       -55.9255291471 -2.70E-13
    10 TBLite/Diag 0.40E+00    0.0     0.00000007       -55.9255291471 -9.24E-14
    11 TBLite/Diag 0.40E+00    0.0     0.00000002       -55.9255291471 -3.55E-14
    12 TBLite/Diag 0.40E+00    0.0     4.7372E-09       -55.9255291471  1.21E-13
    13 TBLite/Diag 0.40E+00    0.0     2.7231E-09       -55.9255291471 -1.21E-13
    14 TBLite/Diag 0.40E+00    0.0     5.6526E-10       -55.9255291471  4.26E-14

  *** SCF run converged in    14 steps ***


  Core Hamiltonian energy:                                    -56.51339809676094
  Repulsive potential energy:                                   0.48144681045219
  Electrostatic energy:                                         0.16138745459918
  Self-consistent dispersion energy:                           -0.06972996895207
  Non-self consistent dispersion energy:                        0.01476465353936
  Correction for halogen bonding:                               0.00000000000000
  Electronic entropic energy:                                  -0.00000000000000
  Fermi energy:                                                -0.27624731269697

  Total energy:                                               -55.92552914712229
  Total energy (extrapolated to T->0):                        -55.92552914712229

 ENERGY| Total FORCE_EVAL ( QS ) energy [hartree]            -55.925529147122290

 OPT| **************************************************************************
 OPT| Step number                                                              3
 OPT| Optimization method                                                   BFGS
 OPT| Total energy [hartree]                                      -55.9255291471
 OPT| Internal pressure [bar]                                     137.8839874519
 OPT| Effective energy change [hartree]                            -0.0007373291
 OPT| Predicted energy change [hartree]                            -0.0004652612
 OPT| Scaling factor                                                0.0000000000
 OPT| Step size                                                     0.0344961292
 OPT| Trust radius                                                  0.4724315332
 OPT| Decrease in energy                                                     YES
 OPT| Used time [s]                                                        1.664
 OPT|
 OPT| Maximum step size                                             0.0344961292
 OPT| Convergence limit for maximum step size                       0.0030000000
 OPT| Maximum step size is converged                                          NO
 OPT|
 OPT| RMS step size                                                 0.0061000375
 OPT| Convergence limit for RMS step size                           0.0015000000
 OPT| RMS step size is converged                                              NO
 OPT|
 OPT| Maximum gradient                                              0.0057815040
 OPT| Convergence limit for maximum gradient                        0.0004500000
 OPT| Maximum gradient is converged                                           NO
 OPT|
 OPT| RMS gradient                                                  0.0024291657
 OPT| Convergence limit for RMS gradient                            0.0003000000
 OPT| RMS gradient is converged                                               NO
 OPT|
 OPT| Pressure deviation [bar]                                    137.8839874519
 OPT| Pressure tolerance [bar]                                    100.0000000000
 OPT| Pressure is converged                                                   NO
 OPT| **************************************************************************
 OPT| Estimated peak process memory after this step [MiB]                    165

 --------------------------
 OPTIMIZATION STEP:      4
 --------------------------

 CELL| Volume [angstrom^3]:                                           233.037541
 CELL| Vector a [angstrom]:       5.425     0.000     0.000   |a| =     5.425067
 CELL| Vector b [angstrom]:      -0.000     8.743     0.000   |b| =     8.742723
 CELL| Vector c [angstrom]:      -0.302    -0.000     4.913   |c| =     4.922551
 CELL| Angle (b,c), alpha [degree]:                                    90.000000
 CELL| Angle (a,c), beta  [degree]:                                    93.511519
 CELL| Angle (a,b), gamma [degree]:                                    90.000000
 CELL| Numerically orthorhombic:                                              NO
 CELL| Periodicity                                                           XYZ

 Extrapolation method: ASPC

 Number of electrons:                                                         92
 Number of occupied orbitals:                                                 46
 Number of molecular orbitals:                                                76

 Number of orbital functions:                                                 76
 Number of independent orbital functions:                                     76


 SCF WAVEFUNCTION OPTIMIZATION

  Step     Update method      Time    Convergence         Total energy    Change
  ------------------------------------------------------------------------------
     1 TBLite/Diag 0.40E+00    0.0     0.02048452       -55.9267726020 -5.59E+01
     2 TBLite/Diag 0.40E+00    0.0     0.00112340       -55.9267842905 -1.17E-05
     3 TBLite/Diag 0.40E+00    0.0     0.00071720       -55.9267846083 -3.18E-07
     4 TBLite/Diag 0.40E+00    0.0     0.00041298       -55.9267859916 -1.38E-06
     5 TBLite/Diag 0.40E+00    0.0     0.00005181       -55.9267860258 -3.42E-08
     6 TBLite/Diag 0.40E+00    0.0     0.00001674       -55.9267860284 -2.64E-09
     7 TBLite/Diag 0.40E+00    0.0     0.00000292       -55.9267860285 -1.35E-10
     8 TBLite/Diag 0.40E+00    0.0     0.00000256       -55.9267860286 -6.40E-11
     9 TBLite/Diag 0.40E+00    0.0     0.00000057       -55.9267860286 -1.62E-12
    10 TBLite/Diag 0.40E+00    0.0     0.00000006       -55.9267860286 -1.42E-14
    11 TBLite/Diag 0.40E+00    0.0     0.00000003       -55.9267860286  3.55E-14
    12 TBLite/Diag 0.40E+00    0.0     7.4326E-09       -55.9267860286 -4.26E-14
    13 TBLite/Diag 0.40E+00    0.0     2.9864E-09       -55.9267860286  7.11E-15
    14 TBLite/Diag 0.40E+00    0.0     1.2738E-09       -55.9267860286  2.13E-14
    15 TBLite/Diag 0.40E+00    0.0     1.0876E-09       -55.9267860286 -6.39E-14
    16 TBLite/Diag 0.40E+00    0.0     2.3456E-10       -55.9267860286 -2.84E-14

  *** SCF run converged in    16 steps ***


  Core Hamiltonian energy:                                    -56.51689583112402
  Repulsive potential energy:                                   0.48508846335749
  Electrostatic energy:                                         0.16053090106185
  Self-consistent dispersion energy:                           -0.07063050043106
  Non-self consistent dispersion energy:                        0.01512093853111
  Correction for halogen bonding:                               0.00000000000000
  Electronic entropic energy:                                  -0.00000000000000
  Fermi energy:                                                -0.27614849393537

  Total energy:                                               -55.92678602860463
  Total energy (extrapolated to T->0):                        -55.92678602860463

 ENERGY| Total FORCE_EVAL ( QS ) energy [hartree]            -55.926786028604631

 OPT| **************************************************************************
 OPT| Step number                                                              4
 OPT| Optimization method                                                   BFGS
 OPT| Total energy [hartree]                                      -55.9267860286
 OPT| Internal pressure [bar]                                    7889.2894962394
 OPT| Effective energy change [hartree]                            -0.0012568815
 OPT| Predicted energy change [hartree]                            -0.0009124320
 OPT| Scaling factor                                                0.0000000000
 OPT| Step size                                                     0.0775218653
 OPT| Trust radius                                                  0.4724315332
 OPT| Decrease in energy                                                     YES
 OPT| Used time [s]                                                        1.720
 OPT|
 OPT| Maximum step size                                             0.0775218653
 OPT| Convergence limit for maximum step size                       0.0030000000
 OPT| Maximum step size is converged                                          NO
 OPT|
 OPT| RMS step size                                                 0.0139511727
 OPT| Convergence limit for RMS step size                           0.0015000000
 OPT| RMS step size is converged                                              NO
 OPT|
 OPT| Maximum gradient                                              0.0069681267
 OPT| Convergence limit for maximum gradient                        0.0004500000
 OPT| Maximum gradient is converged                                           NO
 OPT|
 OPT| RMS gradient                                                  0.0029606528
 OPT| Convergence limit for RMS gradient                            0.0003000000
 OPT| RMS gradient is converged                                               NO
 OPT|
 OPT| Pressure deviation [bar]                                   7889.2894962394
 OPT| Pressure tolerance [bar]                                    100.0000000000
 OPT| Pressure is converged                                                   NO
 OPT| **************************************************************************
 OPT| Estimated peak process memory after this step [MiB]                    165

 --------------------------
 OPTIMIZATION STEP:      5
 --------------------------

 CELL| Volume [angstrom^3]:                                           230.581860
 CELL| Vector a [angstrom]:       5.412     0.000     0.000   |a| =     5.412239
 CELL| Vector b [angstrom]:       0.000     8.739     0.000   |b| =     8.738822
 CELL| Vector c [angstrom]:      -0.313     0.000     4.875   |c| =     4.885276
 CELL| Angle (b,c), alpha [degree]:                                    90.000000
 CELL| Angle (a,c), beta  [degree]:                                    93.674728
 CELL| Angle (a,b), gamma [degree]:                                    90.000000
 CELL| Numerically orthorhombic:                                              NO
 CELL| Periodicity                                                           XYZ

 Extrapolation method: ASPC

 Number of electrons:                                                         92
 Number of occupied orbitals:                                                 46
 Number of molecular orbitals:                                                76

 Number of orbital functions:                                                 76
 Number of independent orbital functions:                                     76


 SCF WAVEFUNCTION OPTIMIZATION

  Step     Update method      Time    Convergence         Total energy    Change
  ------------------------------------------------------------------------------
     1 TBLite/Diag 0.40E+00    0.0     0.01928652       -55.9277842256 -5.59E+01
     2 TBLite/Diag 0.40E+00    0.0     0.00102628       -55.9277932487 -9.02E-06
     3 TBLite/Diag 0.40E+00    0.0     0.00024275       -55.9277935076 -2.59E-07
     4 TBLite/Diag 0.40E+00    0.0     0.00016862       -55.9277936315 -1.24E-07
     5 TBLite/Diag 0.40E+00    0.0     0.00007316       -55.9277936701 -3.86E-08
     6 TBLite/Diag 0.40E+00    0.0     0.00001672       -55.9277936725 -2.35E-09
     7 TBLite/Diag 0.40E+00    0.0     0.00000397       -55.9277936726 -1.40E-10
     8 TBLite/Diag 0.40E+00    0.0     0.00000084       -55.9277936726 -9.04E-12
     9 TBLite/Diag 0.40E+00    0.0     0.00000040       -55.9277936726 -7.39E-13
    10 TBLite/Diag 0.40E+00    0.0     0.00000002       -55.9277936726  3.55E-14
    11 TBLite/Diag 0.40E+00    0.0     0.00000002       -55.9277936726 -2.84E-14
    12 TBLite/Diag 0.40E+00    0.0     6.4270E-09       -55.9277936726  2.84E-14
    13 TBLite/Diag 0.40E+00    0.0     2.6034E-09       -55.9277936726  2.13E-14
    14 TBLite/Diag 0.40E+00    0.0     6.9611E-10       -55.9277936726  5.68E-14

  *** SCF run converged in    14 steps ***


  Core Hamiltonian energy:                                    -56.51401746700127
  Repulsive potential energy:                                   0.48223888056317
  Electrostatic energy:                                         0.15998518706083
  Self-consistent dispersion energy:                           -0.07144228135713
  Non-self consistent dispersion energy:                        0.01544200809508
  Correction for halogen bonding:                               0.00000000000000
  Electronic entropic energy:                                  -0.00000000000000
  Fermi energy:                                                -0.27704405260938

  Total energy:                                               -55.92779367263932
  Total energy (extrapolated to T->0):                        -55.92779367263932

 ENERGY| Total FORCE_EVAL ( QS ) energy [hartree]            -55.927793672639318

 OPT| **************************************************************************
 OPT| Step number                                                              5
 OPT| Optimization method                                                   BFGS
 OPT| Total energy [hartree]                                      -55.9277936726
 OPT| Internal pressure [bar]                                    9274.6847919966
 OPT| Effective energy change [hartree]                            -0.0010076440
 OPT| Predicted energy change [hartree]                            -0.0007163315
 OPT| Scaling factor                                                0.0000000000
 OPT| Step size                                                     0.0719559930
 OPT| Trust radius                                                  0.4724315332
 OPT| Decrease in energy                                                     YES
 OPT| Used time [s]                                                        1.719
 OPT|
 OPT| Maximum step size                                             0.0719559930
 OPT| Convergence limit for maximum step size                       0.0030000000
 OPT| Maximum step size is converged                                          NO
 OPT|
 OPT| RMS step size                                                 0.0136812981
 OPT| Convergence limit for RMS step size                           0.0015000000
 OPT| RMS step size is converged                                              NO
 OPT|
 OPT| Maximum gradient                                              0.0072863795
 OPT| Convergence limit for maximum gradient                        0.0004500000
 OPT| Maximum gradient is converged                                           NO
 OPT|
 OPT| RMS gradient                                                  0.0028375612
 OPT| Convergence limit for RMS gradient                            0.0003000000
 OPT| RMS gradient is converged                                               NO
 OPT|
 OPT| Pressure deviation [bar]                                   9274.6847919966
 OPT| Pressure tolerance [bar]                                    100.0000000000
 OPT| Pressure is converged                                                   NO
 OPT| **************************************************************************
 OPT| Estimated peak process memory after this step [MiB]                    165

 --------------------------
 OPTIMIZATION STEP:      6
 --------------------------

 CELL| Volume [angstrom^3]:                                           228.521337
 CELL| Vector a [angstrom]:       5.403     0.000     0.000   |a| =     5.402750
 CELL| Vector b [angstrom]:       0.000     8.738     0.000   |b| =     8.738098
 CELL| Vector c [angstrom]:      -0.328     0.000     4.841   |c| =     4.851657
 CELL| Angle (b,c), alpha [degree]:                                    90.000000
 CELL| Angle (a,c), beta  [degree]:                                    93.877161
 CELL| Angle (a,b), gamma [degree]:                                    90.000000
 CELL| Numerically orthorhombic:                                              NO
 CELL| Periodicity                                                           XYZ

 Extrapolation method: ASPC

 Number of electrons:                                                         92
 Number of occupied orbitals:                                                 46
 Number of molecular orbitals:                                                76

 Number of orbital functions:                                                 76
 Number of independent orbital functions:                                     76


 SCF WAVEFUNCTION OPTIMIZATION

  Step     Update method      Time    Convergence         Total energy    Change
  ------------------------------------------------------------------------------
     1 TBLite/Diag 0.40E+00    0.0     0.01770376       -55.9286923353 -5.59E+01
     2 TBLite/Diag 0.40E+00    0.0     0.00186714       -55.9287109085 -1.86E-05
     3 TBLite/Diag 0.40E+00    0.0     0.00070438       -55.9287116441 -7.36E-07
     4 TBLite/Diag 0.40E+00    0.0     0.00032868       -55.9287125200 -8.76E-07
     5 TBLite/Diag 0.40E+00    0.0     0.00009480       -55.9287125870 -6.70E-08
     6 TBLite/Diag 0.40E+00    0.0     0.00001653       -55.9287125895 -2.48E-09
     7 TBLite/Diag 0.40E+00    0.0     0.00000338       -55.9287125896 -1.07E-10
     8 TBLite/Diag 0.40E+00    0.0     0.00000165       -55.9287125896 -2.08E-11
     9 TBLite/Diag 0.40E+00    0.0     0.00000028       -55.9287125896 -4.05E-13
    10 TBLite/Diag 0.40E+00    0.0     0.00000010       -55.9287125896 -9.24E-14
    11 TBLite/Diag 0.40E+00    0.0     0.00000003       -55.9287125896 -5.68E-14
    12 TBLite/Diag 0.40E+00    0.0     0.00000001       -55.9287125896  4.97E-14
    13 TBLite/Diag 0.40E+00    0.0     2.4869E-09       -55.9287125896 -2.13E-14
    14 TBLite/Diag 0.40E+00    0.0     1.1482E-09       -55.9287125896  2.84E-14
    15 TBLite/Diag 0.40E+00    0.0     2.8943E-10       -55.9287125896 -4.26E-14

  *** SCF run converged in    15 steps ***


  Core Hamiltonian energy:                                    -56.50619509227688
  Repulsive potential energy:                                   0.47419524523548
  Electrostatic energy:                                         0.15972947099441
  Self-consistent dispersion energy:                           -0.07215797105065
  Non-self consistent dispersion energy:                        0.01571575746468
  Correction for halogen bonding:                               0.00000000000000
  Electronic entropic energy:                                  -0.00000000000000
  Fermi energy:                                                -0.27856999989862

  Total energy:                                               -55.92871258963295
  Total energy (extrapolated to T->0):                        -55.92871258963295

 ENERGY| Total FORCE_EVAL ( QS ) energy [hartree]            -55.928712589632951

 OPT| **************************************************************************
 OPT| Step number                                                              6
 OPT| Optimization method                                                   BFGS
 OPT| Total energy [hartree]                                      -55.9287125896
 OPT| Internal pressure [bar]                                    4818.0386885599
 OPT| Effective energy change [hartree]                            -0.0009189170
 OPT| Predicted energy change [hartree]                            -0.0007042572
 OPT| Scaling factor                                                0.0000000000
 OPT| Step size                                                     0.0655331673
 OPT| Trust radius                                                  0.4724315332
 OPT| Decrease in energy                                                     YES
 OPT| Used time [s]                                                        1.754
 OPT|
 OPT| Maximum step size                                             0.0655331673
 OPT| Convergence limit for maximum step size                       0.0030000000
 OPT| Maximum step size is converged                                          NO
 OPT|
 OPT| RMS step size                                                 0.0137185530
 OPT| Convergence limit for RMS step size                           0.0015000000
 OPT| RMS step size is converged                                              NO
 OPT|
 OPT| Maximum gradient                                              0.0063482341
 OPT| Convergence limit for maximum gradient                        0.0004500000
 OPT| Maximum gradient is converged                                           NO
 OPT|
 OPT| RMS gradient                                                  0.0020808682
 OPT| Convergence limit for RMS gradient                            0.0003000000
 OPT| RMS gradient is converged                                               NO
 OPT|
 OPT| Pressure deviation [bar]                                   4818.0386885599
 OPT| Pressure tolerance [bar]                                    100.0000000000
 OPT| Pressure is converged                                                   NO
 OPT| **************************************************************************
 OPT| Estimated peak process memory after this step [MiB]                    165

 --------------------------
 OPTIMIZATION STEP:      7
 --------------------------

 CELL| Volume [angstrom^3]:                                           227.699296
 CELL| Vector a [angstrom]:       5.400     0.000     0.000   |a| =     5.399812
 CELL| Vector b [angstrom]:      -0.000     8.740     0.000   |b| =     8.739836
 CELL| Vector c [angstrom]:      -0.340     0.000     4.825   |c| =     4.836768
 CELL| Angle (b,c), alpha [degree]:                                    90.000000
 CELL| Angle (a,c), beta  [degree]:                                    94.030576
 CELL| Angle (a,b), gamma [degree]:                                    90.000000
 CELL| Numerically orthorhombic:                                              NO
 CELL| Periodicity                                                           XYZ

 Extrapolation method: ASPC

 Number of electrons:                                                         92
 Number of occupied orbitals:                                                 46
 Number of molecular orbitals:                                                76

 Number of orbital functions:                                                 76
 Number of independent orbital functions:                                     76


 SCF WAVEFUNCTION OPTIMIZATION

  Step     Update method      Time    Convergence         Total energy    Change
  ------------------------------------------------------------------------------
     1 TBLite/Diag 0.40E+00    0.0     0.00966273       -55.9291913301 -5.59E+01
     2 TBLite/Diag 0.40E+00    0.0     0.00108225       -55.9291996881 -8.36E-06
     3 TBLite/Diag 0.40E+00    0.0     0.00052802       -55.9292001900 -5.02E-07
     4 TBLite/Diag 0.40E+00    0.0     0.00022685       -55.9292007417 -5.52E-07
     5 TBLite/Diag 0.40E+00    0.0     0.00005034       -55.9292007622 -2.05E-08
     6 TBLite/Diag 0.40E+00    0.0     0.00001082       -55.9292007646 -2.38E-09
     7 TBLite/Diag 0.40E+00    0.0     0.00000213       -55.9292007646 -6.21E-11
     8 TBLite/Diag 0.40E+00    0.0     0.00000182       -55.9292007647 -1.10E-11
     9 TBLite/Diag 0.40E+00    0.0     0.00000024       -55.9292007647 -3.48E-13
    10 TBLite/Diag 0.40E+00    0.0     0.00000006       -55.9292007647 -1.42E-14
    11 TBLite/Diag 0.40E+00    0.0     0.00000003       -55.9292007647  5.68E-14
    12 TBLite/Diag 0.40E+00    0.0     3.8538E-09       -55.9292007647 -2.84E-14
    13 TBLite/Diag 0.40E+00    0.0     2.7980E-09       -55.9292007647  4.26E-14
    14 TBLite/Diag 0.40E+00    0.0     6.1731E-10       -55.9292007647  0.00E+00

  *** SCF run converged in    14 steps ***


  Core Hamiltonian energy:                                    -56.49996008213239
  Repulsive potential energy:                                   0.46768524124994
  Electrostatic energy:                                         0.15971147512077
  Self-consistent dispersion energy:                           -0.07246686598602
  Non-self consistent dispersion energy:                        0.01582946709155
  Correction for halogen bonding:                               0.00000000000000
  Electronic entropic energy:                                  -0.00000000000000
  Fermi energy:                                                -0.27949629191691

  Total energy:                                               -55.92920076465614
  Total energy (extrapolated to T->0):                        -55.92920076465614

 ENERGY| Total FORCE_EVAL ( QS ) energy [hartree]            -55.929200764656144

 OPT| **************************************************************************
 OPT| Step number                                                              7
 OPT| Optimization method                                                   BFGS
 OPT| Total energy [hartree]                                      -55.9292007647
 OPT| Internal pressure [bar]                                    -498.7502271139
 OPT| Effective energy change [hartree]                            -0.0004881750
 OPT| Predicted energy change [hartree]                            -0.0003801965
 OPT| Scaling factor                                                0.0000000000
 OPT| Step size                                                     0.0297586098
 OPT| Trust radius                                                  0.4724315332
 OPT| Decrease in energy                                                     YES
 OPT| Used time [s]                                                        1.755
 OPT|
 OPT| Maximum step size                                             0.0297586098
 OPT| Convergence limit for maximum step size                       0.0030000000
 OPT| Maximum step size is converged                                          NO
 OPT|
 OPT| RMS step size                                                 0.0076915325
 OPT| Convergence limit for RMS step size                           0.0015000000
 OPT| RMS step size is converged                                              NO
 OPT|
 OPT| Maximum gradient                                              0.0061859791
 OPT| Convergence limit for maximum gradient                        0.0004500000
 OPT| Maximum gradient is converged                                           NO
 OPT|
 OPT| RMS gradient                                                  0.0014580469
 OPT| Convergence limit for RMS gradient                            0.0003000000
 OPT| RMS gradient is converged                                               NO
 OPT|
 OPT| Pressure deviation [bar]                                   -498.7502271139
 OPT| Pressure tolerance [bar]                                    100.0000000000
 OPT| Pressure is converged                                                   NO
 OPT| **************************************************************************
 OPT| Estimated peak process memory after this step [MiB]                    165

 --------------------------
 OPTIMIZATION STEP:      8
 --------------------------

 CELL| Volume [angstrom^3]:                                           227.460950
 CELL| Vector a [angstrom]:       5.399     0.000     0.000   |a| =     5.399050
 CELL| Vector b [angstrom]:      -0.000     8.742     0.000   |b| =     8.741512
 CELL| Vector c [angstrom]:      -0.349     0.000     4.820   |c| =     4.832159
 CELL| Angle (b,c), alpha [degree]:                                    90.000000
 CELL| Angle (a,c), beta  [degree]:                                    94.146511
 CELL| Angle (a,b), gamma [degree]:                                    90.000000
 CELL| Numerically orthorhombic:                                              NO
 CELL| Periodicity                                                           XYZ

 Extrapolation method: ASPC

 Number of electrons:                                                         92
 Number of occupied orbitals:                                                 46
 Number of molecular orbitals:                                                76

 Number of orbital functions:                                                 76
 Number of independent orbital functions:                                     76


 SCF WAVEFUNCTION OPTIMIZATION

  Step     Update method      Time    Convergence         Total energy    Change
  ------------------------------------------------------------------------------
     1 TBLite/Diag 0.40E+00    0.0     0.00633625       -55.9294548770 -5.59E+01
     2 TBLite/Diag 0.40E+00    0.0     0.00042249       -55.9294573227 -2.45E-06
     3 TBLite/Diag 0.40E+00    0.0     0.00020967       -55.9294575076 -1.85E-07
     4 TBLite/Diag 0.40E+00    0.0     0.00007626       -55.9294575541 -4.64E-08
     5 TBLite/Diag 0.40E+00    0.0     0.00003463       -55.9294575601 -5.99E-09
     6 TBLite/Diag 0.40E+00    0.0     0.00001288       -55.9294575619 -1.88E-09
     7 TBLite/Diag 0.40E+00    0.0     0.00000176       -55.9294575620 -5.28E-11
     8 TBLite/Diag 0.40E+00    0.0     0.00000197       -55.9294575620 -2.51E-11
     9 TBLite/Diag 0.40E+00    0.0     0.00000030       -55.9294575620 -6.04E-13
    10 TBLite/Diag 0.40E+00    0.0     0.00000007       -55.9294575620  3.55E-14
    11 TBLite/Diag 0.40E+00    0.0     0.00000003       -55.9294575620 -1.42E-14
    12 TBLite/Diag 0.40E+00    0.0     3.2095E-09       -55.9294575620  4.26E-14
    13 TBLite/Diag 0.40E+00    0.0     2.4098E-09       -55.9294575620 -5.68E-14
    14 TBLite/Diag 0.40E+00    0.0     7.3379E-10       -55.9294575620 -2.13E-14

  *** SCF run converged in    14 steps ***


  Core Hamiltonian energy:                                    -56.49775686685231
  Repulsive potential energy:                                   0.46530634825554
  Electrostatic energy:                                         0.15969816372598
  Self-consistent dispersion energy:                           -0.07256913981320
  Non-self consistent dispersion energy:                        0.01586393267041
  Correction for halogen bonding:                               0.00000000000000
  Electronic entropic energy:                                  -0.00000000000000
  Fermi energy:                                                -0.27965485858287

  Total energy:                                               -55.92945756201358
  Total energy (extrapolated to T->0):                        -55.92945756201358

 ENERGY| Total FORCE_EVAL ( QS ) energy [hartree]            -55.929457562013582

 OPT| **************************************************************************
 OPT| Step number                                                              8
 OPT| Optimization method                                                   BFGS
 OPT| Total energy [hartree]                                      -55.9294575620
 OPT| Internal pressure [bar]                                   -2965.8758811831
 OPT| Effective energy change [hartree]                            -0.0002567974
 OPT| Predicted energy change [hartree]                            -0.0001859208
 OPT| Scaling factor                                                0.0000000000
 OPT| Step size                                                     0.0178176607
 OPT| Trust radius                                                  0.4724315332
 OPT| Decrease in energy                                                     YES
 OPT| Used time [s]                                                        1.758
 OPT|
 OPT| Maximum step size                                             0.0178176607
 OPT| Convergence limit for maximum step size                       0.0030000000
 OPT| Maximum step size is converged                                          NO
 OPT|
 OPT| RMS step size                                                 0.0040893362
 OPT| Convergence limit for RMS step size                           0.0015000000
 OPT| RMS step size is converged                                              NO
 OPT|
 OPT| Maximum gradient                                              0.0059554207
 OPT| Convergence limit for maximum gradient                        0.0004500000
 OPT| Maximum gradient is converged                                           NO
 OPT|
 OPT| RMS gradient                                                  0.0012715737
 OPT| Convergence limit for RMS gradient                            0.0003000000
 OPT| RMS gradient is converged                                               NO
 OPT|
 OPT| Pressure deviation [bar]                                  -2965.8758811831
 OPT| Pressure tolerance [bar]                                    100.0000000000
 OPT| Pressure is converged                                                   NO
 OPT| **************************************************************************
 OPT| Estimated peak process memory after this step [MiB]                    165

 --------------------------
 OPTIMIZATION STEP:      9
 --------------------------

 CELL| Volume [angstrom^3]:                                           227.135124
 CELL| Vector a [angstrom]:       5.397     0.000     0.000   |a| =     5.396883
 CELL| Vector b [angstrom]:      -0.000     8.743     0.000   |b| =     8.742818
 CELL| Vector c [angstrom]:      -0.362     0.000     4.814   |c| =     4.827440
 CELL| Angle (b,c), alpha [degree]:                                    90.000000
 CELL| Angle (a,c), beta  [degree]:                                    94.305089
 CELL| Angle (a,b), gamma [degree]:                                    90.000000
 CELL| Numerically orthorhombic:                                              NO
 CELL| Periodicity                                                           XYZ

 Extrapolation method: ASPC

 Number of electrons:                                                         92
 Number of occupied orbitals:                                                 46
 Number of molecular orbitals:                                                76

 Number of orbital functions:                                                 76
 Number of independent orbital functions:                                     76


 SCF WAVEFUNCTION OPTIMIZATION

  Step     Update method      Time    Convergence         Total energy    Change
  ------------------------------------------------------------------------------
     1 TBLite/Diag 0.40E+00    0.0     0.00491815       -55.9297103896 -5.59E+01
     2 TBLite/Diag 0.40E+00    0.0     0.00037693       -55.9297124075 -2.02E-06
     3 TBLite/Diag 0.40E+00    0.0     0.00014794       -55.9297124802 -7.27E-08
     4 TBLite/Diag 0.40E+00    0.0     0.00012181       -55.9297125499 -6.97E-08
     5 TBLite/Diag 0.40E+00    0.0     0.00003863       -55.9297125625 -1.26E-08
     6 TBLite/Diag 0.40E+00    0.0     0.00001110       -55.9297125635 -1.03E-09
     7 TBLite/Diag 0.40E+00    0.0     0.00000249       -55.9297125636 -6.62E-11
     8 TBLite/Diag 0.40E+00    0.0     0.00000180       -55.9297125636 -1.76E-11
     9 TBLite/Diag 0.40E+00    0.0     0.00000021       -55.9297125636 -2.27E-13
    10 TBLite/Diag 0.40E+00    0.0     0.00000003       -55.9297125636  3.55E-14
    11 TBLite/Diag 0.40E+00    0.0     0.00000001       -55.9297125636 -8.53E-14
    12 TBLite/Diag 0.40E+00    0.0     3.6542E-09       -55.9297125636  5.68E-14
    13 TBLite/Diag 0.40E+00    0.0     1.3328E-09       -55.9297125636  4.26E-14
    14 TBLite/Diag 0.40E+00    0.0     8.8359E-10       -55.9297125636 -1.07E-13

  *** SCF run converged in    14 steps ***


  Core Hamiltonian energy:                                    -56.49753798873418
  Repulsive potential energy:                                   0.46498862441208
  Electrostatic energy:                                         0.15962329172014
  Self-consistent dispersion energy:                           -0.07269619473177
  Non-self consistent dispersion energy:                        0.01590970370930
  Correction for halogen bonding:                               0.00000000000000
  Electronic entropic energy:                                  -0.00000000000000
  Fermi energy:                                                -0.27950065320664

  Total energy:                                               -55.92971256362444
  Total energy (extrapolated to T->0):                        -55.92971256362444

 ENERGY| Total FORCE_EVAL ( QS ) energy [hartree]            -55.929712563624442

 OPT| **************************************************************************
 OPT| Step number                                                              9
 OPT| Optimization method                                                   BFGS
 OPT| Total energy [hartree]                                      -55.9297125636
 OPT| Internal pressure [bar]                                   -3656.0619313982
 OPT| Effective energy change [hartree]                            -0.0002550016
 OPT| Predicted energy change [hartree]                            -0.0001689140
 OPT| Scaling factor                                                0.0000000000
 OPT| Step size                                                     0.0245351776
 OPT| Trust radius                                                  0.4724315332
 OPT| Decrease in energy                                                     YES
 OPT| Used time [s]                                                        1.767
 OPT|
 OPT| Maximum step size                                             0.0245351776
 OPT| Convergence limit for maximum step size                       0.0030000000
 OPT| Maximum step size is converged                                          NO
 OPT|
 OPT| RMS step size                                                 0.0045563888
 OPT| Convergence limit for RMS step size                           0.0015000000
 OPT| RMS step size is converged                                              NO
 OPT|
 OPT| Maximum gradient                                              0.0055498682
 OPT| Convergence limit for maximum gradient                        0.0004500000
 OPT| Maximum gradient is converged                                           NO
 OPT|
 OPT| RMS gradient                                                  0.0013459803
 OPT| Convergence limit for RMS gradient                            0.0003000000
 OPT| RMS gradient is converged                                               NO
 OPT|
 OPT| Pressure deviation [bar]                                  -3656.0619313982
 OPT| Pressure tolerance [bar]                                    100.0000000000
 OPT| Pressure is converged                                                   NO
 OPT| **************************************************************************
 OPT| Estimated peak process memory after this step [MiB]                    165

 --------------------------
 OPTIMIZATION STEP:     10
 --------------------------

 CELL| Volume [angstrom^3]:                                           226.335741
 CELL| Vector a [angstrom]:       5.391     0.000     0.000   |a| =     5.390513
 CELL| Vector b [angstrom]:      -0.000     8.744     0.000   |b| =     8.744020
 CELL| Vector c [angstrom]:      -0.386    -0.000     4.802   |c| =     4.817380
 CELL| Angle (b,c), alpha [degree]:                                    90.000000
 CELL| Angle (a,c), beta  [degree]:                                    94.596409
 CELL| Angle (a,b), gamma [degree]:                                    90.000000
 CELL| Numerically orthorhombic:                                              NO
 CELL| Periodicity                                                           XYZ

 Extrapolation method: ASPC

 Number of electrons:                                                         92
 Number of occupied orbitals:                                                 46
 Number of molecular orbitals:                                                76

 Number of orbital functions:                                                 76
 Number of independent orbital functions:                                     76


 SCF WAVEFUNCTION OPTIMIZATION

  Step     Update method      Time    Convergence         Total energy    Change
  ------------------------------------------------------------------------------
     1 TBLite/Diag 0.40E+00    0.0     0.00545680       -55.9300648079 -5.59E+01
     2 TBLite/Diag 0.40E+00    0.0     0.00060458       -55.9300672065 -2.40E-06
     3 TBLite/Diag 0.40E+00    0.0     0.00028359       -55.9300671894  1.71E-08
     4 TBLite/Diag 0.40E+00    0.0     0.00019581       -55.9300674412 -2.52E-07
     5 TBLite/Diag 0.40E+00    0.0     0.00003668       -55.9300674549 -1.37E-08
     6 TBLite/Diag 0.40E+00    0.0     0.00001619       -55.9300674562 -1.33E-09
     7 TBLite/Diag 0.40E+00    0.0     0.00000111       -55.9300674562 -1.64E-11
     8 TBLite/Diag 0.40E+00    0.0     0.00000064       -55.9300674562 -2.55E-12
     9 TBLite/Diag 0.40E+00    0.0     0.00000013       -55.9300674562 -1.42E-13
    10 TBLite/Diag 0.40E+00    0.0     0.00000003       -55.9300674562  3.55E-14
    11 TBLite/Diag 0.40E+00    0.0     9.0447E-09       -55.9300674562  0.00E+00
    12 TBLite/Diag 0.40E+00    0.0     4.0992E-09       -55.9300674562  4.97E-14
    13 TBLite/Diag 0.40E+00    0.0     1.5523E-09       -55.9300674562 -5.68E-14
    14 TBLite/Diag 0.40E+00    0.0     2.3843E-09       -55.9300674562 -4.26E-14
    15 TBLite/Diag 0.40E+00    0.0     9.0300E-10       -55.9300674562  3.55E-14

  *** SCF run converged in    15 steps ***


  Core Hamiltonian energy:                                    -56.49833842298965
  Repulsive potential energy:                                   0.46575968943650
  Electrostatic energy:                                         0.15947215042460
  Self-consistent dispersion energy:                           -0.07298368456787
  Non-self consistent dispersion energy:                        0.01602281146290
  Correction for halogen bonding:                               0.00000000000000
  Electronic entropic energy:                                  -0.00000000000000
  Fermi energy:                                                -0.27920828552436

  Total energy:                                               -55.93006745623353
  Total energy (extrapolated to T->0):                        -55.93006745623353

 ENERGY| Total FORCE_EVAL ( QS ) energy [hartree]            -55.930067456233530

 OPT| **************************************************************************
 OPT| Step number                                                             10
 OPT| Optimization method                                                   BFGS
 OPT| Total energy [hartree]                                      -55.9300674562
 OPT| Internal pressure [bar]                                   -3238.4526793891
 OPT| Effective energy change [hartree]                            -0.0003548926
 OPT| Predicted energy change [hartree]                            -0.0002350519
 OPT| Scaling factor                                                0.0000000000
 OPT| Step size                                                     0.0447201111
 OPT| Trust radius                                                  0.4724315332
 OPT| Decrease in energy                                                     YES
 OPT| Used time [s]                                                        1.784
 OPT|
 OPT| Maximum step size                                             0.0447201111
 OPT| Convergence limit for maximum step size                       0.0030000000
 OPT| Maximum step size is converged                                          NO
 OPT|
 OPT| RMS step size                                                 0.0076954256
 OPT| Convergence limit for RMS step size                           0.0015000000
 OPT| RMS step size is converged                                              NO
 OPT|
 OPT| Maximum gradient                                              0.0045624145
 OPT| Convergence limit for maximum gradient                        0.0004500000
 OPT| Maximum gradient is converged                                           NO
 OPT|
 OPT| RMS gradient                                                  0.0015910813
 OPT| Convergence limit for RMS gradient                            0.0003000000
 OPT| RMS gradient is converged                                               NO
 OPT|
 OPT| Pressure deviation [bar]                                  -3238.4526793891
 OPT| Pressure tolerance [bar]                                    100.0000000000
 OPT| Pressure is converged                                                   NO
 OPT| **************************************************************************
 OPT| Estimated peak process memory after this step [MiB]                    165

 --------------------------
 OPTIMIZATION STEP:     11
 --------------------------

 CELL| Volume [angstrom^3]:                                           224.854953
 CELL| Vector a [angstrom]:       5.378     0.000     0.000   |a| =     5.377570
 CELL| Vector b [angstrom]:      -0.000     8.745     0.000   |b| =     8.745160
 CELL| Vector c [angstrom]:      -0.423     0.000     4.781   |c| =     4.800017
 CELL| Angle (b,c), alpha [degree]:                                    90.000000
 CELL| Angle (a,c), beta  [degree]:                                    95.057516
 CELL| Angle (a,b), gamma [degree]:                                    90.000000
 CELL| Numerically orthorhombic:                                              NO
 CELL| Periodicity                                                           XYZ

 Extrapolation method: ASPC

 Number of electrons:                                                         92
 Number of occupied orbitals:                                                 46
 Number of molecular orbitals:                                                76

 Number of orbital functions:                                                 76
 Number of independent orbital functions:                                     76


 SCF WAVEFUNCTION OPTIMIZATION

  Step     Update method      Time    Convergence         Total energy    Change
  ------------------------------------------------------------------------------
     1 TBLite/Diag 0.40E+00    0.0     0.00659177       -55.9305051837 -5.59E+01
     2 TBLite/Diag 0.40E+00    0.0     0.00062954       -55.9305074774 -2.29E-06
     3 TBLite/Diag 0.40E+00    0.0     0.00032284       -55.9305074983 -2.09E-08
     4 TBLite/Diag 0.40E+00    0.0     0.00020165       -55.9305078081 -3.10E-07
     5 TBLite/Diag 0.40E+00    0.0     0.00003257       -55.9305078183 -1.02E-08
     6 TBLite/Diag 0.40E+00    0.0     0.00001255       -55.9305078197 -1.42E-09
     7 TBLite/Diag 0.40E+00    0.0     0.00000280       -55.9305078198 -9.32E-11
     8 TBLite/Diag 0.40E+00    0.0     0.00000179       -55.9305078198 -2.37E-11
     9 TBLite/Diag 0.40E+00    0.0     0.00000025       -55.9305078198 -6.32E-13
    10 TBLite/Diag 0.40E+00    0.0     0.00000007       -55.9305078198 -9.95E-14
    11 TBLite/Diag 0.40E+00    0.0     0.00000003       -55.9305078198  5.68E-14
    12 TBLite/Diag 0.40E+00    0.0     2.9851E-09       -55.9305078198 -7.11E-15
    13 TBLite/Diag 0.40E+00    0.0     1.1730E-09       -55.9305078198 -7.11E-14
    14 TBLite/Diag 0.40E+00    0.0     7.6986E-10       -55.9305078198  5.68E-14

  *** SCF run converged in    14 steps ***


  Core Hamiltonian energy:                                    -56.49934171378339
  Repulsive potential energy:                                   0.46681562895586
  Electrostatic energy:                                         0.15928229198167
  Self-consistent dispersion energy:                           -0.07350272238925
  Non-self consistent dispersion energy:                        0.01623869540526
  Correction for halogen bonding:                               0.00000000000000
  Electronic entropic energy:                                  -0.00000000000000
  Fermi energy:                                                -0.27894750646744

  Total energy:                                               -55.93050781982986
  Total energy (extrapolated to T->0):                        -55.93050781982986

 ENERGY| Total FORCE_EVAL ( QS ) energy [hartree]            -55.930507819829856

 OPT| **************************************************************************
 OPT| Step number                                                             11
 OPT| Optimization method                                                   BFGS
 OPT| Total energy [hartree]                                      -55.9305078198
 OPT| Internal pressure [bar]                                   -2208.7187519726
 OPT| Effective energy change [hartree]                            -0.0004403636
 OPT| Predicted energy change [hartree]                            -0.0003071094
 OPT| Scaling factor                                                0.0000000000
 OPT| Step size                                                     0.0701111755
 OPT| Trust radius                                                  0.4724315332
 OPT| Decrease in energy                                                     YES
 OPT| Used time [s]                                                        1.688
 OPT|
 OPT| Maximum step size                                             0.0701111755
 OPT| Convergence limit for maximum step size                       0.0030000000
 OPT| Maximum step size is converged                                          NO
 OPT|
 OPT| RMS step size                                                 0.0118769438
 OPT| Convergence limit for RMS step size                           0.0015000000
 OPT| RMS step size is converged                                              NO
 OPT|
 OPT| Maximum gradient                                              0.0047041592
 OPT| Convergence limit for maximum gradient                        0.0004500000
 OPT| Maximum gradient is converged                                           NO
 OPT|
 OPT| RMS gradient                                                  0.0017507527
 OPT| Convergence limit for RMS gradient                            0.0003000000
 OPT| RMS gradient is converged                                               NO
 OPT|
 OPT| Pressure deviation [bar]                                  -2208.7187519726
[...]
 CELL| Vector c [angstrom]:      -0.789    -0.000     4.806   |c| =     4.870558
 CELL| Angle (b,c), alpha [degree]:                                    90.000007
 CELL| Angle (a,c), beta  [degree]:                                    99.328464
 CELL| Angle (a,b), gamma [degree]:                                    89.999999
 CELL| Numerically orthorhombic:                                              NO
 CELL| Periodicity                                                           XYZ

 Extrapolation method: ASPC

 Number of electrons:                                                         92
 Number of occupied orbitals:                                                 46
 Number of molecular orbitals:                                                76

 Number of orbital functions:                                                 76
 Number of independent orbital functions:                                     76


 SCF WAVEFUNCTION OPTIMIZATION

  Step     Update method      Time    Convergence         Total energy    Change
  ------------------------------------------------------------------------------
     1 TBLite/Diag 0.40E+00    0.0     0.00135632       -55.9394547985 -5.59E+01
     2 TBLite/Diag 0.40E+00    0.0     0.00007057       -55.9394548368 -3.82E-08
     3 TBLite/Diag 0.40E+00    0.0     0.00005459       -55.9394548375 -7.12E-10
     4 TBLite/Diag 0.40E+00    0.0     0.00003454       -55.9394548420 -4.53E-09
     5 TBLite/Diag 0.40E+00    0.0     0.00000612       -55.9394548421 -1.21E-10
     6 TBLite/Diag 0.40E+00    0.0     0.00000164       -55.9394548421 -1.59E-11
     7 TBLite/Diag 0.40E+00    0.0     0.00000094       -55.9394548422 -4.11E-12
     8 TBLite/Diag 0.40E+00    0.0     0.00000025       -55.9394548422 -3.69E-13
     9 TBLite/Diag 0.40E+00    0.0     0.00000014       -55.9394548422 -1.35E-13
    10 TBLite/Diag 0.40E+00    0.0     0.00000005       -55.9394548422  4.26E-14
    11 TBLite/Diag 0.40E+00    0.0     0.00000002       -55.9394548422 -2.13E-14
    12 TBLite/Diag 0.40E+00    0.0     0.00000001       -55.9394548422 -4.26E-14
    13 TBLite/Diag 0.40E+00    0.0     6.2405E-09       -55.9394548422  1.42E-14
    14 TBLite/Diag 0.40E+00    0.0     6.3024E-09       -55.9394548422  2.84E-14
    15 TBLite/Diag 0.40E+00    0.0     1.3419E-09       -55.9394548422 -4.26E-14
    16 TBLite/Diag 0.40E+00    0.0     8.3541E-11       -55.9394548422 -1.42E-14

  *** SCF run converged in    16 steps ***


  Core Hamiltonian energy:                                    -56.50425622992737
  Repulsive potential energy:                                   0.46679625600075
  Electrostatic energy:                                         0.15847540398753
  Self-consistent dispersion energy:                           -0.07939616163082
  Non-self consistent dispersion energy:                        0.01892588941712
  Correction for halogen bonding:                               0.00000000000000
  Electronic entropic energy:                                  -0.00000000000000
  Fermi energy:                                                -0.27477082255842

  Total energy:                                               -55.93945484215279
  Total energy (extrapolated to T->0):                        -55.93945484215279

 ENERGY| Total FORCE_EVAL ( QS ) energy [hartree]            -55.939454842152792

 OPT| **************************************************************************
 OPT| Step number                                                             69
 OPT| Optimization method                                                   BFGS
 OPT| Total energy [hartree]                                      -55.9394548422
 OPT| Internal pressure [bar]                                      23.1111650014
 OPT| Effective energy change [hartree]                            -0.0000026732
 OPT| Predicted energy change [hartree]                            -0.0000025765
 OPT| Scaling factor                                                0.0000000000
 OPT| Step size                                                     0.0024317279
 OPT| Trust radius                                                  0.4724315332
 OPT| Decrease in energy                                                     YES
 OPT| Used time [s]                                                        1.997
 OPT|
 OPT| Maximum step size                                             0.0024317279
 OPT| Convergence limit for maximum step size                       0.0030000000
 OPT| Maximum step size is converged                                         YES
 OPT|
 OPT| RMS step size                                                 0.0009676989
 OPT| Convergence limit for RMS step size                           0.0015000000
 OPT| RMS step size is converged                                             YES
 OPT|
 OPT| Maximum gradient                                              0.0002142012
 OPT| Convergence limit for maximum gradient                        0.0004500000
 OPT| Maximum gradient is converged                                          YES
 OPT|
 OPT| RMS gradient                                                  0.0000925568
 OPT| Convergence limit for RMS gradient                            0.0003000000
 OPT| RMS gradient is converged                                              YES
 OPT|
 OPT| Pressure deviation [bar]                                     23.1111650014
 OPT| Pressure tolerance [bar]                                    100.0000000000
 OPT| Pressure is converged                                                  YES
 OPT| **************************************************************************
 OPT| Estimated peak process memory after this step [MiB]                    165

 *******************************************************************************
 ***                    GEOMETRY OPTIMIZATION COMPLETED                      ***
 *******************************************************************************

 write_final_structure: Optimization converged, writing XYZ file gladly:
  succinic_acid_GFN2_gamma_cell_opt-FINAL-1_69.xyz

 write_final_structure: Optimization converged, writing CIF file gladly:
  succinic_acid_GFN2_gamma_cell_opt-FINAL-1_69.cif

 write_final_structure: Done!

                    Reevaluating energy at the minimum

 CELL| Volume [angstrom^3]:                                           208.706884
 CELL| Vector a [angstrom]:       4.849     0.000     0.000   |a| =     4.849050
 CELL| Vector b [angstrom]:       0.000     8.955     0.000   |b| =     8.955361
 CELL| Vector c [angstrom]:      -0.789    -0.000     4.806   |c| =     4.870558
 CELL| Angle (b,c), alpha [degree]:                                    90.000007
 CELL| Angle (a,c), beta  [degree]:                                    99.328464
 CELL| Angle (a,b), gamma [degree]:                                    89.999999
 CELL| Numerically orthorhombic:                                              NO
 CELL| Periodicity                                                           XYZ

 Extrapolation method: ASPC

 Number of electrons:                                                         92
 Number of occupied orbitals:                                                 46
 Number of molecular orbitals:                                                76

 Number of orbital functions:                                                 76
 Number of independent orbital functions:                                     76


 SCF WAVEFUNCTION OPTIMIZATION

  Step     Update method      Time    Convergence         Total energy    Change
  ------------------------------------------------------------------------------
     1 TBLite/Diag 0.40E+00    0.0     4.5293E-11       -55.9394548422 -5.59E+01

  *** SCF run converged in     1 steps ***


  Core Hamiltonian energy:                                    -56.50425622992276
  Repulsive potential energy:                                   0.46679625600075
  Electrostatic energy:                                         0.15847540398247
  Self-consistent dispersion energy:                           -0.07939616163038
  Non-self consistent dispersion energy:                        0.01892588941712
  Correction for halogen bonding:                               0.00000000000000
  Electronic entropic energy:                                  -0.00000000000000
  Fermi energy:                                                -0.27477082256680

  Total energy:                                               -55.93945484215281
  Total energy (extrapolated to T->0):                        -55.93945484215281

 ENERGY| Total FORCE_EVAL ( QS ) energy [hartree]            -55.939454842152806

 -------------------------------------------------------------------------------
 -                                                                             -
 -                                DBCSR STATISTICS                             -
 -                                                                             -
 -------------------------------------------------------------------------------
 COUNTER                                    TOTAL       BLAS       SMM       ACC
 flops     1 x    12 x     1              1175040       0.0%    100.0%      0.0%     
 flops     1 x    12 x     4              6266880       0.0%    100.0%      0.0%     
 flops     4 x    12 x     1              6266880       0.0%    100.0%      0.0%     
 flops     1 x    32 x     1              6266880       0.0%    100.0%      0.0%     
 flops     1 x     1 x    76             14405040       0.0%    100.0%      0.0%     
 flops     4 x    12 x     4             33423360       0.0%    100.0%      0.0%     
 flops     1 x    32 x     4             33423360       0.0%    100.0%      0.0%     
 flops     4 x    32 x     1             33423360       0.0%    100.0%      0.0%     
 flops     1 x     4 x    76             70917120       0.0%    100.0%      0.0%     
 flops     4 x     1 x    76             70917120       0.0%    100.0%      0.0%     
 flops     4 x    32 x     4            178257920       0.0%    100.0%      0.0%     
 flops     4 x     4 x    76            401863680       0.0%    100.0%      0.0%     
 flops inhomo. stacks                           0       0.0%      0.0%      0.0%
 flops total                       856.606640E+06       0.0%    100.0%      0.0%
 flops max/rank                    856.606640E+06       0.0%    100.0%      0.0%
 matmuls inhomo. stacks                         0       0.0%      0.0%      0.0%
 matmuls total                            1292970       0.0%    100.0%      0.0%
 number of processed stacks                  7580       0.0%    100.0%      0.0%
 average stack size                                     0.0     170.6       0.0
 marketing flops                   944.144960E+06
 -------------------------------------------------------------------------------
 # multiplications                           1555
 max memory usage/rank              13.672284E+09
 # max total images/rank                        1
 # max 3D layers                                1
 # MPI messages exchanged                       0
 -------------------------------------------------------------------------------
 -                                                                             -
 -                      DBCSR MESSAGE PASSING PERFORMANCE                      -
 -                                                                             -
 -------------------------------------------------------------------------------
 ROUTINE             CALLS      AVE VOLUME [Bytes]
 MP_Bcast               13                     12.
 MP_Allreduce         7138                      8.
 MP_Alltoall         52380                  32299.
 MP_ISend             6220                   3211.
 MP_IRecv             6220                   3211.
 -------------------------------------------------------------------------------

 -------------------------------------------------------------------------------
 -                                                                             -
 -                          OFFLOAD MEMPOOL STATISTICS                         -
 -                                                                             -
 -------------------------------------------------------------------------------
 Memory consumption                Number of allocations  Used [MiB]  Size [MiB]
 Device                                                1           0           0
 Host                                                  1           0           0
 -------------------------------------------------------------------------------

 MEMORY| Estimated peak process memory [MiB]                                 166

 -------------------------------------------------------------------------------
 -                                                                             -
 -                         MESSAGE PASSING PERFORMANCE                         -
 -                                                                             -
 -------------------------------------------------------------------------------

 ROUTINE             CALLS      AVE VOLUME [Bytes]
 MP_Group               70
 MP_Bcast             2428                    309.
 MP_Allreduce        37106                    211.
 MP_Sync              1284
 MP_comm_split        1214
 -------------------------------------------------------------------------------


 -------------------------------------------------------------------------------
 -                                                                             -
 -                           R E F E R E N C E S                               -
 -                                                                             -
 -------------------------------------------------------------------------------
 
 CP2K version 2026.1 (Development Version), the CP2K developers group (2026).
 CP2K is freely available from https://www.cp2k.org/ .
 
 M. Iannuzzi, J. Wilhelm, F. Stein, A. Bussy, H. Elgabarty, D. Golze, A. Hehn, 
 M. Graml, S. Marek, B. Sertcan Gökmen, C. Schran, H. Forbert, R. Z. 
 Khaliullin, A. Kozhevnikov, M. Taillefumier, R. Meli, V. V. Rybkin, M. Brehm, 
 R. Schade, O. Schütt, J. V. Pototschnig, H. Mirhosseini, A. Knüpfer, D. Marx, 
 M. Krack, J. Hutter, T. D. Kühne.
 J. Phys. Chem. B 130, 1237-1310 (2026).
 The CP2K Program Package Made Simple.
 https://doi.org/10.1021/acs.jpcb.5c05851

 A. Katbashev, M. Stahn, T. Rose, V. Alizadeh, M. Friede, C. Plett, P. 
 Steinbach, S. Ehlert.
 J. Phys. Chem. A 129, 2667-2682 (2025).
 Overview on Building Blocks and Applications of Efficient and Robust Extended 
 Tight Binding.
 https://doi.org/10.1021/acs.jpca.4c08263

 T. D. Kühne, M. Iannuzzi, M. Del Ben, V. V. Rybkin, P. Seewald, F. Stein, T. 
 Laino, R. Z. Khaliullin, O. Schütt, F. Schiffmann, D. Golze, J. Wilhelm, S. 
 Chulkov, M. H. Bani-Hashemian, V. Weber, U. Borstnik, M. Taillefumier, A. S. 
 Jakobovits, A. Lazzaro, H. Pabst, T. Müller, R. Schade, M. Guidon, S. 
 Andermatt, N. Holmberg, G. K. Schenter, A. Hehn, A. Bussy, F. Belleflamme, G. 
 Tabacchi, A. Glöß, M. Lass, I. Bethune, C. J. Mundy, C. Plessl, M. Watkins, 
 J. VandeVondele, M. Krack, J. Hutter.
 J. Chem. Phys. 152, 194103 (2020).
 CP2K: An electronic structure and molecular dynamics software package - 
 Quickstep: Efficient and accurate electronic structure calculations.
 https://doi.org/10.1063/5.0007045

 P. Pracht, E. Caldeweyher, S. Ehlert, S. Grimme.
 ChemRxiv, (2019).
 A Robust Non-Self-Consistent Tight-Binding Quantum Chemistry Method for large 
 Molecules.
 https://doi.org/10.26434/chemrxiv.8326202.v1

 S. Grimme, C. Bannwarth, P. Shushkov.
 J. Chem. Theory Comput. 13, 1989 (2017).
 A Robust and Accurate Tight-Binding Quantum Chemical Method for Structures, 
 Vibrational Frequencies, and Noncovalent Interactions of Large Molecular 
 Systems Parametrized for All spd-Block Elements (Z = 1-86).
 https://doi.org/10.1021/acs.jctc.7b00118

 O. Schuett, P. Messmer, J. Hutter, J. VandeVondele.
 Electronic Structure Calculations on Graphics Processing Units, 173-190 (2016).
 GPU-Accelerated Sparse Matrix-Matrix Multiplication for Linear Scaling Density 
 Functional Theory.
 https://doi.org/10.1002/9781118670712.ch8

 A. Heinecke, G. Henry, M. Hutchinson, H. Pabst.
 Proceedings of Intl. Supercomputing Conference, 981-991 (2016).
 LIBXSMM: Accelerating Small Matrix Multiplications by Runtime Code Generation.
 https://doi.org/10.1109/SC.2016.83

 U. Borstnik, J. VandeVondele, V. Weber, J. Hutter.
 Parallel Comput. 40, 47-58 (2014).
 Sparse matrix multiplication: The distributed block-compressed sparse row 
 library.
 https://doi.org/10.1016/j.parco.2014.03.012

 T. D. Kühne, M. Krack, F. R. Mohamed, M. Parrinello.
 Phys. Rev. Lett. 98, 066401 (2007).
 Efficient and accurate Car-Parrinello-like approach to Born-Oppenheimer 
 molecular dynamics.
 https://doi.org/10.1103/PhysRevLett.98.066401

 M. Frigo, S. G. Johnson.
 Proc. IEEE 93, 216-231 (2005).
 The design and implementation of FFTW3.
 https://doi.org/10.1109/JPROC.2004.840301

 J. Kolafa.
 J. Comput. Chem. 25, 335-342 (2004).
 Time-reversible always stable predictor-corrector method for molecular dynamics 
 of polarizable molecules.
 https://doi.org/10.1002/jcc.10385

 N. D. Mermin.
 Phys. Rev. 137, A1441-A1443 (1965).
 Thermal Properties of the Inhomogeneous Electron Gas.
 https://doi.org/10.1103/PhysRev.137.A1441


 -------------------------------------------------------------------------------
 -                                                                             -
 -                                T I M I N G                                  -
 -                                                                             -
 -------------------------------------------------------------------------------
 SUBROUTINE                       CALLS  ASD         SELF TIME        TOTAL TIME
                                MAXIMUM       AVERAGE  MAXIMUM  AVERAGE  MAXIMUM
 CP2K                                 1  1.0    0.003    0.003  115.304  115.304
 cp_cell_opt                          1  2.0    0.000    0.000  115.297  115.297
 geoopt_bfgs                          1  3.0    0.009    0.009  115.297  115.297
 cp_eval_at                          71  4.0    0.009    0.009  115.165  115.165
 qs_forces                           70  5.0    0.004    0.004  114.650  114.650
 build_tblite_matrices              141  7.0  100.323  100.323  102.248  102.248
 qs_energies                         71  6.0    0.002    0.002   33.483   33.483
 qs_energies_init_hamiltonians       71  7.0    0.000    0.000   27.939   27.939
 rebuild_ks_matrix                 1145  9.8    0.001    0.001    8.562    8.562
 build_tblite_ks_matrix            1145 10.8    8.534    8.534    8.561    8.561
 qs_ks_update_qs_env_forces          70  6.0    0.000    0.000    7.252    7.252
 scf_env_do_scf                      71  7.0    0.001    0.001    4.989    4.989
 scf_env_do_scf_inner_loop         1075  8.0    0.695    0.695    4.984    4.984
 qs_scf_new_mos                    1075  9.0    0.006    0.006    2.771    2.771
 -------------------------------------------------------------------------------

 The number of warnings for this run is : 0
 
 -------------------------------------------------------------------------------
  **** **** ******  **  PROGRAM ENDED AT                 2026-05-23 22:49:52.168
 ***** ** ***  *** **   PROGRAM RAN ON                                spark-c86c
 **    ****   ******    PROGRAM RAN BY                                  kuehne88
 ***** **    ** ** **   PROGRAM PROCESS ID                               2270799
  **** **  *******  **  PROGRAM STOPPED IN /home/kuehne88/periodic-gfn2-benchmar
                                           ks/X23b/runs/cellopt_gamma/GFN2/succi
                                           nic_acid_GFN2_gamma_cellopt
