 DBCSR| CPU Multiplication driver                                           XSMM (U)
 DBCSR| Multrec recursion limit                                              512 (U)
 DBCSR| Multiplication stack size                                           1000 (D)
 DBCSR| Maximum elements for images                                    UNLIMITED (U)
 DBCSR| Multiplicative factor virtual images                                   1 (U)
 DBCSR| Use multiplication densification                                       T (D)
 DBCSR| Multiplication size stacks                                             3 (U)
 DBCSR| Use memory pool for CPU allocation                                     F (U)
 DBCSR| Number of 3D layers                                               SINGLE (U)
 DBCSR| Use MPI memory allocation                                              F (U)
 DBCSR| Use RMA algorithm                                                      F (U)
 DBCSR| Use Communication thread                                               T (U)
 DBCSR| Communication thread load                                             87 (D)
 DBCSR| MPI: My process id                                                     0
 DBCSR| MPI: Number of processes                                               1
 DBCSR| OMP: Current number of threads                                         1
 DBCSR| OMP: Max number of threads                                             1
 DBCSR| Split modifier for TAS multiplication algorithm                  1.0E+00 (U)


  **** **** ******  **  PROGRAM STARTED AT               2026-05-23 22:46:18.307
 ***** ** ***  *** **   PROGRAM STARTED ON                            spark-c86c
 **    ****   ******    PROGRAM STARTED BY                              kuehne88
 ***** **    ** ** **   PROGRAM PROCESS ID                               2222426
  **** **  *******  **  PROGRAM STARTED IN /home/kuehne88/periodic-gfn2-benchmar
                                           ks/X23b/runs/molecule_geoopt/GFN1/for
                                           mamide_GFN1_mol_geoopt

 CP2K| version string:                 CP2K version 2026.1 (Development Version)
 CP2K| source code revision number:                                   0622d442e4
 CP2K| cp2kflags: omp fftw3 libxc parallel scalapack mpi_f08 xsmm spglib libdftd
 CP2K|            4 dftd4_v3 mctc-lib tblite
 CP2K| is freely available from                            https://www.cp2k.org/
 CP2K| Program compiled at                                   2026-05-23 22:05:08
 CP2K| Program compiled on                                            spark-c86c
 CP2K| Program compiled for                                              aarch64
 CP2K| Data directory path    /home/kuehne88/cp2k-master-tblite-20260523/install
 CP2K| Input file name                             formamide_GFN1_mol_geoopt.inp

 GLOBAL| Force Environment number                                              1
 GLOBAL| Basis set file name                                           BASIS_SET
 GLOBAL| Potential file name                                           POTENTIAL
 GLOBAL| MM Potential file name                                     MM_POTENTIAL
 GLOBAL| Coordinate file name                                      __STD_INPUT__
 GLOBAL| Method name                                                        CP2K
 GLOBAL| Project name                                  formamide_GFN1_mol_geoopt
 GLOBAL| Run type                                                        GEO_OPT
 GLOBAL| FFT library                                                       FFTW3
 GLOBAL| Diagonalization library                                       ScaLAPACK
 GLOBAL| Cholesky decomposition library                                ScaLAPACK
 GLOBAL| DGEMM library                                                      BLAS
 GLOBAL| Direct generalized diagonalization requested                          F
 GLOBAL| Orthonormality check for eigenvectors                          DISABLED
 GLOBAL| Matrix multiplication library                                 ScaLAPACK
 GLOBAL| All-to-all communication in single precision                          F
 GLOBAL| FFTs using library dependent lengths                                  F
 GLOBAL| Grid backend                                                       AUTO
 GLOBAL| Global print level                                                  LOW
 GLOBAL| MPI I/O enabled                                                       T
 GLOBAL| Total number of message passing processes                             1
 GLOBAL| Number of distributed systems (nodes)                                 1
 GLOBAL| Number of threads for this process                                    1
 GLOBAL| This output is from process                                           0
 GLOBAL| OpenMP stack size per thread (OMP_STACKSIZE)                    default
 GLOBAL| CPU model name                                                  UNKNOWN
 GLOBAL| CPUID                                                              2200
 GLOBAL| Compiled for CPUID                                                 2000

 *** HINT in environment.F:970 :: The compiler target flags (arm_arch64)   ***
 *** used to build this binary cannot exploit all extensions of this CPU   ***
 *** model (arm_sve256). Consider compiler target flags as part of FCFLAGS ***
 *** and CFLAGS (ARCH file).                                               ***


 MEMORY| system memory details [Kb]
 MEMORY|                        rank 0           min           max       average
 MEMORY| MemTotal            125508532     125508532     125508532     125508532
 MEMORY| MemFree             105646480     105646480     105646480     105646480
 MEMORY| Buffers                865972        865972        865972        865972
 MEMORY| Cached               13214812      13214812      13214812      13214812
 MEMORY| Slab                  1565168       1565168       1565168       1565168
 MEMORY| SReclaimable           888300        888300        888300        888300
 MEMORY| MemLikelyFree       120615564     120615564     120615564     120615564


 GENERATE|  Preliminary Number of Bonds generated:                             0
 GENERATE|  Achieved consistency in connectivity generation.


                  #####   #####        #     #   #     #       #          
                 #     # #     #      #    ##### #     #   # #####  ####  
                 #     # #           #       #   ###   #       #   #    # 
                 #     #  #####     #        #   #  #  #   #   #   ###### 
                 #   # #       #   #         #   #   # #   #   #   #      
                 #    #  #     #  #          #   #  #  # # #   #    #   # 
                  #### #  #####  #           #   ###   ##  #   #     ###  

                                   GFN1-xTB  
                                 Version 0.0                       
                            Johann V. Pototschnig                  



 TOTAL NUMBERS AND MAXIMUM NUMBERS

  Total number of            - Atomic kinds:                                   4
                             - Atoms:                                          6
                             - Shell sets:                                    12
                             - Shells:                                        12
                             - Primitive Cartesian functions:                 69
                             - Cartesian basis functions:                     18
                             - Spherical basis functions:                     18

  Maximum angular momentum of the orbital basis functions:                     1


 SCF PARAMETERS         Density guess:                                     MOPAC
                        --------------------------------------------------------
                        max_scf:                                             300
                        max_scf_history:                                       0
                        max_diis:                                              4
                        --------------------------------------------------------
                        eps_scf:                                        1.00E-09
                        eps_scf_history:                                0.00E+00
                        eps_diis:                                       1.00E-01
                        eps_eigval:                                     1.00E-05
                        --------------------------------------------------------
                        level_shift [a.u.]:                             0.000000
                        added MOs                                         9    0
                        --------------------------------------------------------
                        Mixing method:                           DIRECT_P_MIXING
                        --------------------------------------------------------
                        Smear method:                                FERMI_DIRAC
                        Electronic temperature [K]:                        300.0
                        Electronic temperature [a.u.]:                  9.50E-04
                        Accuracy threshold:                             1.00E-06
                        --------------------------------------------------------
                        No outer SCF

 BFGS| Use rational function optimization for step estimation:                NO
 BFGS| Use model Hessian for initial guess:                                  YES
 BFGS| Restart Hessian:                                                       NO
 BFGS| Trust radius:                                                       0.472

 *******************************************************************************
 ***                     STARTING GEOMETRY OPTIMIZATION                      ***
 ***                                   BFGS                                  ***
 *******************************************************************************

 Extrapolation method: initial_guess

 Number of electrons:                                                         18
 Number of occupied orbitals:                                                  9
 Number of molecular orbitals:                                                18

 Number of orbital functions:                                                 18
 Number of independent orbital functions:                                     18


 SCF WAVEFUNCTION OPTIMIZATION

  Step     Update method      Time    Convergence         Total energy    Change
  ------------------------------------------------------------------------------
     1 TBLite/Diag 0.40E+00    0.0     1.56168240       -11.4006730021 -1.14E+01
     2 TBLite/Diag 0.40E+00    0.0     0.29971199       -11.6277137008 -2.27E-01
     3 TBLite/Diag 0.40E+00    0.0     0.03842265       -11.6308272604 -3.11E-03
     4 TBLite/Diag 0.40E+00    0.0     0.02373556       -11.6310183507 -1.91E-04
     5 TBLite/Diag 0.40E+00    0.0     0.00619407       -11.6311158103 -9.75E-05
     6 TBLite/Diag 0.40E+00    0.0     0.00273669       -11.6311256116 -9.80E-06
     7 TBLite/Diag 0.40E+00    0.0     0.00155338       -11.6311253857  2.26E-07
     8 TBLite/Diag 0.40E+00    0.0     0.00089096       -11.6311264774 -1.09E-06
     9 TBLite/Diag 0.40E+00    0.0     0.00003835       -11.6311264775 -2.99E-11
    10 TBLite/Diag 0.40E+00    0.0     0.00001711       -11.6311264780 -5.56E-10
    11 TBLite/Diag 0.40E+00    0.0     0.00000231       -11.6311264780 -9.33E-12
    12 TBLite/Diag 0.40E+00    0.0     0.00000020       -11.6311264780 -6.04E-14
    13 TBLite/Diag 0.40E+00    0.0     4.2873E-10       -11.6311264780  5.33E-15

  *** SCF run converged in    13 steps ***


  Core Hamiltonian energy:                                    -11.80839497202037
  Repulsive potential energy:                                   0.10880432798995
  Electrostatic energy:                                         0.06947592329871
  Self-consistent dispersion energy:                            0.00000000000000
  Non-self consistent dispersion energy:                       -0.00101175730865
  Correction for halogen bonding:                               0.00000000000000
  Electronic entropic energy:                                  -0.00000000000000
  Fermi energy:                                                -0.28516956808189

  Total energy:                                               -11.63112647804036
  Total energy (extrapolated to T->0):                        -11.63112647804036

 ENERGY| Total FORCE_EVAL ( QS ) energy [hartree]            -11.631126478040361

 OPT| **************************************************************************
 OPT| Step number                                                              0
 OPT| Optimization method                                                   BFGS
 OPT| Total energy [hartree]                                      -11.6311264780
 OPT| Used time [s]                                                        0.009
 OPT| **************************************************************************
 OPT| Estimated peak process memory [MiB]                                    166

 --------------------------
 OPTIMIZATION STEP:      1
 --------------------------

 Extrapolation method: ASPC

 Number of electrons:                                                         18
 Number of occupied orbitals:                                                  9
 Number of molecular orbitals:                                                18

 Number of orbital functions:                                                 18
 Number of independent orbital functions:                                     18


 SCF WAVEFUNCTION OPTIMIZATION

  Step     Update method      Time    Convergence         Total energy    Change
  ------------------------------------------------------------------------------
     1 TBLite/Diag 0.40E+00    0.0     0.03366981       -11.6316558622 -1.16E+01
     2 TBLite/Diag 0.40E+00    0.0     0.00195549       -11.6316640374 -8.18E-06
     3 TBLite/Diag 0.40E+00    0.0     0.00047862       -11.6316643381 -3.01E-07
     4 TBLite/Diag 0.40E+00    0.0     0.00017703       -11.6316643564 -1.83E-08
     5 TBLite/Diag 0.40E+00    0.0     0.00008116       -11.6316643672 -1.07E-08
     6 TBLite/Diag 0.40E+00    0.0     0.00002556       -11.6316643678 -6.16E-10
     7 TBLite/Diag 0.40E+00    0.0     0.00000169       -11.6316643678 -2.80E-12
     8 TBLite/Diag 0.40E+00    0.0     0.00000004       -11.6316643678 -3.55E-15
     9 TBLite/Diag 0.40E+00    0.0     8.6034E-09       -11.6316643678 -8.88E-15
    10 TBLite/Diag 0.40E+00    0.0     6.7327E-11       -11.6316643678 -3.55E-15

  *** SCF run converged in    10 steps ***


  Core Hamiltonian energy:                                    -11.81429172493796
  Repulsive potential energy:                                   0.11460851509141
  Electrostatic energy:                                         0.06903167236444
  Self-consistent dispersion energy:                            0.00000000000000
  Non-self consistent dispersion energy:                       -0.00101283031261
  Correction for halogen bonding:                               0.00000000000000
  Electronic entropic energy:                                  -0.00000000000000
  Fermi energy:                                                -0.28069139348383

  Total energy:                                               -11.63166436779473
  Total energy (extrapolated to T->0):                        -11.63166436779473

 ENERGY| Total FORCE_EVAL ( QS ) energy [hartree]            -11.631664367794729

 OPT| **************************************************************************
 OPT| Step number                                                              1
 OPT| Optimization method                                                   BFGS
 OPT| Total energy [hartree]                                      -11.6316643678
 OPT| Effective energy change [hartree]                            -0.0005378898
 OPT| Predicted energy change [hartree]                            -0.0005089284
 OPT| Scaling factor                                                0.0000000000
 OPT| Step size                                                     0.0512283473
 OPT| Trust radius                                                  0.4724315332
 OPT| Decrease in energy                                                     YES
 OPT| Used time [s]                                                        0.007
 OPT|
 OPT| Maximum step size                                             0.0512283473
 OPT| Convergence limit for maximum step size                       0.0030000000
 OPT| Maximum step size is converged                                          NO
 OPT|
 OPT| RMS step size                                                 0.0158051640
 OPT| Convergence limit for RMS step size                           0.0015000000
 OPT| RMS step size is converged                                              NO
 OPT|
 OPT| Maximum gradient                                              0.0056643151
 OPT| Convergence limit for maximum gradient                        0.0004500000
 OPT| Maximum gradient is converged                                           NO
 OPT|
 OPT| RMS gradient                                                  0.0022008747
 OPT| Convergence limit for RMS gradient                            0.0003000000
 OPT| RMS gradient is converged                                               NO
 OPT| **************************************************************************
 OPT| Estimated peak process memory after this step [MiB]                    166

 --------------------------
 OPTIMIZATION STEP:      2
 --------------------------

 Extrapolation method: ASPC

 Number of electrons:                                                         18
 Number of occupied orbitals:                                                  9
 Number of molecular orbitals:                                                18

 Number of orbital functions:                                                 18
 Number of independent orbital functions:                                     18


 SCF WAVEFUNCTION OPTIMIZATION

  Step     Update method      Time    Convergence         Total energy    Change
  ------------------------------------------------------------------------------
     1 TBLite/Diag 0.40E+00    0.0     0.00680952       -11.6317371149 -1.16E+01
     2 TBLite/Diag 0.40E+00    0.0     0.00103693       -11.6317385026 -1.39E-06
     3 TBLite/Diag 0.40E+00    0.0     0.00019930       -11.6317385826 -8.00E-08
     4 TBLite/Diag 0.40E+00    0.0     0.00016460       -11.6317385933 -1.07E-08
     5 TBLite/Diag 0.40E+00    0.0     0.00003963       -11.6317385952 -1.85E-09
     6 TBLite/Diag 0.40E+00    0.0     0.00001651       -11.6317385954 -2.59E-10
     7 TBLite/Diag 0.40E+00    0.0     0.00000367       -11.6317385954 -8.54E-12
     8 TBLite/Diag 0.40E+00    0.0     5.1242E-09       -11.6317385954 -1.78E-15
     9 TBLite/Diag 0.40E+00    0.0     1.4682E-09       -11.6317385954  7.11E-15
    10 TBLite/Diag 0.40E+00    0.0     1.8685E-10       -11.6317385954 -8.88E-15

  *** SCF run converged in    10 steps ***


  Core Hamiltonian energy:                                    -11.81666184333727
  Repulsive potential energy:                                   0.11723795910579
  Electrostatic energy:                                         0.06869840171951
  Self-consistent dispersion energy:                            0.00000000000000
  Non-self consistent dispersion energy:                       -0.00101311292285
  Correction for halogen bonding:                               0.00000000000000
  Electronic entropic energy:                                  -0.00000000000000
  Fermi energy:                                                -0.27860991086279

  Total energy:                                               -11.63173859543481
  Total energy (extrapolated to T->0):                        -11.63173859543481

 ENERGY| Total FORCE_EVAL ( QS ) energy [hartree]            -11.631738595434811

 OPT| **************************************************************************
 OPT| Step number                                                              2
 OPT| Optimization method                                                   BFGS
 OPT| Total energy [hartree]                                      -11.6317385954
 OPT| Effective energy change [hartree]                            -0.0000742276
 OPT| Predicted energy change [hartree]                            -0.0000986111
 OPT| Scaling factor                                                0.0000000000
 OPT| Step size                                                     0.0253894779
 OPT| Trust radius                                                  0.4724315332
 OPT| Decrease in energy                                                     YES
 OPT| Used time [s]                                                        0.008
 OPT|
 OPT| Maximum step size                                             0.0253894779
 OPT| Convergence limit for maximum step size                       0.0030000000
 OPT| Maximum step size is converged                                          NO
 OPT|
 OPT| RMS step size                                                 0.0080333249
 OPT| Convergence limit for RMS step size                           0.0015000000
 OPT| RMS step size is converged                                              NO
 OPT|
 OPT| Maximum gradient                                              0.0019880214
 OPT| Convergence limit for maximum gradient                        0.0004500000
 OPT| Maximum gradient is converged                                           NO
 OPT|
 OPT| RMS gradient                                                  0.0010047958
 OPT| Convergence limit for RMS gradient                            0.0003000000
 OPT| RMS gradient is converged                                               NO
 OPT| **************************************************************************
 OPT| Estimated peak process memory after this step [MiB]                    166

 --------------------------
 OPTIMIZATION STEP:      3
 --------------------------

 Extrapolation method: ASPC

 Number of electrons:                                                         18
 Number of occupied orbitals:                                                  9
 Number of molecular orbitals:                                                18

 Number of orbital functions:                                                 18
 Number of independent orbital functions:                                     18


 SCF WAVEFUNCTION OPTIMIZATION

  Step     Update method      Time    Convergence         Total energy    Change
  ------------------------------------------------------------------------------
     1 TBLite/Diag 0.40E+00    0.0     0.00382149       -11.6317521797 -1.16E+01
     2 TBLite/Diag 0.40E+00    0.0     0.00061563       -11.6317528355 -6.56E-07
     3 TBLite/Diag 0.40E+00    0.0     0.00006312       -11.6317528436 -8.15E-09
     4 TBLite/Diag 0.40E+00    0.0     0.00003393       -11.6317528441 -4.64E-10
     5 TBLite/Diag 0.40E+00    0.0     0.00000977       -11.6317528442 -9.93E-11
     6 TBLite/Diag 0.40E+00    0.0     0.00000486       -11.6317528442 -2.45E-11
     7 TBLite/Diag 0.40E+00    0.0     0.00000064       -11.6317528442 -3.38E-13
     8 TBLite/Diag 0.40E+00    0.0     8.3470E-09       -11.6317528442 -5.33E-15
     9 TBLite/Diag 0.40E+00    0.0     2.6448E-09       -11.6317528442 -1.78E-15
    10 TBLite/Diag 0.40E+00    0.0     6.1614E-11       -11.6317528442  0.00E+00

  *** SCF run converged in    10 steps ***


  Core Hamiltonian energy:                                    -11.81614621265174
  Repulsive potential energy:                                   0.11657917292930
  Electrostatic energy:                                         0.06882727940178
  Self-consistent dispersion energy:                            0.00000000000000
  Non-self consistent dispersion energy:                       -0.00101308390242
  Correction for halogen bonding:                               0.00000000000000
  Electronic entropic energy:                                  -0.00000000000000
  Fermi energy:                                                -0.27904528109313

  Total energy:                                               -11.63175284422308
  Total energy (extrapolated to T->0):                        -11.63175284422308

 ENERGY| Total FORCE_EVAL ( QS ) energy [hartree]            -11.631752844223081

 OPT| **************************************************************************
 OPT| Step number                                                              3
 OPT| Optimization method                                                   BFGS
 OPT| Total energy [hartree]                                      -11.6317528442
 OPT| Effective energy change [hartree]                            -0.0000142488
 OPT| Predicted energy change [hartree]                            -0.0000113722
 OPT| Scaling factor                                                0.0000000000
 OPT| Step size                                                     0.0064622232
 OPT| Trust radius                                                  0.4724315332
 OPT| Decrease in energy                                                     YES
 OPT| Used time [s]                                                        0.008
 OPT|
 OPT| Maximum step size                                             0.0064622232
 OPT| Convergence limit for maximum step size                       0.0030000000
 OPT| Maximum step size is converged                                          NO
 OPT|
 OPT| RMS step size                                                 0.0023775710
 OPT| Convergence limit for RMS step size                           0.0015000000
 OPT| RMS step size is converged                                              NO
 OPT|
 OPT| Maximum gradient                                              0.0006094950
 OPT| Convergence limit for maximum gradient                        0.0004500000
 OPT| Maximum gradient is converged                                           NO
 OPT|
 OPT| RMS gradient                                                  0.0003039066
 OPT| Convergence limit for RMS gradient                            0.0003000000
 OPT| RMS gradient is converged                                               NO
 OPT| **************************************************************************
 OPT| Estimated peak process memory after this step [MiB]                    166

 --------------------------
 OPTIMIZATION STEP:      4
 --------------------------

 Extrapolation method: ASPC

 Number of electrons:                                                         18
 Number of occupied orbitals:                                                  9
 Number of molecular orbitals:                                                18

 Number of orbital functions:                                                 18
 Number of independent orbital functions:                                     18


 SCF WAVEFUNCTION OPTIMIZATION

  Step     Update method      Time    Convergence         Total energy    Change
  ------------------------------------------------------------------------------
     1 TBLite/Diag 0.40E+00    0.0     0.00314427       -11.6317567556 -1.16E+01
     2 TBLite/Diag 0.40E+00    0.0     0.00038749       -11.6317569949 -2.39E-07
     3 TBLite/Diag 0.40E+00    0.0     0.00005130       -11.6317569986 -3.71E-09
     4 TBLite/Diag 0.40E+00    0.0     0.00001165       -11.6317569986 -1.53E-11
     5 TBLite/Diag 0.40E+00    0.0     0.00000741       -11.6317569987 -8.83E-11
     6 TBLite/Diag 0.40E+00    0.0     0.00000290       -11.6317569987 -5.47E-12
     7 TBLite/Diag 0.40E+00    0.0     0.00000010       -11.6317569987 -3.55E-15
     8 TBLite/Diag 0.40E+00    0.0     1.0607E-09       -11.6317569987  5.33E-15
     9 TBLite/Diag 0.40E+00    0.0     1.2002E-10       -11.6317569987  1.42E-14

  *** SCF run converged in     9 steps ***


  Core Hamiltonian energy:                                    -11.81590551085891
  Repulsive potential energy:                                   0.11626905267078
  Electrostatic energy:                                         0.06889253099415
  Self-consistent dispersion energy:                            0.00000000000000
  Non-self consistent dispersion energy:                       -0.00101307151789
  Correction for halogen bonding:                               0.00000000000000
  Electronic entropic energy:                                  -0.00000000000000
  Fermi energy:                                                -0.27925113484666

  Total energy:                                               -11.63175699871186
  Total energy (extrapolated to T->0):                        -11.63175699871186

 ENERGY| Total FORCE_EVAL ( QS ) energy [hartree]            -11.631756998711863

 OPT| **************************************************************************
 OPT| Step number                                                              4
 OPT| Optimization method                                                   BFGS
 OPT| Total energy [hartree]                                      -11.6317569987
 OPT| Effective energy change [hartree]                            -0.0000041545
 OPT| Predicted energy change [hartree]                            -0.0000033266
 OPT| Scaling factor                                                0.0000000000
 OPT| Step size                                                     0.0048331314
 OPT| Trust radius                                                  0.4724315332
 OPT| Decrease in energy                                                     YES
 OPT| Used time [s]                                                        0.007
 OPT|
 OPT| Maximum step size                                             0.0048331314
 OPT| Convergence limit for maximum step size                       0.0030000000
 OPT| Maximum step size is converged                                          NO
 OPT|
 OPT| RMS step size                                                 0.0022504053
 OPT| Convergence limit for RMS step size                           0.0015000000
 OPT| RMS step size is converged                                              NO
 OPT|
 OPT| Maximum gradient                                              0.0001746743
 OPT| Convergence limit for maximum gradient                        0.0004500000
 OPT| Maximum gradient is converged                                          YES
 OPT|
 OPT| RMS gradient                                                  0.0001103271
 OPT| Convergence limit for RMS gradient                            0.0003000000
 OPT| RMS gradient is converged                                              YES
 OPT| **************************************************************************
 OPT| Estimated peak process memory after this step [MiB]                    166

 --------------------------
 OPTIMIZATION STEP:      5
 --------------------------

 Extrapolation method: ASPC

 Number of electrons:                                                         18
 Number of occupied orbitals:                                                  9
 Number of molecular orbitals:                                                18

 Number of orbital functions:                                                 18
 Number of independent orbital functions:                                     18


 SCF WAVEFUNCTION OPTIMIZATION

  Step     Update method      Time    Convergence         Total energy    Change
  ------------------------------------------------------------------------------
     1 TBLite/Diag 0.40E+00    0.0     0.00174105       -11.6317580201 -1.16E+01
     2 TBLite/Diag 0.40E+00    0.0     0.00018474       -11.6317580564 -3.63E-08
     3 TBLite/Diag 0.40E+00    0.0     0.00002991       -11.6317580576 -1.19E-09
     4 TBLite/Diag 0.40E+00    0.0     0.00000631       -11.6317580577 -4.97E-11
     5 TBLite/Diag 0.40E+00    0.0     0.00000232       -11.6317580577 -6.63E-12
     6 TBLite/Diag 0.40E+00    0.0     0.00000071       -11.6317580577 -1.94E-13
     7 TBLite/Diag 0.40E+00    0.0     0.00000011       -11.6317580577 -5.33E-15
     8 TBLite/Diag 0.40E+00    0.0     4.5711E-10       -11.6317580577  1.78E-15

  *** SCF run converged in     8 steps ***


  Core Hamiltonian energy:                                    -11.81592892484705
  Repulsive potential energy:                                   0.11627494455553
  Electrostatic energy:                                         0.06890899434324
  Self-consistent dispersion energy:                            0.00000000000000
  Non-self consistent dispersion energy:                       -0.00101307172379
  Correction for halogen bonding:                               0.00000000000000
  Electronic entropic energy:                                  -0.00000000000000
  Fermi energy:                                                -0.27921163700456

  Total energy:                                               -11.63175805767207
  Total energy (extrapolated to T->0):                        -11.63175805767207

 ENERGY| Total FORCE_EVAL ( QS ) energy [hartree]            -11.631758057672069

 OPT| **************************************************************************
 OPT| Step number                                                              5
 OPT| Optimization method                                                   BFGS
 OPT| Total energy [hartree]                                      -11.6317580577
 OPT| Effective energy change [hartree]                            -0.0000010590
 OPT| Predicted energy change [hartree]                            -0.0000009359
 OPT| Scaling factor                                                0.0000000000
 OPT| Step size                                                     0.0034339066
 OPT| Trust radius                                                  0.4724315332
 OPT| Decrease in energy                                                     YES
 OPT| Used time [s]                                                        0.007
 OPT|
 OPT| Maximum step size                                             0.0034339066
 OPT| Convergence limit for maximum step size                       0.0030000000
 OPT| Maximum step size is converged                                          NO
 OPT|
 OPT| RMS step size                                                 0.0015900947
 OPT| Convergence limit for RMS step size                           0.0015000000
 OPT| RMS step size is converged                                              NO
 OPT|
 OPT| Maximum gradient                                              0.0002578600
 OPT| Convergence limit for maximum gradient                        0.0004500000
 OPT| Maximum gradient is converged                                          YES
 OPT|
 OPT| RMS gradient                                                  0.0000894836
 OPT| Convergence limit for RMS gradient                            0.0003000000
 OPT| RMS gradient is converged                                              YES
 OPT| **************************************************************************
 OPT| Estimated peak process memory after this step [MiB]                    166

 --------------------------
 OPTIMIZATION STEP:      6
 --------------------------

 Extrapolation method: ASPC

 Number of electrons:                                                         18
 Number of occupied orbitals:                                                  9
 Number of molecular orbitals:                                                18

 Number of orbital functions:                                                 18
 Number of independent orbital functions:                                     18


 SCF WAVEFUNCTION OPTIMIZATION

  Step     Update method      Time    Convergence         Total energy    Change
  ------------------------------------------------------------------------------
     1 TBLite/Diag 0.40E+00    0.0     0.00051240       -11.6317581949 -1.16E+01
     2 TBLite/Diag 0.40E+00    0.0     0.00004520       -11.6317581981 -3.22E-09
     3 TBLite/Diag 0.40E+00    0.0     0.00000523       -11.6317581982 -6.30E-11
     4 TBLite/Diag 0.40E+00    0.0     0.00000363       -11.6317581982 -1.08E-11
     5 TBLite/Diag 0.40E+00    0.0     0.00000048       -11.6317581982 -1.58E-13
     6 TBLite/Diag 0.40E+00    0.0     0.00000018       -11.6317581982 -4.97E-14
     7 TBLite/Diag 0.40E+00    0.0     0.00000006       -11.6317581982  3.55E-15
     8 TBLite/Diag 0.40E+00    0.0     8.1138E-10       -11.6317581982 -1.07E-14

  *** SCF run converged in     8 steps ***


  Core Hamiltonian energy:                                    -11.81595223895840
  Repulsive potential energy:                                   0.11630468317509
  Electrostatic energy:                                         0.06890242765051
  Self-consistent dispersion energy:                            0.00000000000000
  Non-self consistent dispersion energy:                       -0.00101307006110
  Correction for halogen bonding:                               0.00000000000000
  Electronic entropic energy:                                  -0.00000000000000
  Fermi energy:                                                -0.27920403690637

  Total energy:                                               -11.63175819819391
  Total energy (extrapolated to T->0):                        -11.63175819819391

 ENERGY| Total FORCE_EVAL ( QS ) energy [hartree]            -11.631758198193909

 OPT| **************************************************************************
 OPT| Step number                                                              6
 OPT| Optimization method                                                   BFGS
 OPT| Total energy [hartree]                                      -11.6317581982
 OPT| Effective energy change [hartree]                            -0.0000001405
 OPT| Predicted energy change [hartree]                            -0.0000001233
 OPT| Scaling factor                                                0.0000000000
 OPT| Step size                                                     0.0011310462
 OPT| Trust radius                                                  0.4724315332
 OPT| Decrease in energy                                                     YES
 OPT| Used time [s]                                                        0.007
 OPT|
 OPT| Maximum step size                                             0.0011310462
 OPT| Convergence limit for maximum step size                       0.0030000000
 OPT| Maximum step size is converged                                         YES
 OPT|
 OPT| RMS step size                                                 0.0003999585
 OPT| Convergence limit for RMS step size                           0.0015000000
 OPT| RMS step size is converged                                             YES
 OPT|
 OPT| Maximum gradient                                              0.0001202665
 OPT| Convergence limit for maximum gradient                        0.0004500000
 OPT| Maximum gradient is converged                                          YES
 OPT|
 OPT| RMS gradient                                                  0.0000412024
 OPT| Convergence limit for RMS gradient                            0.0003000000
 OPT| RMS gradient is converged                                              YES
 OPT| **************************************************************************
 OPT| Estimated peak process memory after this step [MiB]                    166

 *******************************************************************************
 ***                    GEOMETRY OPTIMIZATION COMPLETED                      ***
 *******************************************************************************

 write_final_structure: Optimization converged, writing XYZ file gladly:
  formamide_GFN1_mol_geoopt-FINAL-1_6.xyz

 write_final_structure: Optimization converged, writing CIF file gladly:
  formamide_GFN1_mol_geoopt-FINAL-1_6.cif

 write_final_structure: Done!

                    Reevaluating energy at the minimum

 Extrapolation method: ASPC

 Number of electrons:                                                         18
 Number of occupied orbitals:                                                  9
 Number of molecular orbitals:                                                18

 Number of orbital functions:                                                 18
 Number of independent orbital functions:                                     18


 SCF WAVEFUNCTION OPTIMIZATION

  Step     Update method      Time    Convergence         Total energy    Change
  ------------------------------------------------------------------------------
     1 TBLite/Diag 0.40E+00    0.0     3.9813E-11       -11.6317581982 -1.16E+01

  *** SCF run converged in     1 steps ***


  Core Hamiltonian energy:                                    -11.81595223894736
  Repulsive potential energy:                                   0.11630468317509
  Electrostatic energy:                                         0.06890242763945
  Self-consistent dispersion energy:                            0.00000000000000
  Non-self consistent dispersion energy:                       -0.00101307006110
  Correction for halogen bonding:                               0.00000000000000
  Electronic entropic energy:                                  -0.00000000000000
  Fermi energy:                                                -0.27920403691806

  Total energy:                                               -11.63175819819392
  Total energy (extrapolated to T->0):                        -11.63175819819392

 ENERGY| Total FORCE_EVAL ( QS ) energy [hartree]            -11.631758198193920

 -------------------------------------------------------------------------------
 -                                                                             -
 -                                DBCSR STATISTICS                             -
 -                                                                             -
 -------------------------------------------------------------------------------
 COUNTER                                    TOTAL       BLAS       SMM       ACC
 flops     2 x    18 x     2                32400       0.0%    100.0%      0.0%     
 flops     4 x    18 x     2                64800       0.0%    100.0%      0.0%     
 flops     2 x    18 x     4                64800       0.0%    100.0%      0.0%     
 flops     2 x     2 x    18                71712       0.0%    100.0%      0.0%     
 flops     4 x     2 x    18                95616       0.0%    100.0%      0.0%     
 flops     2 x     4 x    18               119520       0.0%    100.0%      0.0%     
 flops     4 x    18 x     4               129600       0.0%    100.0%      0.0%     
 flops     4 x     4 x    18               286848       0.0%    100.0%      0.0%     
 flops inhomo. stacks                           0       0.0%      0.0%      0.0%
 flops total                       865.296000E+03       0.0%    100.0%      0.0%
 flops max/rank                    865.296000E+03       0.0%    100.0%      0.0%
 matmuls inhomo. stacks                         0       0.0%      0.0%      0.0%
 matmuls total                               2643       0.0%    100.0%      0.0%
 number of processed stacks                   432       0.0%    100.0%      0.0%
 average stack size                                     0.0       6.1       0.0
 marketing flops                   775.656000E+03
 -------------------------------------------------------------------------------
 # multiplications                            108
 max memory usage/rank              13.670973E+09
 # max total images/rank                        1
 # max 3D layers                                1
 # MPI messages exchanged                       0
 -------------------------------------------------------------------------------
 -                                                                             -
 -                      DBCSR MESSAGE PASSING PERFORMANCE                      -
 -                                                                             -
 -------------------------------------------------------------------------------
 ROUTINE             CALLS      AVE VOLUME [Bytes]
 MP_Bcast                9                     12.
 MP_Allreduce          525                      9.
 MP_Alltoall          3509                   1807.
 MP_ISend              432                    189.
 MP_IRecv              432                    189.
 -------------------------------------------------------------------------------

 -------------------------------------------------------------------------------
 -                                                                             -
 -                          OFFLOAD MEMPOOL STATISTICS                         -
 -                                                                             -
 -------------------------------------------------------------------------------
 Memory consumption                Number of allocations  Used [MiB]  Size [MiB]
 Device                                                1           0           0
 Host                                                  1           0           0
 -------------------------------------------------------------------------------

 MEMORY| Estimated peak process memory [MiB]                                 166

 -------------------------------------------------------------------------------
 -                                                                             -
 -                         MESSAGE PASSING PERFORMANCE                         -
 -                                                                             -
 -------------------------------------------------------------------------------

 ROUTINE             CALLS      AVE VOLUME [Bytes]
 MP_Group                1
 MP_Bcast              158                     78.
 MP_Allreduce         1423                     41.
 MP_Sync                84
 MP_comm_split          83
 -------------------------------------------------------------------------------


 -------------------------------------------------------------------------------
 -                                                                             -
 -                           R E F E R E N C E S                               -
 -                                                                             -
 -------------------------------------------------------------------------------
 
 CP2K version 2026.1 (Development Version), the CP2K developers group (2026).
 CP2K is freely available from https://www.cp2k.org/ .
 
 M. Iannuzzi, J. Wilhelm, F. Stein, A. Bussy, H. Elgabarty, D. Golze, A. Hehn, 
 M. Graml, S. Marek, B. Sertcan Gökmen, C. Schran, H. Forbert, R. Z. 
 Khaliullin, A. Kozhevnikov, M. Taillefumier, R. Meli, V. V. Rybkin, M. Brehm, 
 R. Schade, O. Schütt, J. V. Pototschnig, H. Mirhosseini, A. Knüpfer, D. Marx, 
 M. Krack, J. Hutter, T. D. Kühne.
 J. Phys. Chem. B 130, 1237-1310 (2026).
 The CP2K Program Package Made Simple.
 https://doi.org/10.1021/acs.jpcb.5c05851

 A. Katbashev, M. Stahn, T. Rose, V. Alizadeh, M. Friede, C. Plett, P. 
 Steinbach, S. Ehlert.
 J. Phys. Chem. A 129, 2667-2682 (2025).
 Overview on Building Blocks and Applications of Efficient and Robust Extended 
 Tight Binding.
 https://doi.org/10.1021/acs.jpca.4c08263

 T. D. Kühne, M. Iannuzzi, M. Del Ben, V. V. Rybkin, P. Seewald, F. Stein, T. 
 Laino, R. Z. Khaliullin, O. Schütt, F. Schiffmann, D. Golze, J. Wilhelm, S. 
 Chulkov, M. H. Bani-Hashemian, V. Weber, U. Borstnik, M. Taillefumier, A. S. 
 Jakobovits, A. Lazzaro, H. Pabst, T. Müller, R. Schade, M. Guidon, S. 
 Andermatt, N. Holmberg, G. K. Schenter, A. Hehn, A. Bussy, F. Belleflamme, G. 
 Tabacchi, A. Glöß, M. Lass, I. Bethune, C. J. Mundy, C. Plessl, M. Watkins, 
 J. VandeVondele, M. Krack, J. Hutter.
 J. Chem. Phys. 152, 194103 (2020).
 CP2K: An electronic structure and molecular dynamics software package - 
 Quickstep: Efficient and accurate electronic structure calculations.
 https://doi.org/10.1063/5.0007045

 P. Pracht, E. Caldeweyher, S. Ehlert, S. Grimme.
 ChemRxiv, (2019).
 A Robust Non-Self-Consistent Tight-Binding Quantum Chemistry Method for large 
 Molecules.
 https://doi.org/10.26434/chemrxiv.8326202.v1

 S. Grimme, C. Bannwarth, P. Shushkov.
 J. Chem. Theory Comput. 13, 1989 (2017).
 A Robust and Accurate Tight-Binding Quantum Chemical Method for Structures, 
 Vibrational Frequencies, and Noncovalent Interactions of Large Molecular 
 Systems Parametrized for All spd-Block Elements (Z = 1-86).
 https://doi.org/10.1021/acs.jctc.7b00118

 O. Schuett, P. Messmer, J. Hutter, J. VandeVondele.
 Electronic Structure Calculations on Graphics Processing Units, 173-190 (2016).
 GPU-Accelerated Sparse Matrix-Matrix Multiplication for Linear Scaling Density 
 Functional Theory.
 https://doi.org/10.1002/9781118670712.ch8

 A. Heinecke, G. Henry, M. Hutchinson, H. Pabst.
 Proceedings of Intl. Supercomputing Conference, 981-991 (2016).
 LIBXSMM: Accelerating Small Matrix Multiplications by Runtime Code Generation.
 https://doi.org/10.1109/SC.2016.83

 U. Borstnik, J. VandeVondele, V. Weber, J. Hutter.
 Parallel Comput. 40, 47-58 (2014).
 Sparse matrix multiplication: The distributed block-compressed sparse row 
 library.
 https://doi.org/10.1016/j.parco.2014.03.012

 T. D. Kühne, M. Krack, F. R. Mohamed, M. Parrinello.
 Phys. Rev. Lett. 98, 066401 (2007).
 Efficient and accurate Car-Parrinello-like approach to Born-Oppenheimer 
 molecular dynamics.
 https://doi.org/10.1103/PhysRevLett.98.066401

 M. Frigo, S. G. Johnson.
 Proc. IEEE 93, 216-231 (2005).
 The design and implementation of FFTW3.
 https://doi.org/10.1109/JPROC.2004.840301

 J. Kolafa.
 J. Comput. Chem. 25, 335-342 (2004).
 Time-reversible always stable predictor-corrector method for molecular dynamics 
 of polarizable molecules.
 https://doi.org/10.1002/jcc.10385

 N. D. Mermin.
 Phys. Rev. 137, A1441-A1443 (1965).
 Thermal Properties of the Inhomogeneous Electron Gas.
 https://doi.org/10.1103/PhysRev.137.A1441


 -------------------------------------------------------------------------------
 -                                                                             -
 -                                T I M I N G                                  -
 -                                                                             -
 -------------------------------------------------------------------------------
 SUBROUTINE                       CALLS  ASD         SELF TIME        TOTAL TIME
                                MAXIMUM       AVERAGE  MAXIMUM  AVERAGE  MAXIMUM
 CP2K                                 1  1.0    0.001    0.001    0.061    0.061
 cp_geo_opt                           1  2.0    0.000    0.000    0.056    0.056
 geoopt_bfgs                          1  3.0    0.000    0.000    0.056    0.056
 cp_eval_at                           8  4.0    0.000    0.000    0.052    0.052
 qs_forces                            7  5.0    0.000    0.000    0.050    0.050
 qs_energies                          8  5.9    0.000    0.000    0.048    0.048
 scf_env_do_scf                       8  6.9    0.000    0.000    0.035    0.035
 scf_env_do_scf_inner_loop           69  8.0    0.001    0.001    0.035    0.035
 qs_scf_new_mos                      69  9.0    0.000    0.000    0.030    0.030
 cp_dbcsr_plus_fm_fm_t               83 10.8    0.000    0.000    0.019    0.019
 calculate_dm_sparse                 76 10.0    0.000    0.000    0.017    0.017
 dbcsr_multiply_generic             108 11.9    0.001    0.001    0.016    0.016
 make_m2s                           216 12.9    0.001    0.001    0.010    0.010
 copy_dbcsr_to_fm                   163 10.5    0.000    0.000    0.009    0.009
 dbcsr_complete_redistribute        354 12.2    0.004    0.004    0.008    0.008
 init_scf_run                         8  6.9    0.000    0.000    0.008    0.008
 scf_env_initial_rho_setup            8  7.9    0.000    0.000    0.007    0.007
 wfi_extrapolate                      8  8.9    0.000    0.000    0.007    0.007
 eigensolver                         69 10.0    0.001    0.001    0.005    0.005
 cp_fm_syevd                         83 10.6    0.000    0.000    0.005    0.005
 qs_diis_b_step                      61 10.0    0.000    0.000    0.005    0.005
 copy_fm_to_dbcsr                   191 11.7    0.000    0.000    0.005    0.005
 cp_dbcsr_sm_fm_multiply             25 10.4    0.000    0.000    0.005    0.005
 make_images                        216 13.9    0.001    0.001    0.004    0.004
 qs_init_subsys                       1  2.0    0.001    0.001    0.003    0.003
 dbcsr_finalize                    1324 13.2    0.001    0.001    0.003    0.003
 multiply_cannon                    108 12.9    0.001    0.001    0.003    0.003
 build_tblite_matrices               15  7.0    0.003    0.003    0.003    0.003
 rebuild_ks_matrix                   76  9.7    0.000    0.000    0.003    0.003
 build_tblite_ks_matrix              76 10.7    0.003    0.003    0.003    0.003
 cp_fm_syevd_base                    83 11.6    0.003    0.003    0.003    0.003
 dbcsr_create_new                  2527 13.4    0.002    0.002    0.003    0.003
 dbcsr_crop_matrix                  166 13.8    0.000    0.000    0.003    0.003
 cp_dbcsr_sm_fm_multiply_core        25 11.4    0.000    0.000    0.003    0.003
 qs_energies_init_hamiltonians        8  6.9    0.000    0.000    0.002    0.002
 dbcsr_desymmetrize_deep            163 11.5    0.001    0.001    0.002    0.002
 qs_ks_update_qs_env_forces           7  6.0    0.000    0.000    0.002    0.002
 reorthogonalize_vectors              7  9.9    0.000    0.000    0.002    0.002
 make_basis_lowdin                    7 10.9    0.000    0.000    0.002    0.002
 dbcsr_copy_submatrix               166 14.8    0.001    0.001    0.002    0.002
 qs_env_setup                         1  3.0    0.000    0.000    0.002    0.002
 qs_env_rebuild_pw_env               16  6.3    0.000    0.000    0.002    0.002
 pw_env_rebuild                       1  5.0    0.000    0.000    0.002    0.002
 dbcsr_merge_all                    603 14.8    0.001    0.001    0.002    0.002
 compute_matrix_w                     8  6.9    0.000    0.000    0.002    0.002
 calculate_w_matrix_1                 7  8.0    0.000    0.000    0.002    0.002
 cp_fm_redistribute_start            83 11.6    0.001    0.001    0.002    0.002
 make_images_data                   216 14.9    0.001    0.001    0.002    0.002
 parallel_gemm_fm_gemm              179 10.5    0.000    0.000    0.002    0.002
 cp_fm_gemm                         179 11.5    0.002    0.002    0.002    0.002
 write_restart                        7  4.0    0.001    0.001    0.001    0.001
 dbcsr_destroy                     2382 12.8    0.001    0.001    0.001    0.001
 qs_ks_update_qs_env                 69  9.0    0.000    0.000    0.001    0.001
 dbcsr_make_images_dense            166 13.8    0.000    0.000    0.001    0.001
 dbcsr_iterator_start              3037 13.7    0.001    0.001    0.001    0.001
 copy_fm_to_dbcsr_bc                191 12.7    0.000    0.000    0.001    0.001
 -------------------------------------------------------------------------------

 The number of warnings for this run is : 0
 
 -------------------------------------------------------------------------------
  **** **** ******  **  PROGRAM ENDED AT                 2026-05-23 22:46:19.652
 ***** ** ***  *** **   PROGRAM RAN ON                                spark-c86c
 **    ****   ******    PROGRAM RAN BY                                  kuehne88
 ***** **    ** ** **   PROGRAM PROCESS ID                               2222426
  **** **  *******  **  PROGRAM STOPPED IN /home/kuehne88/periodic-gfn2-benchmar
                                           ks/X23b/runs/molecule_geoopt/GFN1/for
                                           mamide_GFN1_mol_geoopt
