 DBCSR| CPU Multiplication driver                                           BLAS (U)
 DBCSR| Multrec recursion limit                                              512 (U)
 DBCSR| Multiplication stack size                                           1000 (D)
 DBCSR| Maximum elements for images                                    UNLIMITED (U)
 DBCSR| Multiplicative factor virtual images                                   1 (U)
 DBCSR| Use multiplication densification                                       T (D)
 DBCSR| Multiplication size stacks                                             3 (U)
 DBCSR| Use memory pool for CPU allocation                                     F (U)
 DBCSR| Number of 3D layers                                               SINGLE (U)
 DBCSR| Use MPI memory allocation                                              F (U)
 DBCSR| Use RMA algorithm                                                      F (U)
 DBCSR| Use Communication thread                                               T (U)
 DBCSR| Communication thread load                                             60 (D)
 DBCSR| MPI: My process id                                                     0
 DBCSR| MPI: Number of processes                                               1
 DBCSR| OMP: Current number of threads                                         8
 DBCSR| OMP: Max number of threads                                             8
 DBCSR| Split modifier for TAS multiplication algorithm                  1.0E+00 (U)


  **** **** ******  **  PROGRAM STARTED AT               2026-07-16 13:27:13.527
 ***** ** ***  *** **   PROGRAM STARTED ON                                 terok
 **    ****   ******    PROGRAM STARTED BY                              kuehne88
 ***** **    ** ** **   PROGRAM PROCESS ID                               1787888
  **** **  *******  **  PROGRAM STARTED IN                        /home/kuehne88

 CP2K| version string:                 CP2K version 2026.1 (Development Version)
 CP2K| source code revision number:                                   28df9380ab
 CP2K| cp2kflags: omp fftw3 libxc parallel scalapack spglib s_dftd3 mctc-lib tbl
 CP2K|            ite tblite_gxtb
 CP2K| is freely available from                            https://www.cp2k.org/
 CP2K| Program compiled at                                   2026-07-16 07:46:36
 CP2K| Program compiled on                                                 terok
 CP2K| Program compiled for                                               x86_64
 CP2K| Data directory path    /home/kuehne88/work/codex-gxtb-symmetry-v2-runtime
 CP2K| Input file name        /home/kuehne88/work/codex-gxtb-symmetry-v2-runtime

 GLOBAL| Force Environment number                                              1
 GLOBAL| Basis set file name                                           BASIS_SET
 GLOBAL| Potential file name                                           POTENTIAL
 GLOBAL| MM Potential file name                                     MM_POTENTIAL
 GLOBAL| Coordinate file name                                      __STD_INPUT__
 GLOBAL| Method name                                                        CP2K
 GLOBAL| Project name                                             CH4_full_debug
 GLOBAL| Run type                                                          DEBUG
 GLOBAL| FFT library                                                       FFTW3
 GLOBAL| Diagonalization library                                       ScaLAPACK
 GLOBAL| Cholesky decomposition library                                ScaLAPACK
 GLOBAL| DGEMM library                                                      BLAS
 GLOBAL| Direct generalized diagonalization requested                          F
 GLOBAL| Orthonormality check for eigenvectors                          DISABLED
 GLOBAL| Matrix multiplication library                                 ScaLAPACK
 GLOBAL| All-to-all communication in single precision                          F
 GLOBAL| FFTs using library dependent lengths                                  F
 GLOBAL| Grid backend                                                       AUTO
 GLOBAL| Global print level                                               MEDIUM
 GLOBAL| MPI I/O enabled                                                       T
 GLOBAL| Total number of message passing processes                             1
 GLOBAL| Number of distributed systems (nodes)                                 1
 GLOBAL| Number of threads for this process                                    8
 GLOBAL| This output is from process                                           0
 GLOBAL| OpenMP stack size per thread (OMP_STACKSIZE)                    default
 GLOBAL| CPU model name                                       AMD EPYC Processor
 GLOBAL| CPUID                                                              1002

 MEMORY| system memory details [Kb]
 MEMORY|                        rank 0           min           max       average
 MEMORY| MemTotal            528104804     528104804     528104804     528104804
 MEMORY| MemFree             391169308     391169308     391169308     391169308
 MEMORY| Buffers                    20            20            20            20
 MEMORY| Cached              123039320     123039320     123039320     123039320
 MEMORY| Slab                  9542380       9542380       9542380       9542380
 MEMORY| SReclaimable          7159560       7159560       7159560       7159560
 MEMORY| MemLikelyFree       521368208     521368208     521368208     521368208


 *** Fundamental physical constants (SI units) ***

 *** Literature: B. J. Mohr and B. N. Taylor,
 ***             CODATA recommended values of the fundamental physical
 ***             constants: 2006, Web Version 5.1
 ***             http://physics.nist.gov/constants

 Speed of light in vacuum [m/s]                             2.99792458000000E+08
 Magnetic constant or permeability of vacuum [N/A**2]       1.25663706143592E-06
 Electric constant or permittivity of vacuum [F/m]          8.85418781762039E-12
 Planck constant (h) [J*s]                                  6.62606896000000E-34
 Planck constant (h-bar) [J*s]                              1.05457162825177E-34
 Elementary charge [C]                                      1.60217648700000E-19
 Electron mass [kg]                                         9.10938215000000E-31
 Electron g factor [ ]                                     -2.00231930436220E+00
 Proton mass [kg]                                           1.67262163700000E-27
 Fine-structure constant                                    7.29735253760000E-03
 Rydberg constant [1/m]                                     1.09737315685270E+07
 Avogadro constant [1/mol]                                  6.02214179000000E+23
 Boltzmann constant [J/K]                                   1.38065040000000E-23
 Atomic mass unit [kg]                                      1.66053878200000E-27
 Bohr radius [m]                                            5.29177208590000E-11

 *** Conversion factors ***

 [u] -> [a.u.]                                              1.82288848426455E+03
 [Angstrom] -> [Bohr] = [a.u.]                              1.88972613288564E+00
 [a.u.] = [Bohr] -> [Angstrom]                              5.29177208590000E-01
 [a.u.] -> [s]                                              2.41888432650478E-17
 [a.u.] -> [fs]                                             2.41888432650478E-02
 [a.u.] -> [J]                                              4.35974393937059E-18
 [a.u.] -> [N]                                              8.23872205491840E-08
 [a.u.] -> [K]                                              3.15774647902944E+05
 [a.u.] -> [kJ/mol]                                         2.62549961709828E+03
 [a.u.] -> [kcal/mol]                                       6.27509468713739E+02
 [a.u.] -> [Pa]                                             2.94210107994716E+13
 [a.u.] -> [bar]                                            2.94210107994716E+08
 [a.u.] -> [atm]                                            2.90362800883016E+08
 [a.u.] -> [eV]                                             2.72113838565563E+01
 [a.u.] -> [Hz]                                             6.57968392072181E+15
 [a.u.] -> [1/cm] (wave numbers)                            2.19474631370540E+05
 [a.u./Bohr**2] -> [1/cm]                                   5.14048714338585E+03
 

 CELL| Volume [angstrom^3]:                                           512.000000
 CELL| Vector a [angstrom]:       8.000     0.000     0.000   |a| =     8.000000
 CELL| Vector b [angstrom]:       0.000     8.000     0.000   |b| =     8.000000
 CELL| Vector c [angstrom]:       0.000     0.000     8.000   |c| =     8.000000
 CELL| Angle (b,c), alpha [degree]:                                    90.000000
 CELL| Angle (a,c), beta  [degree]:                                    90.000000
 CELL| Angle (a,b), gamma [degree]:                                    90.000000
 CELL| Requested initial symmetry:                                         CUBIC
 CELL| Numerically orthorhombic:                                             YES
 CELL| Periodicity                                                           XYZ

 CELL_REF| Volume [angstrom^3]:                                       512.000000
 CELL_REF| Vector a [angstrom     8.000     0.000     0.000   |a| =     8.000000
 CELL_REF| Vector b [angstrom     0.000     8.000     0.000   |b| =     8.000000
 CELL_REF| Vector c [angstrom     0.000     0.000     8.000   |c| =     8.000000
 CELL_REF| Angle (b,c), alpha [degree]:                                90.000000
 CELL_REF| Angle (a,c), beta  [degree]:                                90.000000
 CELL_REF| Angle (a,b), gamma [degree]:                                90.000000
 CELL_REF| Requested initial symmetry:                                     CUBIC
 CELL_REF| Numerically orthorhombic:                                         YES
 CELL_REF| Periodicity                                                       XYZ

 GENERATE|  Preliminary Number of Bonds generated:                             0
 GENERATE|  Achieved consistency in connectivity generation.


                  #####   #####        #     #   #     #       #          
                 #     # #     #      #    ##### #     #   # #####  ####  
                 #     # #           #       #   ###   #       #   #    # 
                 #     #  #####     #        #   #  #  #   #   #   ###### 
                 #   # #       #   #         #   #   # #   #   #   #      
                 #    #  #     #  #          #   #  #  # # #   #    #   # 
                  #### #  #####  #           #   ###   ##  #   #     ###  

                                     g-xTB   
                                 Version 0.0                       
                            Johann V. Pototschnig                  

                tblite provider: SAVE
                tblite source revision: unknown
                g-xTB support: enabled

 xTB| Parameter file                                             xTB1_parameters
 xTB| Basis expansion STO-NG                                                   6
 xTB| Basis expansion STO-NG for Hydrogen                                      4
 xTB| Repulsive pair potential accuracy                               0.1000E-09
 xTB| Repulsive enhancement factor                                      0.000000
 xTB| Halogen interaction potential                                            T
 xTB| Halogen interaction potential cutoff radius                         20.000
 xTB| Nonbonded interactions                                                   F
 xTB| vdW potential type:                                              DFTD3(BJ)
 xTB| D3 Dispersion: Parameter                                         dftd3.dat
 xTB| Huckel constants ks kp kd                        1.850     2.250     2.000
 xTB| Huckel constants ksp k2sh                                  2.080     2.850
 xTB| Mataga-Nishimoto exponent                                            2.000
 xTB| Repulsion potential exponent                                         1.500
 xTB| Coordination number scaling kcn(s) kcn(p) kc     0.006    -0.003    -0.005
 xTB| Electronegativity scaling                                           -0.007
 xTB| Halogen potential scaling kxr kx2                          1.300     0.440
 xTB| SCC mixer:                                                       AUTO
 xTB| tblite accuracy:                                                 1.000E+00
 xTB| tblite SCC mixer damping:                                            0.400
 xTB| tblite SCC mixer iterations:                                           250
 xTB| tblite SCC mixer memory:                                               250
 xTB| tblite SCC mixer solver:                                         GVD
 xTB| tblite SCC mixer omega0:                                         1.000E-02
 xTB| tblite SCC mixer min weight:                                     1.000E+00
 xTB| tblite SCC mixer max weight:                                     1.000E+05
 xTB| tblite SCC mixer weight factor:                                  1.000E-02




 ATOMIC KIND INFORMATION

  1. Atomic kind: C                                     Number of atoms:       1

     Orbital Basis Set                                                 C _STO-6G

       Number of orbital shell sets:                                           2
       Number of orbital shells:                                               2
       Number of primitive Cartesian functions:                               12
       Number of Cartesian basis functions:                                    4
       Number of spherical basis functions:                                    4
       Norm type:                                                              3

       Normalised Cartesian orbitals:

                        Set   Shell   Orbital            Exponent    Coefficient

                          1       1    1s                2.208628      -1.157490
                                                         1.917959       0.886555
                                                         0.497153       0.232010
                                                         0.192182       0.116485
                                                         0.150531      -0.033296
                                                         0.078189       0.019361

                          2       1    2px              24.597336       0.464082
                                                         6.488161       0.691437
                                                         2.226359       0.612655
                                                         0.776897       0.415112
                                                         0.283425       0.113030
                                                         0.098628       0.020433
                          2       1    2py              24.597336       0.464082
                                                         6.488161       0.691437
                                                         2.226359       0.612655
                                                         0.776897       0.415112
                                                         0.283425       0.113030
                                                         0.098628       0.020433
                          2       1    2pz              24.597336       0.464082
                                                         6.488161       0.691437
                                                         2.226359       0.612655
                                                         0.776897       0.415112
                                                         0.283425       0.113030
                                                         0.098628       0.020433

     AE Potential information for                                         Carbon

       Description:                                       Bare Coulomb Potential
                                                             Valence charge only

       Gaussian exponent of the core charge distribution:               3.373250
       Electronic configuration (s p d ...):                       2   2   0   0

  2. Atomic kind: H                                     Number of atoms:       4

     Orbital Basis Set                                                 H _STO-8G

       Number of orbital shell sets:                                           1
       Number of orbital shells:                                               1
       Number of primitive Cartesian functions:                                8
       Number of Cartesian basis functions:                                    1
       Number of spherical basis functions:                                    1
       Norm type:                                                              3

       Normalised Cartesian orbitals:

                        Set   Shell   Orbital            Exponent    Coefficient

                          1       1    1s              337.005012       0.032613
                                                        53.310531       0.058991
                                                        12.208253       0.102844
                                                         3.418827       0.159923
                                                         1.108790       0.193518
                                                         0.478718       0.121328
                                                         0.212137       0.085046
                                                         0.069058       0.011171

     AE Potential information for                                       Hydrogen

       Description:                                       Bare Coulomb Potential
                                                              Full atomic charge

       Gaussian exponent of the core charge distribution:              12.500000
       Electronic configuration (s p d ...):                       1   0   0   0


 MOLECULE KIND INFORMATION


 All atoms are their own molecule, skipping detailed information


 TOTAL NUMBERS AND MAXIMUM NUMBERS

  Total number of            - Atomic kinds:                                   2
                             - Atoms:                                          5
                             - Shell sets:                                     6
                             - Shells:                                         6
                             - Primitive Cartesian functions:                 44
                             - Cartesian basis functions:                      8
                             - Spherical basis functions:                      8

  Maximum angular momentum of the orbital basis functions:                     1


 MODULE QUICKSTEP: ATOMIC COORDINATES IN ANGSTROM

   Atom Kind Element         X             Y             Z       Z(eff)     Mass
      1    1 C     6      4.000000      4.000000      4.000000   4.0000  12.0107
      2    2 H     1      4.692820      4.692820      4.692820   1.0000   1.0079
      3    2 H     1      4.692820      3.307180      3.307180   1.0000   1.0079
      4    2 H     1      3.307180      4.692820      3.307180   1.0000   1.0079
      5    2 H     1      3.307180      3.307180      4.692820   1.0000   1.0079



 SCF PARAMETERS         Density guess:                                     MOPAC
                        --------------------------------------------------------
                        max_scf:                                             300
                        max_scf_history:                                       0
                        max_diis:                                              4
                        --------------------------------------------------------
                        eps_scf:                                        1.00E-10
                        eps_scf_history:                                0.00E+00
                        eps_diis:                                       1.00E-01
                        eps_eigval:                                     1.00E-05
                        --------------------------------------------------------
                        level_shift [a.u.]:                             0.000000
                        added MOs                                         4    0
                        --------------------------------------------------------
                        Mixing method:                           DIRECT_P_MIXING
                        --------------------------------------------------------
                        Smear method:                                FERMI_DIRAC
                        Electronic temperature [K]:                        300.0
                        Electronic temperature [a.u.]:                  9.50E-04
                        Accuracy threshold:                             1.00E-06
                        --------------------------------------------------------
                        No outer SCF

 PW_GRID| Information for grid number                                          1
 PW_GRID| Cutoff [a.u.]                                                      1.0
 PW_GRID| spherical cutoff:                                                   NO
 PW_GRID|   Bounds   1             -4       3                Points:           8
 PW_GRID|   Bounds   2             -4       3                Points:           8
 PW_GRID|   Bounds   3             -4       3                Points:           8
 PW_GRID| Volume element (a.u.^3)   6.748         Volume (a.u.^3)      3455.1473
 PW_GRID| Grid span                                                    FULLSPACE

 POISSON| Solver                                                        PERIODIC
 POISSON| Periodicity                                                        XYZ

 RS_GRID| Information for grid number                                          1
 RS_GRID|   Bounds   1             -4       3                Points:           8
 RS_GRID|   Bounds   2             -4       3                Points:           8
 RS_GRID|   Bounds   3             -4       3                Points:           8

 *******************************************************************************
                                    Kpoints
 *******************************************************************************
 BRILLOUIN| K-point scheme                                        Monkhorst-Pack
 BRILLOUIN| K-Point grid                                             2    2    2
 BRILLOUIN| K-point symmetry accuracy                               0.100000E-07
 BRILLOUIN| K-Point point group symmetrization                               OFF
 BRILLOUIN| Wavefunction type                                            COMPLEX
 BRILLOUIN| Use full k-point grid     
 BRILLOUIN| List of Kpoints [2 Pi/Bohr]                                        8
 BRILLOUIN| Number           Weight            X              Y              Z
 BRILLOUIN|     1           0.12500       -0.25000       -0.25000       -0.25000
 BRILLOUIN|     2           0.12500       -0.25000       -0.25000        0.25000
 BRILLOUIN|     3           0.12500       -0.25000        0.25000       -0.25000
 BRILLOUIN|     4           0.12500       -0.25000        0.25000        0.25000
 BRILLOUIN|     5           0.12500        0.25000       -0.25000       -0.25000
 BRILLOUIN|     6           0.12500        0.25000       -0.25000        0.25000
 BRILLOUIN|     7           0.12500        0.25000        0.25000       -0.25000
 BRILLOUIN|     8           0.12500        0.25000        0.25000        0.25000
 *******************************************************************************

 Extrapolation method: initial_guess

 Number of electrons:                                                          8
 Number of occupied orbitals:                                                  4
 Number of molecular orbitals:                                                 8

 Number of orbital functions:                                                  8
 Number of independent orbital functions:                                      8


 SCF WAVEFUNCTION OPTIMIZATION

  Step     Update method      Time    Convergence         Total energy    Change
  ------------------------------------------------------------------------------
     1 GXTB-Raw    0.10E+01    0.1     0.82979700       -40.4488101775 -4.04E+01
     2 GXTB-Simple 0.20E+00    0.1     0.04788247       -40.4610431014 -1.22E-02
     3 GXTB-Simple 0.20E+00    0.1     0.03337886       -40.4671918126 -6.15E-03
     4 GXTB-FDIIS  0.10E+01    0.1     0.05524366       -40.4725636158 -5.37E-03
     5 GXTB-FDIIS  0.10E+01    0.1     0.03381046       -40.4737574771 -1.19E-03
     6 GXTB-FDIIS  0.10E+01    0.1     0.00193792       -40.4737570582  4.19E-07
     7 GXTB-FDIIS  0.10E+01    0.1     0.00101935       -40.4737581571 -1.10E-06
     8 GXTB-FDIIS  0.10E+01    0.1     0.00003683       -40.4737581591 -1.98E-09
     9 GXTB-FDIIS  0.10E+01    0.1     0.00000779       -40.4737581592 -6.37E-11
    10 GXTB-FDIIS  0.10E+01    0.1     0.00000010       -40.4737581592 -1.42E-14
    11 GXTB-FDIIS  0.10E+01    0.1     2.3637E-11       -40.4737581592  0.00E+00

  *** SCF run converged in    11 steps ***


  Core Hamiltonian energy:                                     -3.07154157743146
  Repulsive potential energy:                                   0.37448426636227
  Electrostatic energy:                                         0.01774355862754
  Self-consistent dispersion energy:                           -0.00112258111388
  Non-self consistent dispersion energy:                        0.00003895111946
  Correction for halogen bonding:                               0.00000000000000
  Electronic entropic energy:                                  -0.00000000000000
  Fermi energy:                                                -0.21273198637808

  Total energy:                                               -40.47375815918123
  Total energy (extrapolated to T->0):                        -40.47375815918123


 MULLIKEN POPULATION ANALYSIS

  # Atom   Element   Kind        Atomic population                    Net charge
       1     C          1                 4.286001                     -0.286001
       2     H          2                 0.928500                      0.071500
       3     H          2                 0.928500                      0.071500
       4     H          2                 0.928500                      0.071500
       5     H          2                 0.928500                      0.071500
 # Total charge                           8.000000                      0.000000


 ENERGY| Total FORCE_EVAL ( QS ) energy [hartree]            -40.473758159181230

 FORCES| Atomic forces [hartree/bohr]
 FORCES|   Atom     x               y               z               |f|
 FORCES|      1  2.68543539E-16  1.24675837E-16  1.94477597E-16   3.54233302E-16
 FORCES|      2 -3.20262835E-02 -3.20262835E-02 -3.20262835E-02   5.54711502E-02
 FORCES|      3 -3.20262835E-02  3.20262835E-02  3.20262835E-02   5.54711502E-02
 FORCES|      4  3.20262835E-02 -3.20262835E-02  3.20262835E-02   5.54711502E-02
 FORCES|      5  3.20262835E-02  3.20262835E-02 -3.20262835E-02   5.54711502E-02
 FORCES| Sum    -2.77555756E-17  0.00000000E+00 -1.38777878E-17
 FORCES| Total atomic force                                       3.10316769E-17

 STRESS| Stress tensor components (GPW/GAPW) [bar]
 STRESS|                                           1/3 Trace         Determinant
 STRESS| Overlap                           0.00000000000E+00   0.00000000000E+00
 STRESS| Kinetic energy                    0.00000000000E+00   0.00000000000E+00
 STRESS| Local pseudopotential/core        0.00000000000E+00   0.00000000000E+00
 STRESS| Nonlocal pseudopotential          0.00000000000E+00   0.00000000000E+00
 STRESS| Core charge overlap               0.00000000000E+00   0.00000000000E+00
 STRESS| Hartree                           0.00000000000E+00   0.00000000000E+00
 STRESS| Exchange-correlation              0.00000000000E+00   0.00000000000E+00
 STRESS| Exact exchange (EXX)              0.00000000000E+00   0.00000000000E+00
 STRESS| vdW correction                    0.00000000000E+00   0.00000000000E+00
 STRESS| Moller-Plesset (MP2)              0.00000000000E+00   0.00000000000E+00
 STRESS| Nonlinear core correction (NLCC)  0.00000000000E+00   0.00000000000E+00
 STRESS| Local atomic parts (GAPW)         0.00000000000E+00   0.00000000000E+00
 STRESS| Resolution-of-the-identity (LRI)  0.00000000000E+00   0.00000000000E+00
 STRESS| Sum of components                 0.00000000000E+00   0.00000000000E+00
 STRESS| Total                            -1.50321621261E+04  -3.39675601649E+12

 STRESS| Analytical stress tensor [bar]
 STRESS|                        x                   y                   z
 STRESS|      x       -1.50321621261E+04   1.83546007046E-12  -2.94504519508E-12
 STRESS|      y        1.83546007046E-12  -1.50321621261E+04   4.56758997570E-12
 STRESS|      z       -2.94504519508E-12   4.56758997570E-12  -1.50321621261E+04
 STRESS| 1/3 Trace                                            -1.50321621261E+04
 STRESS| Determinant                                          -3.39675601649E+12

 STRESS| Eigenvectors and eigenvalues of the analytical stress tensor [bar]
 STRESS|                        1                   2                   3
 STRESS| Eigenvalues  -1.50321621261E+04  -1.50321621261E+04  -1.50321621261E+04
 STRESS|      x           0.000000000000      1.000000000000      0.000000000000
 STRESS|      y           1.000000000000      0.000000000000      0.000000000000
 STRESS|      z           0.000000000000      0.000000000000      1.000000000000

 **************************** NUMERICAL STRESS ********************************


 -------------------------------------------------------------------------------
 ----                             MULTIGRID INFO                            ----
 -------------------------------------------------------------------------------
 total grid count     :           420              cutoff [a.u.]            1.00

 PW_GRID| Information for grid number                                          2
 PW_GRID| Cutoff [a.u.]                                                      1.0
 PW_GRID| spherical cutoff:                                                   NO
 PW_GRID|   Bounds   1             -4       3                Points:           8
 PW_GRID|   Bounds   2             -4       3                Points:           8
 PW_GRID|   Bounds   3             -4       3                Points:           8
 PW_GRID| Volume element (a.u.^3)   6.748         Volume (a.u.^3)      3455.1702
 PW_GRID| Grid span                                                    FULLSPACE

 POISSON| Solver                                                        PERIODIC
 POISSON| Periodicity                                                        XYZ

 RS_GRID| Information for grid number                                          2
 RS_GRID|   Bounds   1             -4       3                Points:           8
 RS_GRID|   Bounds   2             -4       3                Points:           8
 RS_GRID|   Bounds   3             -4       3                Points:           8

 Parameters for the always stable predictor-corrector (ASPC) method:
  ASPC order: 0
  B(1) =   1.000000

 Extrapolation method: ASPC

 Number of electrons:                                                          8
 Number of occupied orbitals:                                                  4
 Number of molecular orbitals:                                                 8

 Number of orbital functions:                                                  8
 Number of independent orbital functions:                                      8


 SCF WAVEFUNCTION OPTIMIZATION

  Step     Update method      Time    Convergence         Total energy    Change
  ------------------------------------------------------------------------------
     1 GXTB-Raw    0.10E+01    0.1     0.00000119       -40.4737569914 -4.05E+01
     2 GXTB-Simple 0.20E+00    0.1     0.00000010       -40.4737569914 -2.84E-14
     3 GXTB-Simple 0.20E+00    0.1     0.00000007       -40.4737569914 -7.11E-15
     4 GXTB-FDIIS  0.10E+01    0.1     0.00000024       -40.4737569914 -2.84E-14
     5 GXTB-FDIIS  0.10E+01    0.1     0.00000001       -40.4737569914  7.11E-15
     6 GXTB-FDIIS  0.10E+01    0.1     1.7696E-10       -40.4737569914  0.00E+00
     7 GXTB-FDIIS  0.10E+01    0.1     1.3959E-13       -40.4737569914  0.00E+00

  *** SCF run converged in     7 steps ***


  Core Hamiltonian energy:                                     -3.07153977226013
  Repulsive potential energy:                                   0.37448025722473
  Electrostatic energy:                                         0.01774301934580
  Self-consistent dispersion energy:                           -0.00112258865698
  Non-self consistent dispersion energy:                        0.00003895138934
  Correction for halogen bonding:                               0.00000000000000
  Electronic entropic energy:                                  -0.00000000000000
  Fermi energy:                                                -0.21273126822123

  Total energy:                                               -40.47375699143591
  Total energy (extrapolated to T->0):                        -40.47375699143591


 MULLIKEN POPULATION ANALYSIS

  # Atom   Element   Kind        Atomic population                    Net charge
       1     C          1                 4.285999                     -0.285999
       2     H          2                 0.928500                      0.071500
       3     H          2                 0.928500                      0.071500
       4     H          2                 0.928500                      0.071500
       5     H          2                 0.928500                      0.071500
 # Total charge                           8.000000                      0.000000


 ENERGY| Total FORCE_EVAL ( QS ) energy [hartree]            -40.473756991435906

 -------------------------------------------------------------------------------
 ----                             MULTIGRID INFO                            ----
 -------------------------------------------------------------------------------
 total grid count     :           420              cutoff [a.u.]            1.00

 PW_GRID| Information for grid number                                          3
 PW_GRID| Cutoff [a.u.]                                                      1.0
 PW_GRID| spherical cutoff:                                                   NO
 PW_GRID|   Bounds   1             -4       3                Points:           8
 PW_GRID|   Bounds   2             -4       3                Points:           8
 PW_GRID|   Bounds   3             -4       3                Points:           8
 PW_GRID| Volume element (a.u.^3)   6.748         Volume (a.u.^3)      3455.1245
 PW_GRID| Grid span                                                    FULLSPACE

 POISSON| Solver                                                        PERIODIC
 POISSON| Periodicity                                                        XYZ

 RS_GRID| Information for grid number                                          3
 RS_GRID|   Bounds   1             -4       3                Points:           8
 RS_GRID|   Bounds   2             -4       3                Points:           8
 RS_GRID|   Bounds   3             -4       3                Points:           8

 Parameters for the always stable predictor-corrector (ASPC) method:
  ASPC order: 0
  B(1) =   2.000000
  B(2) =  -1.000000

 Extrapolation method: ASPC

 Number of electrons:                                                          8
 Number of occupied orbitals:                                                  4
 Number of molecular orbitals:                                                 8

 Number of orbital functions:                                                  8
 Number of independent orbital functions:                                      8


 SCF WAVEFUNCTION OPTIMIZATION

  Step     Update method      Time    Convergence         Total energy    Change
  ------------------------------------------------------------------------------
     1 GXTB-Raw    0.10E+01    0.1     0.53884427       -40.4716509032 -4.05E+01
     2 GXTB-Simple 0.20E+00    0.1     0.01265442       -40.4726767861 -1.03E-03
     3 GXTB-Simple 0.20E+00    0.1     0.00900925       -40.4732007264 -5.24E-04
     4 GXTB-FDIIS  0.10E+01    0.1     0.02206990       -40.4737566874 -5.56E-04
     5 GXTB-FDIIS  0.10E+01    0.1     0.00159263       -40.4737593213 -2.63E-06
     6 GXTB-FDIIS  0.10E+01    0.1     0.00017741       -40.4737593268 -5.47E-09
     7 GXTB-FDIIS  0.10E+01    0.1     0.00000930       -40.4737593269 -8.61E-11
     8 GXTB-FDIIS  0.10E+01    0.1     0.00000256       -40.4737593269 -2.86E-12
     9 GXTB-FDIIS  0.10E+01    0.1     0.00000003       -40.4737593269  7.11E-15
    10 GXTB-FDIIS  0.10E+01    0.1     4.1698E-09       -40.4737593269 -7.11E-15
    11 GXTB-FDIIS  0.10E+01    0.1     1.5488E-13       -40.4737593269  0.00E+00

  *** SCF run converged in    11 steps ***


  Core Hamiltonian energy:                                     -3.07154338260201
  Repulsive potential energy:                                   0.37448827552305
  Electrostatic energy:                                         0.01774409791352
  Self-consistent dispersion energy:                           -0.00112257357073
  Non-self consistent dispersion energy:                        0.00003895084958
  Correction for halogen bonding:                               0.00000000000000
  Electronic entropic energy:                                  -0.00000000000000
  Fermi energy:                                                -0.21273072835034

  Total energy:                                               -40.47375932689127
  Total energy (extrapolated to T->0):                        -40.47375932689127


 MULLIKEN POPULATION ANALYSIS

  # Atom   Element   Kind        Atomic population                    Net charge
       1     C          1                 4.286003                     -0.286003
       2     H          2                 0.928499                      0.071501
       3     H          2                 0.928499                      0.071501
       4     H          2                 0.928499                      0.071501
       5     H          2                 0.928499                      0.071501
 # Total charge                           8.000000                      0.000000


 ENERGY| Total FORCE_EVAL ( QS ) energy [hartree]            -40.473759326891269

 DEBUG|           E(xx + 0.0001)           E(xx - 0.0001)           f(numerical)
 DEBUG|             -40.47375699             -40.47375933             0.01167728

 -------------------------------------------------------------------------------
 ----                             MULTIGRID INFO                            ----
 -------------------------------------------------------------------------------
 total grid count     :           420              cutoff [a.u.]            1.00

 PW_GRID| Information for grid number                                          4
 PW_GRID| Cutoff [a.u.]                                                      1.0
 PW_GRID| spherical cutoff:                                                   NO
 PW_GRID|   Bounds   1             -4       3                Points:           8
 PW_GRID|   Bounds   2             -4       3                Points:           8
 PW_GRID|   Bounds   3             -4       3                Points:           8
 PW_GRID| Volume element (a.u.^3)   6.748         Volume (a.u.^3)      3455.1473
 PW_GRID| Grid span                                                    FULLSPACE

 POISSON| Solver                                                        PERIODIC
 POISSON| Periodicity                                                        XYZ

 RS_GRID| Information for grid number                                          4
 RS_GRID|   Bounds   1             -4       3                Points:           8
 RS_GRID|   Bounds   2             -4       3                Points:           8
 RS_GRID|   Bounds   3             -4       3                Points:           8

 Parameters for the always stable predictor-corrector (ASPC) method:
  ASPC order: 1
  B(1) =   2.500000
  B(2) =  -2.000000
  B(3) =   0.500000

 Extrapolation method: ASPC

 Number of electrons:                                                          8
 Number of occupied orbitals:                                                  4
 Number of molecular orbitals:                                                 8

 Number of orbital functions:                                                  8
 Number of independent orbital functions:                                      8


 SCF WAVEFUNCTION OPTIMIZATION

  Step     Update method      Time    Convergence         Total energy    Change
  ------------------------------------------------------------------------------
     1 GXTB-Raw    0.10E+01    0.1     0.00000137       -40.4737581592 -4.05E+01
     2 GXTB-Simple 0.20E+00    0.1     0.00000010       -40.4737581592 -4.26E-14
     3 GXTB-Simple 0.20E+00    0.1     0.00000007       -40.4737581592 -2.84E-14
     4 GXTB-FDIIS  0.10E+01    0.1     0.00000023       -40.4737581592 -4.97E-14
     5 GXTB-FDIIS  0.10E+01    0.1     0.00000001       -40.4737581592 -7.11E-15
     6 GXTB-FDIIS  0.10E+01    0.1     8.6194E-10       -40.4737581592  7.11E-15
     7 GXTB-FDIIS  0.10E+01    0.1     5.7241E-11       -40.4737581592 -7.11E-15

  *** SCF run converged in     7 steps ***


  Core Hamiltonian energy:                                     -3.07154157743238
  Repulsive potential energy:                                   0.37448426637355
  Electrostatic energy:                                         0.01774355862648
  Self-consistent dispersion energy:                           -0.00112258111388
  Non-self consistent dispersion energy:                        0.00003895111946
  Correction for halogen bonding:                               0.00000000000000
  Electronic entropic energy:                                  -0.00000000000000
  Fermi energy:                                                -0.21273122943945

  Total energy:                                               -40.47375815916855
  Total energy (extrapolated to T->0):                        -40.47375815916855


 MULLIKEN POPULATION ANALYSIS

  # Atom   Element   Kind        Atomic population                    Net charge
       1     C          1                 4.286001                     -0.286001
       2     H          2                 0.928500                      0.071500
       3     H          2                 0.928499                      0.071501
       4     H          2                 0.928499                      0.071501
       5     H          2                 0.928500                      0.071500
 # Total charge                           8.000000                      0.000000


 ENERGY| Total FORCE_EVAL ( QS ) energy [hartree]            -40.473758159168554

 -------------------------------------------------------------------------------
 ----                             MULTIGRID INFO                            ----
 -------------------------------------------------------------------------------
 total grid count     :           420              cutoff [a.u.]            1.00

 PW_GRID| Information for grid number                                          5
 PW_GRID| Cutoff [a.u.]                                                      1.0
 PW_GRID| spherical cutoff:                                                   NO
 PW_GRID|   Bounds   1             -4       3                Points:           8
 PW_GRID|   Bounds   2             -4       3                Points:           8
 PW_GRID|   Bounds   3             -4       3                Points:           8
 PW_GRID| Volume element (a.u.^3)   6.748         Volume (a.u.^3)      3455.1473
 PW_GRID| Grid span                                                    FULLSPACE

 POISSON| Solver                                                        PERIODIC
 POISSON| Periodicity                                                        XYZ

 RS_GRID| Information for grid number                                          5
 RS_GRID|   Bounds   1             -4       3                Points:           8
 RS_GRID|   Bounds   2             -4       3                Points:           8
 RS_GRID|   Bounds   3             -4       3                Points:           8

 Parameters for the always stable predictor-corrector (ASPC) method:
  ASPC order: 2
  B(1) =   2.800000
  B(2) =  -2.800000
  B(3) =   1.200000
  B(4) =  -0.200000

 Extrapolation method: ASPC

 Number of electrons:                                                          8
 Number of occupied orbitals:                                                  4
 Number of molecular orbitals:                                                 8

 Number of orbital functions:                                                  8
 Number of independent orbital functions:                                      8


 SCF WAVEFUNCTION OPTIMIZATION

  Step     Update method      Time    Convergence         Total energy    Change
  ------------------------------------------------------------------------------
     1 GXTB-Raw    0.10E+01    0.1     0.00000188       -40.4737581592 -4.05E+01
     2 GXTB-Simple 0.20E+00    0.1     0.00000007       -40.4737581592 -7.11E-14
     3 GXTB-Simple 0.20E+00    0.1     0.00000005       -40.4737581592 -5.68E-14
     4 GXTB-FDIIS  0.10E+01    0.1     0.00000027       -40.4737581592 -1.14E-13
     5 GXTB-FDIIS  0.10E+01    0.1     8.7259E-09       -40.4737581592  0.00E+00
     6 GXTB-FDIIS  0.10E+01    0.1     6.5651E-11       -40.4737581592  0.00E+00

  *** SCF run converged in     6 steps ***


  Core Hamiltonian energy:                                     -3.07154157743240
  Repulsive potential energy:                                   0.37448426637355
  Electrostatic energy:                                         0.01774355862648
  Self-consistent dispersion energy:                           -0.00112258111388
  Non-self consistent dispersion energy:                        0.00003895111946
  Correction for halogen bonding:                               0.00000000000000
  Electronic entropic energy:                                  -0.00000000000000
  Fermi energy:                                                -0.21273122943934

  Total energy:                                               -40.47375815916855
  Total energy (extrapolated to T->0):                        -40.47375815916855


 MULLIKEN POPULATION ANALYSIS

  # Atom   Element   Kind        Atomic population                    Net charge
       1     C          1                 4.286001                     -0.286001
       2     H          2                 0.928499                      0.071501
       3     H          2                 0.928500                      0.071500
       4     H          2                 0.928500                      0.071500
       5     H          2                 0.928499                      0.071501
 # Total charge                           8.000000                      0.000000


 ENERGY| Total FORCE_EVAL ( QS ) energy [hartree]            -40.473758159168547

 DEBUG|           E(xy + 0.0001)           E(xy - 0.0001)           f(numerical)
 DEBUG|             -40.47375816             -40.47375816            -0.00000000

 -------------------------------------------------------------------------------
 ----                             MULTIGRID INFO                            ----
 -------------------------------------------------------------------------------
 total grid count     :           420              cutoff [a.u.]            1.00

 PW_GRID| Information for grid number                                          6
 PW_GRID| Cutoff [a.u.]                                                      1.0
 PW_GRID| spherical cutoff:                                                   NO
 PW_GRID|   Bounds   1             -4       3                Points:           8
 PW_GRID|   Bounds   2             -4       3                Points:           8
 PW_GRID|   Bounds   3             -4       3                Points:           8
 PW_GRID| Volume element (a.u.^3)   6.748         Volume (a.u.^3)      3455.1473
 PW_GRID| Grid span                                                    FULLSPACE

 POISSON| Solver                                                        PERIODIC
 POISSON| Periodicity                                                        XYZ

 RS_GRID| Information for grid number                                          6
 RS_GRID|   Bounds   1             -4       3                Points:           8
 RS_GRID|   Bounds   2             -4       3                Points:           8
 RS_GRID|   Bounds   3             -4       3                Points:           8

 Parameters for the always stable predictor-corrector (ASPC) method:
  ASPC order: 3
  B(1) =   3.000000
  B(2) =  -3.428571
  B(3) =   1.928571
  B(4) =  -0.571429
  B(5) =   0.071429

 Extrapolation method: ASPC

 Number of electrons:                                                          8
 Number of occupied orbitals:                                                  4
 Number of molecular orbitals:                                                 8

 Number of orbital functions:                                                  8
 Number of independent orbital functions:                                      8


 SCF WAVEFUNCTION OPTIMIZATION

  Step     Update method      Time    Convergence         Total energy    Change
  ------------------------------------------------------------------------------
     1 GXTB-Raw    0.10E+01    0.1     0.00000188       -40.4737581592 -4.05E+01
     2 GXTB-Simple 0.20E+00    0.1     0.00000007       -40.4737581592 -3.55E-14
     3 GXTB-Simple 0.20E+00    0.1     0.00000005       -40.4737581592 -2.13E-14
     4 GXTB-FDIIS  0.10E+01    0.1     0.00000027       -40.4737581592 -6.39E-14
     5 GXTB-FDIIS  0.10E+01    0.1     8.7259E-09       -40.4737581592  7.11E-15
     6 GXTB-FDIIS  0.10E+01    0.1     6.5648E-11       -40.4737581592 -7.11E-15

  *** SCF run converged in     6 steps ***


  Core Hamiltonian energy:                                     -3.07154157743239
  Repulsive potential energy:                                   0.37448426637355
  Electrostatic energy:                                         0.01774355862646
  Self-consistent dispersion energy:                           -0.00112258111388
  Non-self consistent dispersion energy:                        0.00003895111946
  Correction for halogen bonding:                               0.00000000000000
  Electronic entropic energy:                                  -0.00000000000000
  Fermi energy:                                                -0.21273122943928

  Total energy:                                               -40.47375815916855
  Total energy (extrapolated to T->0):                        -40.47375815916855


 MULLIKEN POPULATION ANALYSIS

  # Atom   Element   Kind        Atomic population                    Net charge
       1     C          1                 4.286001                     -0.286001
       2     H          2                 0.928500                      0.071500
       3     H          2                 0.928499                      0.071501
       4     H          2                 0.928500                      0.071500
       5     H          2                 0.928499                      0.071501
 # Total charge                           8.000000                      0.000000


 ENERGY| Total FORCE_EVAL ( QS ) energy [hartree]            -40.473758159168554

 -------------------------------------------------------------------------------
 ----                             MULTIGRID INFO                            ----
 -------------------------------------------------------------------------------
 total grid count     :           420              cutoff [a.u.]            1.00

 PW_GRID| Information for grid number                                          7
 PW_GRID| Cutoff [a.u.]                                                      1.0
 PW_GRID| spherical cutoff:                                                   NO
 PW_GRID|   Bounds   1             -4       3                Points:           8
 PW_GRID|   Bounds   2             -4       3                Points:           8
 PW_GRID|   Bounds   3             -4       3                Points:           8
 PW_GRID| Volume element (a.u.^3)   6.748         Volume (a.u.^3)      3455.1473
 PW_GRID| Grid span                                                    FULLSPACE

 POISSON| Solver                                                        PERIODIC
 POISSON| Periodicity                                                        XYZ

 RS_GRID| Information for grid number                                          7
 RS_GRID|   Bounds   1             -4       3                Points:           8
 RS_GRID|   Bounds   2             -4       3                Points:           8
 RS_GRID|   Bounds   3             -4       3                Points:           8

 Parameters for the always stable predictor-corrector (ASPC) method:
  ASPC order: 3
  B(1) =   3.000000
  B(2) =  -3.428571
  B(3) =   1.928571
  B(4) =  -0.571429
  B(5) =   0.071429

 Extrapolation method: ASPC

 Number of electrons:                                                          8
 Number of occupied orbitals:                                                  4
 Number of molecular orbitals:                                                 8

 Number of orbital functions:                                                  8
 Number of independent orbital functions:                                      8


 SCF WAVEFUNCTION OPTIMIZATION

  Step     Update method      Time    Convergence         Total energy    Change
  ------------------------------------------------------------------------------
     1 GXTB-Raw    0.10E+01    0.1     0.00000188       -40.4737581592 -4.05E+01
     2 GXTB-Simple 0.20E+00    0.1     0.00000007       -40.4737581592 -8.53E-14
     3 GXTB-Simple 0.20E+00    0.1     0.00000005       -40.4737581592 -4.97E-14
     4 GXTB-FDIIS  0.10E+01    0.1     0.00000027       -40.4737581592 -1.14E-13
     5 GXTB-FDIIS  0.10E+01    0.1     8.7259E-09       -40.4737581592  0.00E+00
     6 GXTB-FDIIS  0.10E+01    0.1     6.5651E-11       -40.4737581592  0.00E+00

  *** SCF run converged in     6 steps ***


  Core Hamiltonian energy:                                     -3.07154157743241
  Repulsive potential energy:                                   0.37448426637355
  Electrostatic energy:                                         0.01774355862648
  Self-consistent dispersion energy:                           -0.00112258111388
  Non-self consistent dispersion energy:                        0.00003895111946
  Correction for halogen bonding:                               0.00000000000000
  Electronic entropic energy:                                  -0.00000000000000
  Fermi energy:                                                -0.21273122943934

  Total energy:                                               -40.47375815916855
  Total energy (extrapolated to T->0):                        -40.47375815916855


 MULLIKEN POPULATION ANALYSIS

  # Atom   Element   Kind        Atomic population                    Net charge
       1     C          1                 4.286001                     -0.286001
       2     H          2                 0.928499                      0.071501
       3     H          2                 0.928500                      0.071500
       4     H          2                 0.928499                      0.071501
       5     H          2                 0.928500                      0.071500
 # Total charge                           8.000000                      0.000000


 ENERGY| Total FORCE_EVAL ( QS ) energy [hartree]            -40.473758159168547

 DEBUG|           E(xz + 0.0001)           E(xz - 0.0001)           f(numerical)
 DEBUG|             -40.47375816             -40.47375816            -0.00000000

 -------------------------------------------------------------------------------
 ----                             MULTIGRID INFO                            ----
 -------------------------------------------------------------------------------
 total grid count     :           420              cutoff [a.u.]            1.00

 PW_GRID| Information for grid number                                          8
 PW_GRID| Cutoff [a.u.]                                                      1.0
 PW_GRID| spherical cutoff:                                                   NO
 PW_GRID|   Bounds   1             -4       3                Points:           8
 PW_GRID|   Bounds   2             -4       3                Points:           8
 PW_GRID|   Bounds   3             -4       3                Points:           8
 PW_GRID| Volume element (a.u.^3)   6.748         Volume (a.u.^3)      3455.1473
 PW_GRID| Grid span                                                    FULLSPACE

 POISSON| Solver                                                        PERIODIC
 POISSON| Periodicity                                                        XYZ

 RS_GRID| Information for grid number                                          8
 RS_GRID|   Bounds   1             -4       3                Points:           8
 RS_GRID|   Bounds   2             -4       3                Points:           8
 RS_GRID|   Bounds   3             -4       3                Points:           8

 Parameters for the always stable predictor-corrector (ASPC) method:
  ASPC order: 3
  B(1) =   3.000000
  B(2) =  -3.428571
  B(3) =   1.928571
  B(4) =  -0.571429
  B(5) =   0.071429

 Extrapolation method: ASPC

 Number of electrons:                                                          8
 Number of occupied orbitals:                                                  4
 Number of molecular orbitals:                                                 8

 Number of orbital functions:                                                  8
 Number of independent orbital functions:                                      8


 SCF WAVEFUNCTION OPTIMIZATION

  Step     Update method      Time    Convergence         Total energy    Change
  ------------------------------------------------------------------------------
     1 GXTB-Raw    0.10E+01    0.1     0.00000186       -40.4737581592 -4.05E+01
     2 GXTB-Simple 0.20E+00    0.1     0.00000007       -40.4737581592 -3.55E-14
     3 GXTB-Simple 0.20E+00    0.1     0.00000005       -40.4737581592 -2.13E-14
     4 GXTB-FDIIS  0.10E+01    0.1     0.00000027       -40.4737581592 -6.39E-14
     5 GXTB-FDIIS  0.10E+01    0.1     8.6838E-09       -40.4737581592  7.11E-15
     6 GXTB-FDIIS  0.10E+01    0.1     6.5648E-11       -40.4737581592 -7.11E-15

  *** SCF run converged in     6 steps ***


  Core Hamiltonian energy:                                     -3.07154157743239
  Repulsive potential energy:                                   0.37448426637355
  Electrostatic energy:                                         0.01774355862646
  Self-consistent dispersion energy:                           -0.00112258111388
  Non-self consistent dispersion energy:                        0.00003895111946
  Correction for halogen bonding:                               0.00000000000000
  Electronic entropic energy:                                  -0.00000000000000
  Fermi energy:                                                -0.21273122943927

  Total energy:                                               -40.47375815916855
  Total energy (extrapolated to T->0):                        -40.47375815916855


 MULLIKEN POPULATION ANALYSIS

  # Atom   Element   Kind        Atomic population                    Net charge
       1     C          1                 4.286001                     -0.286001
       2     H          2                 0.928500                      0.071500
       3     H          2                 0.928499                      0.071501
       4     H          2                 0.928499                      0.071501
       5     H          2                 0.928500                      0.071500
 # Total charge                           8.000000                      0.000000


 ENERGY| Total FORCE_EVAL ( QS ) energy [hartree]            -40.473758159168554

 -------------------------------------------------------------------------------
 ----                             MULTIGRID INFO                            ----
 -------------------------------------------------------------------------------
 total grid count     :           420              cutoff [a.u.]            1.00

 PW_GRID| Information for grid number                                          9
 PW_GRID| Cutoff [a.u.]                                                      1.0
 PW_GRID| spherical cutoff:                                                   NO
 PW_GRID|   Bounds   1             -4       3                Points:           8
 PW_GRID|   Bounds   2             -4       3                Points:           8
 PW_GRID|   Bounds   3             -4       3                Points:           8
 PW_GRID| Volume element (a.u.^3)   6.748         Volume (a.u.^3)      3455.1473
 PW_GRID| Grid span                                                    FULLSPACE

 POISSON| Solver                                                        PERIODIC
 POISSON| Periodicity                                                        XYZ

 RS_GRID| Information for grid number                                          9
 RS_GRID|   Bounds   1             -4       3                Points:           8
 RS_GRID|   Bounds   2             -4       3                Points:           8
 RS_GRID|   Bounds   3             -4       3                Points:           8

 Parameters for the always stable predictor-corrector (ASPC) method:
  ASPC order: 3
  B(1) =   3.000000
  B(2) =  -3.428571
  B(3) =   1.928571
  B(4) =  -0.571429
  B(5) =   0.071429

 Extrapolation method: ASPC

 Number of electrons:                                                          8
 Number of occupied orbitals:                                                  4
 Number of molecular orbitals:                                                 8

 Number of orbital functions:                                                  8
 Number of independent orbital functions:                                      8


 SCF WAVEFUNCTION OPTIMIZATION

  Step     Update method      Time    Convergence         Total energy    Change
  ------------------------------------------------------------------------------
     1 GXTB-Raw    0.10E+01    0.1     0.00000188       -40.4737581592 -4.05E+01
     2 GXTB-Simple 0.20E+00    0.1     0.00000007       -40.4737581592 -8.53E-14
     3 GXTB-Simple 0.20E+00    0.1     0.00000005       -40.4737581592 -4.97E-14
     4 GXTB-FDIIS  0.10E+01    0.1     0.00000027       -40.4737581592 -1.14E-13
     5 GXTB-FDIIS  0.10E+01    0.1     8.7259E-09       -40.4737581592  0.00E+00
     6 GXTB-FDIIS  0.10E+01    0.1     6.5652E-11       -40.4737581592  0.00E+00

  *** SCF run converged in     6 steps ***


  Core Hamiltonian energy:                                     -3.07154157743240
  Repulsive potential energy:                                   0.37448426637355
  Electrostatic energy:                                         0.01774355862648
  Self-consistent dispersion energy:                           -0.00112258111388
  Non-self consistent dispersion energy:                        0.00003895111946
  Correction for halogen bonding:                               0.00000000000000
  Electronic entropic energy:                                  -0.00000000000000
  Fermi energy:                                                -0.21273122943934

  Total energy:                                               -40.47375815916855
  Total energy (extrapolated to T->0):                        -40.47375815916855


 MULLIKEN POPULATION ANALYSIS

  # Atom   Element   Kind        Atomic population                    Net charge
       1     C          1                 4.286001                     -0.286001
       2     H          2                 0.928499                      0.071501
       3     H          2                 0.928500                      0.071500
       4     H          2                 0.928500                      0.071500
       5     H          2                 0.928499                      0.071501
 # Total charge                           8.000000                      0.000000


 ENERGY| Total FORCE_EVAL ( QS ) energy [hartree]            -40.473758159168547

 DEBUG|           E(yx + 0.0001)           E(yx - 0.0001)           f(numerical)
 DEBUG|             -40.47375816             -40.47375816            -0.00000000

 -------------------------------------------------------------------------------
 ----                             MULTIGRID INFO                            ----
 -------------------------------------------------------------------------------
 total grid count     :           420              cutoff [a.u.]            1.00

 PW_GRID| Information for grid number                                         10
 PW_GRID| Cutoff [a.u.]                                                      1.0
 PW_GRID| spherical cutoff:                                                   NO
 PW_GRID|   Bounds   1             -4       3                Points:           8
 PW_GRID|   Bounds   2             -4       3                Points:           8
 PW_GRID|   Bounds   3             -4       3                Points:           8
 PW_GRID| Volume element (a.u.^3)   6.748         Volume (a.u.^3)      3455.1702
 PW_GRID| Grid span                                                    FULLSPACE

 POISSON| Solver                                                        PERIODIC
 POISSON| Periodicity                                                        XYZ

 RS_GRID| Information for grid number                                         10
 RS_GRID|   Bounds   1             -4       3                Points:           8
 RS_GRID|   Bounds   2             -4       3                Points:           8
 RS_GRID|   Bounds   3             -4       3                Points:           8

 Parameters for the always stable predictor-corrector (ASPC) method:
  ASPC order: 3
  B(1) =   3.000000
  B(2) =  -3.428571
  B(3) =   1.928571
  B(4) =  -0.571429
  B(5) =   0.071429

 Extrapolation method: ASPC

 Number of electrons:                                                          8
 Number of occupied orbitals:                                                  4
 Number of molecular orbitals:                                                 8

 Number of orbital functions:                                                  8
 Number of independent orbital functions:                                      8


 SCF WAVEFUNCTION OPTIMIZATION

  Step     Update method      Time    Convergence         Total energy    Change
  ------------------------------------------------------------------------------
     1 GXTB-Raw    0.10E+01    0.1     0.53884553       -40.4716486849 -4.05E+01
     2 GXTB-Simple 0.20E+00    0.1     0.01265406       -40.4726745093 -1.03E-03
     3 GXTB-Simple 0.20E+00    0.1     0.00900901       -40.4731984203 -5.24E-04
     4 GXTB-FDIIS  0.10E+01    0.1     0.02206943       -40.4737543523 -5.56E-04
     5 GXTB-FDIIS  0.10E+01    0.1     0.00159255       -40.4737569859 -2.63E-06
     6 GXTB-FDIIS  0.10E+01    0.1     0.00017742       -40.4737569913 -5.47E-09
     7 GXTB-FDIIS  0.10E+01    0.1     0.00000930       -40.4737569914 -8.61E-11
     8 GXTB-FDIIS  0.10E+01    0.1     0.00000256       -40.4737569914 -2.85E-12
     9 GXTB-FDIIS  0.10E+01    0.1     0.00000004       -40.4737569914 -7.11E-15
    10 GXTB-FDIIS  0.10E+01    0.1     2.2616E-10       -40.4737569914  0.00E+00
    11 GXTB-FDIIS  0.10E+01    0.1     2.7289E-13       -40.4737569914  7.11E-15

  *** SCF run converged in    11 steps ***


  Core Hamiltonian energy:                                     -3.07153977226014
  Repulsive potential energy:                                   0.37448025722473
  Electrostatic energy:                                         0.01774301934580
  Self-consistent dispersion energy:                           -0.00112258865698
  Non-self consistent dispersion energy:                        0.00003895138934
  Correction for halogen bonding:                               0.00000000000000
  Electronic entropic energy:                                  -0.00000000000000
  Fermi energy:                                                -0.21273126822123

  Total energy:                                               -40.47375699143591
  Total energy (extrapolated to T->0):                        -40.47375699143591


 MULLIKEN POPULATION ANALYSIS

  # Atom   Element   Kind        Atomic population                    Net charge
       1     C          1                 4.285999                     -0.285999
       2     H          2                 0.928500                      0.071500
       3     H          2                 0.928500                      0.071500
       4     H          2                 0.928500                      0.071500
       5     H          2                 0.928500                      0.071500
 # Total charge                           8.000000                      0.000000


 ENERGY| Total FORCE_EVAL ( QS ) energy [hartree]            -40.473756991435906

 -------------------------------------------------------------------------------
 ----                             MULTIGRID INFO                            ----
 -------------------------------------------------------------------------------
 total grid count     :           420              cutoff [a.u.]            1.00

 PW_GRID| Information for grid number                                         11
 PW_GRID| Cutoff [a.u.]                                                      1.0
 PW_GRID| spherical cutoff:                                                   NO
 PW_GRID|   Bounds   1             -4       3                Points:           8
 PW_GRID|   Bounds   2             -4       3                Points:           8
 PW_GRID|   Bounds   3             -4       3                Points:           8
 PW_GRID| Volume element (a.u.^3)   6.748         Volume (a.u.^3)      3455.1245
 PW_GRID| Grid span                                                    FULLSPACE

 POISSON| Solver                                                        PERIODIC
 POISSON| Periodicity                                                        XYZ

 RS_GRID| Information for grid number                                         11
 RS_GRID|   Bounds   1             -4       3                Points:           8
 RS_GRID|   Bounds   2             -4       3                Points:           8
 RS_GRID|   Bounds   3             -4       3                Points:           8

 Parameters for the always stable predictor-corrector (ASPC) method:
  ASPC order: 3
  B(1) =   3.000000
  B(2) =  -3.428571
  B(3) =   1.928571
  B(4) =  -0.571429
  B(5) =   0.071429

 Extrapolation method: ASPC

 Number of electrons:                                                          8
 Number of occupied orbitals:                                                  4
 Number of molecular orbitals:                                                 8

 Number of orbital functions:                                                  8
 Number of independent orbital functions:                                      8


 SCF WAVEFUNCTION OPTIMIZATION

  Step     Update method      Time    Convergence         Total energy    Change
  ------------------------------------------------------------------------------
     1 GXTB-Raw    0.10E+01    0.1     0.00000238       -40.4737593269 -4.05E+01
     2 GXTB-Simple 0.20E+00    0.1     0.00000020       -40.4737593269 -1.21E-13
     3 GXTB-Simple 0.20E+00    0.1     0.00000015       -40.4737593269 -6.39E-14
     4 GXTB-FDIIS  0.10E+01    0.1     0.00000047       -40.4737593269 -7.11E-14
     5 GXTB-FDIIS  0.10E+01    0.1     0.00000003       -40.4737593269 -7.11E-15
     6 GXTB-FDIIS  0.10E+01    0.1     3.5399E-10       -40.4737593269  0.00E+00
     7 GXTB-FDIIS  0.10E+01    0.1     2.7921E-13       -40.4737593269  0.00E+00

  *** SCF run converged in     7 steps ***


  Core Hamiltonian energy:                                     -3.07154338260201
  Repulsive potential energy:                                   0.37448827552305
  Electrostatic energy:                                         0.01774409791352
  Self-consistent dispersion energy:                           -0.00112257357073
  Non-self consistent dispersion energy:                        0.00003895084958
  Correction for halogen bonding:                               0.00000000000000
  Electronic entropic energy:                                  -0.00000000000000
  Fermi energy:                                                -0.21273072835034

  Total energy:                                               -40.47375932689127
  Total energy (extrapolated to T->0):                        -40.47375932689127


 MULLIKEN POPULATION ANALYSIS

  # Atom   Element   Kind        Atomic population                    Net charge
       1     C          1                 4.286003                     -0.286003
       2     H          2                 0.928499                      0.071501
       3     H          2                 0.928499                      0.071501
       4     H          2                 0.928499                      0.071501
       5     H          2                 0.928499                      0.071501
 # Total charge                           8.000000                      0.000000


 ENERGY| Total FORCE_EVAL ( QS ) energy [hartree]            -40.473759326891269

 DEBUG|           E(yy + 0.0001)           E(yy - 0.0001)           f(numerical)
 DEBUG|             -40.47375699             -40.47375933             0.01167728

 -------------------------------------------------------------------------------
 ----                             MULTIGRID INFO                            ----
 -------------------------------------------------------------------------------
 total grid count     :           420              cutoff [a.u.]            1.00

 PW_GRID| Information for grid number                                         12
 PW_GRID| Cutoff [a.u.]                                                      1.0
 PW_GRID| spherical cutoff:                                                   NO
 PW_GRID|   Bounds   1             -4       3                Points:           8
 PW_GRID|   Bounds   2             -4       3                Points:           8
 PW_GRID|   Bounds   3             -4       3                Points:           8
 PW_GRID| Volume element (a.u.^3)   6.748         Volume (a.u.^3)      3455.1473
 PW_GRID| Grid span                                                    FULLSPACE

 POISSON| Solver                                                        PERIODIC
 POISSON| Periodicity                                                        XYZ

 RS_GRID| Information for grid number                                         12
 RS_GRID|   Bounds   1             -4       3                Points:           8
 RS_GRID|   Bounds   2             -4       3                Points:           8
 RS_GRID|   Bounds   3             -4       3                Points:           8

 Parameters for the always stable predictor-corrector (ASPC) method:
  ASPC order: 3
  B(1) =   3.000000
  B(2) =  -3.428571
  B(3) =   1.928571
  B(4) =  -0.571429
  B(5) =   0.071429

 Extrapolation method: ASPC

 Number of electrons:                                                          8
 Number of occupied orbitals:                                                  4
 Number of molecular orbitals:                                                 8

 Number of orbital functions:                                                  8
 Number of independent orbital functions:                                      8


 SCF WAVEFUNCTION OPTIMIZATION

  Step     Update method      Time    Convergence         Total energy    Change
  ------------------------------------------------------------------------------
     1 GXTB-Raw    0.10E+01    0.1     0.53884372       -40.4716498411 -4.05E+01
     2 GXTB-Simple 0.20E+00    0.1     0.01265410       -40.4726756714 -1.03E-03
     3 GXTB-Simple 0.20E+00    0.1     0.00900904       -40.4731995852 -5.24E-04
     4 GXTB-FDIIS  0.10E+01    0.1     0.02206948       -40.4737555199 -5.56E-04
     5 GXTB-FDIIS  0.10E+01    0.1     0.00159258       -40.4737581536 -2.63E-06
     6 GXTB-FDIIS  0.10E+01    0.1     0.00017742       -40.4737581591 -5.47E-09
     7 GXTB-FDIIS  0.10E+01    0.1     0.00000930       -40.4737581592 -8.61E-11
     8 GXTB-FDIIS  0.10E+01    0.1     0.00000256       -40.4737581592 -2.85E-12
     9 GXTB-FDIIS  0.10E+01    0.1     0.00000004       -40.4737581592  0.00E+00
    10 GXTB-FDIIS  0.10E+01    0.1     2.2584E-09       -40.4737581592 -7.11E-15
    11 GXTB-FDIIS  0.10E+01    0.1     6.6280E-14       -40.4737581592  7.11E-15

  *** SCF run converged in    11 steps ***


  Core Hamiltonian energy:                                     -3.07154157743238
  Repulsive potential energy:                                   0.37448426637355
  Electrostatic energy:                                         0.01774355862645
  Self-consistent dispersion energy:                           -0.00112258111388
  Non-self consistent dispersion energy:                        0.00003895111946
  Correction for halogen bonding:                               0.00000000000000
  Electronic entropic energy:                                  -0.00000000000000
  Fermi energy:                                                -0.21273122943921

  Total energy:                                               -40.47375815916855
  Total energy (extrapolated to T->0):                        -40.47375815916855


 MULLIKEN POPULATION ANALYSIS

  # Atom   Element   Kind        Atomic population                    Net charge
       1     C          1                 4.286001                     -0.286001
       2     H          2                 0.928500                      0.071500
       3     H          2                 0.928500                      0.071500
       4     H          2                 0.928499                      0.071501
       5     H          2                 0.928499                      0.071501
 # Total charge                           8.000000                      0.000000


 ENERGY| Total FORCE_EVAL ( QS ) energy [hartree]            -40.473758159168547

 -------------------------------------------------------------------------------
 ----                             MULTIGRID INFO                            ----
 -------------------------------------------------------------------------------
 total grid count     :           420              cutoff [a.u.]            1.00

 PW_GRID| Information for grid number                                         13
[...]


 MULLIKEN POPULATION ANALYSIS

  # Atom   Element   Kind        Atomic population                    Net charge
       1     C          1                 4.286001                     -0.286001
       2     H          2                 0.928500                      0.071500
       3     H          2                 0.928500                      0.071500
       4     H          2                 0.928500                      0.071500
       5     H          2                 0.928500                      0.071500
 # Total charge                           8.000000                      0.000000


 ENERGY| Total FORCE_EVAL ( QS ) energy [hartree]            -40.473758159181230

 FORCES| Atomic forces [hartree/bohr]
 FORCES|   Atom     x               y               z               |f|
 FORCES|      1  2.02798546E-16  9.92121032E-17  1.39290204E-16   2.65277312E-16
 FORCES|      2 -3.20262835E-02 -3.20262835E-02 -3.20262835E-02   5.54711502E-02
 FORCES|      3 -3.20262835E-02  3.20262835E-02  3.20262835E-02   5.54711502E-02
 FORCES|      4  3.20262835E-02 -3.20262835E-02  3.20262835E-02   5.54711502E-02
 FORCES|      5  3.20262835E-02  3.20262835E-02 -3.20262835E-02   5.54711502E-02
 FORCES| Sum     2.77555756E-17 -1.38777878E-17  5.55111512E-17
 FORCES| Total atomic force                                       6.35960131E-17


 MODULE DEBUG: ATOMIC COORDINATES IN ANGSTROM

   Atom Kind Element         X             Y             Z       Z(eff)     Mass
      1    1 C     6      4.000000      4.000000      4.000000   4.0000  12.0107
      2    2 H     1      4.692873      4.692820      4.692820   1.0000   1.0079
      3    2 H     1      4.692820      3.307180      3.307180   1.0000   1.0079
      4    2 H     1      3.307180      4.692820      3.307180   1.0000   1.0079
      5    2 H     1      3.307180      3.307180      4.692820   1.0000   1.0079


 Parameters for the always stable predictor-corrector (ASPC) method:
  ASPC order: 3
  B(1) =   3.000000
  B(2) =  -3.428571
  B(3) =   1.928571
  B(4) =  -0.571429
  B(5) =   0.071429

 Extrapolation method: ASPC

 Number of electrons:                                                          8
 Number of occupied orbitals:                                                  4
 Number of molecular orbitals:                                                 8

 Number of orbital functions:                                                  8
 Number of independent orbital functions:                                      8


 SCF WAVEFUNCTION OPTIMIZATION

  Step     Update method      Time    Convergence         Total energy    Change
  ------------------------------------------------------------------------------
     1 GXTB-Raw    0.10E+01    0.1     0.00000816       -40.4737549561 -4.05E+01
     2 GXTB-Simple 0.20E+00    0.1     0.00000026       -40.4737549561 -5.83E-13
     3 GXTB-Simple 0.20E+00    0.1     0.00000020       -40.4737549561 -3.77E-13
     4 GXTB-FDIIS  0.10E+01    0.1     0.00000088       -40.4737549561 -7.11E-13
     5 GXTB-FDIIS  0.10E+01    0.1     0.00000006       -40.4737549561  0.00E+00
     6 GXTB-FDIIS  0.10E+01    0.1     7.3101E-09       -40.4737549561 -7.11E-15
     7 GXTB-FDIIS  0.10E+01    0.1     3.5194E-10       -40.4737549561  0.00E+00
     8 GXTB-FDIIS  0.10E+01    0.1     6.7314E-12       -40.4737549561  0.00E+00

  *** SCF run converged in     8 steps ***


  Core Hamiltonian energy:                                     -3.07153647370845
  Repulsive potential energy:                                   0.37447269416393
  Electrostatic energy:                                         0.01774211295711
  Self-consistent dispersion energy:                           -0.00112260425293
  Non-self consistent dispersion energy:                        0.00003895194201
  Correction for halogen bonding:                               0.00000000000000
  Electronic entropic energy:                                  -0.00000000000000
  Fermi energy:                                                -0.21272884247602

  Total energy:                                               -40.47375495607868
  Total energy (extrapolated to T->0):                        -40.47375495607868


 MULLIKEN POPULATION ANALYSIS

  # Atom   Element   Kind        Atomic population                    Net charge
       1     C          1                 4.285996                     -0.285996
       2     H          2                 0.928506                      0.071494
       3     H          2                 0.928501                      0.071499
       4     H          2                 0.928499                      0.071501
       5     H          2                 0.928499                      0.071501
 # Total charge                           8.000000                      0.000000


 ENERGY| Total FORCE_EVAL ( QS ) energy [hartree]            -40.473754956078679


 MODULE DEBUG: ATOMIC COORDINATES IN ANGSTROM

   Atom Kind Element         X             Y             Z       Z(eff)     Mass
      1    1 C     6      4.000000      4.000000      4.000000   4.0000  12.0107
      2    2 H     1      4.692767      4.692820      4.692820   1.0000   1.0079
      3    2 H     1      4.692820      3.307180      3.307180   1.0000   1.0079
      4    2 H     1      3.307180      4.692820      3.307180   1.0000   1.0079
      5    2 H     1      3.307180      3.307180      4.692820   1.0000   1.0079


 Parameters for the always stable predictor-corrector (ASPC) method:
  ASPC order: 3
  B(1) =   3.000000
  B(2) =  -3.428571
  B(3) =   1.928571
  B(4) =  -0.571429
  B(5) =   0.071429

 Extrapolation method: ASPC

 Number of electrons:                                                          8
 Number of occupied orbitals:                                                  4
 Number of molecular orbitals:                                                 8

 Number of orbital functions:                                                  8
 Number of independent orbital functions:                                      8


 SCF WAVEFUNCTION OPTIMIZATION

  Step     Update method      Time    Convergence         Total energy    Change
  ------------------------------------------------------------------------------
     1 GXTB-Raw    0.10E+01    0.1     0.00001631       -40.4737613613 -4.05E+01
     2 GXTB-Simple 0.20E+00    0.1     0.00000052       -40.4737613613 -2.35E-12
     3 GXTB-Simple 0.20E+00    0.1     0.00000039       -40.4737613613 -1.49E-12
     4 GXTB-FDIIS  0.10E+01    0.1     0.00000175       -40.4737613613 -2.85E-12
     5 GXTB-FDIIS  0.10E+01    0.1     0.00000011       -40.4737613613 -7.11E-15
     6 GXTB-FDIIS  0.10E+01    0.1     0.00000001       -40.4737613613  0.00E+00
     7 GXTB-FDIIS  0.10E+01    0.1     7.0395E-10       -40.4737613613  0.00E+00
     8 GXTB-FDIIS  0.10E+01    0.1     1.3447E-11       -40.4737613613  0.00E+00

  *** SCF run converged in     8 steps ***


  Core Hamiltonian energy:                                     -3.07154668108689
  Repulsive potential energy:                                   0.37449583931323
  Electrostatic energy:                                         0.01774500415893
  Self-consistent dispersion energy:                           -0.00112255797597
  Non-self consistent dispersion energy:                        0.00003895029687
  Correction for halogen bonding:                               0.00000000000000
  Electronic entropic energy:                                  -0.00000000000000
  Fermi energy:                                                -0.21272238529630

  Total energy:                                               -40.47376136133535
  Total energy (extrapolated to T->0):                        -40.47376136133535


 MULLIKEN POPULATION ANALYSIS

  # Atom   Element   Kind        Atomic population                    Net charge
       1     C          1                 4.286006                     -0.286006
       2     H          2                 0.928494                      0.071506
       3     H          2                 0.928499                      0.071501
       4     H          2                 0.928501                      0.071499
       5     H          2                 0.928501                      0.071499
 # Total charge                           8.000000                      0.000000


 ENERGY| Total FORCE_EVAL ( QS ) energy [hartree]            -40.473761361335349

 DEBUG| Atom    E(x + 0.0001)    E(x - 0.0001)     f(numerical)    f(analytical)
 DEBUG|    2     -40.47375496     -40.47376136      -0.03202628      -0.03202628

 DEBUG| Atom  Coordinate   f(numerical)   f(analytical)   Difference   Error [%]
 DEBUG|    2      x         -0.03202628     -0.03202628  -0.00000000       -0.00

 DEBUG|======================== BEGIN OF SUMMARY ===============================
 DEBUG| Atom  Coordinate   f(numerical)   f(analytical)   Difference   Error [%]
 DEBUG|    2      x         -0.03202628     -0.03202628  -0.00000000       -0.00
 DEBUG| Sum of differences:                               0.00000000        0.00
 DEBUG|======================== END OF SUMMARY =================================

 -------------------------------------------------------------------------------
 -                                                                             -
 -                                DBCSR STATISTICS                             -
 -                                                                             -
 -------------------------------------------------------------------------------
 COUNTER                                    TOTAL       BLAS       SMM       ACC
 flops inhomo. stacks                           0       0.0%      0.0%      0.0%
 flops total                         0.000000E+00       0.0%      0.0%      0.0%
 flops max/rank                      0.000000E+00       0.0%      0.0%      0.0%
 matmuls inhomo. stacks                         0       0.0%      0.0%      0.0%
 matmuls total                                  0       0.0%      0.0%      0.0%
 number of processed stacks                     0       0.0%      0.0%      0.0%
 average stack size                                     0.0       0.0       0.0
 marketing flops                     0.000000E+00
 -------------------------------------------------------------------------------
 -                                                                             -
 -                      DBCSR MESSAGE PASSING PERFORMANCE                      -
 -                                                                             -
 -------------------------------------------------------------------------------
 ROUTINE             CALLS      AVE VOLUME [Bytes]
 MP_Bcast                1                     12.
 MP_Allreduce           19                     21.
 MP_Alltoall        134544                    571.
 -------------------------------------------------------------------------------

 -------------------------------------------------------------------------------
 -                                                                             -
 -                          OFFLOAD MEMPOOL STATISTICS                         -
 -                                                                             -
 -------------------------------------------------------------------------------
 Memory consumption                Number of allocations  Used [MiB]  Size [MiB]
 Host                                                  1           0           0
 -------------------------------------------------------------------------------

 MEMORY| Estimated peak process memory [MiB]                                 229

 -------------------------------------------------------------------------------
 ----                             MULTIGRID INFO                            ----
 -------------------------------------------------------------------------------
 total grid count     :           420              cutoff [a.u.]            1.00

 -------------------------------------------------------------------------------
 -                                                                             -
 -                         MESSAGE PASSING PERFORMANCE                         -
 -                                                                             -
 -------------------------------------------------------------------------------

 ROUTINE             CALLS      AVE VOLUME [Bytes]
 MP_Group               20
 MP_Bcast           134102                      7.
 MP_Allreduce      1843520                     53.
 MP_Sync                20
 MP_Wait            111600
 MP_ISend           156240                     79.
 MP_IRecv           156240                     79.
 -------------------------------------------------------------------------------


 -------------------------------------------------------------------------------
 -                                                                             -
 -                           R E F E R E N C E S                               -
 -                                                                             -
 -------------------------------------------------------------------------------
 
 CP2K version 2026.1 (Development Version), the CP2K developers group (2026).
 CP2K is freely available from https://www.cp2k.org/ .
 
 M. Iannuzzi, J. Wilhelm, F. Stein, A. Bussy, H. Elgabarty, D. Golze, A. Hehn, 
 M. Graml, S. Marek, B. Sertcan Gökmen, C. Schran, H. Forbert, R. Z. 
 Khaliullin, A. Kozhevnikov, M. Taillefumier, R. Meli, V. V. Rybkin, M. Brehm, 
 R. Schade, O. Schütt, J. V. Pototschnig, H. Mirhosseini, A. Knüpfer, D. Marx, 
 M. Krack, J. Hutter, T. D. Kühne.
 J. Phys. Chem. B 130, 1237-1310 (2026).
 The CP2K Program Package Made Simple.
 https://doi.org/10.1021/acs.jpcb.5c05851

 A. Katbashev, M. Stahn, T. Rose, V. Alizadeh, M. Friede, C. Plett, P. 
 Steinbach, S. Ehlert.
 J. Phys. Chem. A 129, 2667-2682 (2025).
 Overview on Building Blocks and Applications of Efficient and Robust Extended 
 Tight Binding.
 https://doi.org/10.1021/acs.jpca.4c08263

 T. D. Kühne, M. Iannuzzi, M. Del Ben, V. V. Rybkin, P. Seewald, F. Stein, T. 
 Laino, R. Z. Khaliullin, O. Schütt, F. Schiffmann, D. Golze, J. Wilhelm, S. 
 Chulkov, M. H. Bani-Hashemian, V. Weber, U. Borstnik, M. Taillefumier, A. S. 
 Jakobovits, A. Lazzaro, H. Pabst, T. Müller, R. Schade, M. Guidon, S. 
 Andermatt, N. Holmberg, G. K. Schenter, A. Hehn, A. Bussy, F. Belleflamme, G. 
 Tabacchi, A. Glöß, M. Lass, I. Bethune, C. J. Mundy, C. Plessl, M. Watkins, 
 J. VandeVondele, M. Krack, J. Hutter.
 J. Chem. Phys. 152, 194103 (2020).
 CP2K: An electronic structure and molecular dynamics software package - 
 Quickstep: Efficient and accurate electronic structure calculations.
 https://doi.org/10.1063/5.0007045

 P. Pracht, E. Caldeweyher, S. Ehlert, S. Grimme.
 ChemRxiv, (2019).
 A Robust Non-Self-Consistent Tight-Binding Quantum Chemistry Method for large 
 Molecules.
 https://doi.org/10.26434/chemrxiv.8326202.v1

 S. Grimme, C. Bannwarth, P. Shushkov.
 J. Chem. Theory Comput. 13, 1989 (2017).
 A Robust and Accurate Tight-Binding Quantum Chemical Method for Structures, 
 Vibrational Frequencies, and Noncovalent Interactions of Large Molecular 
 Systems Parametrized for All spd-Block Elements (Z = 1-86).
 https://doi.org/10.1021/acs.jctc.7b00118

 O. Schuett, P. Messmer, J. Hutter, J. VandeVondele.
 Electronic Structure Calculations on Graphics Processing Units, 173-190 (2016).
 GPU-Accelerated Sparse Matrix-Matrix Multiplication for Linear Scaling Density 
 Functional Theory.
 https://doi.org/10.1002/9781118670712.ch8

 U. Borstnik, J. VandeVondele, V. Weber, J. Hutter.
 Parallel Comput. 40, 47-58 (2014).
 Sparse matrix multiplication: The distributed block-compressed sparse row 
 library.
 https://doi.org/10.1016/j.parco.2014.03.012

 T. D. Kühne, M. Krack, F. R. Mohamed, M. Parrinello.
 Phys. Rev. Lett. 98, 066401 (2007).
 Efficient and accurate Car-Parrinello-like approach to Born-Oppenheimer 
 molecular dynamics.
 https://doi.org/10.1103/PhysRevLett.98.066401

 M. Frigo, S. G. Johnson.
 Proc. IEEE 93, 216-231 (2005).
 The design and implementation of FFTW3.
 https://doi.org/10.1109/JPROC.2004.840301

 J. Kolafa.
 J. Comput. Chem. 25, 335-342 (2004).
 Time-reversible always stable predictor-corrector method for molecular dynamics 
 of polarizable molecules.
 https://doi.org/10.1002/jcc.10385

 N. D. Mermin.
 Phys. Rev. 137, A1441-A1443 (1965).
 Thermal Properties of the Inhomogeneous Electron Gas.
 https://doi.org/10.1103/PhysRev.137.A1441


 -------------------------------------------------------------------------------
 -                                                                             -
 -                                T I M I N G                                  -
 -                                                                             -
 -------------------------------------------------------------------------------
 SUBROUTINE                       CALLS  ASD         SELF TIME        TOTAL TIME
                                MAXIMUM       AVERAGE  MAXIMUM  AVERAGE  MAXIMUM
 CP2K                                 1  1.0    0.014    0.014   38.194   38.194
 qs_energies                         23  2.1    0.018    0.018   36.820   36.820
 scf_env_do_scf                      23  3.1    0.001    0.001   22.160   22.160
 scf_env_do_scf_inner_loop          182  4.1    2.684    2.684   22.159   22.159
 build_tblite_matrices               25  4.0    0.808    0.808   12.573   12.573
 cp_dbcsr_alloc_block_from_nbl   235052  5.0   11.874   11.874   12.447   12.447
 qs_energies_init_hamiltonians       23  3.1    0.000    0.000   12.166   12.166
 qs_ks_update_qs_env                203  4.9    0.001    0.001    8.644    8.644
 rebuild_ks_matrix                  205  5.8    0.000    0.000    8.436    8.436
 build_tblite_ks_matrix             205  6.8    4.603    4.603    8.436    8.436
 qs_scf_new_mos_kp                  182  5.1    0.001    0.001    7.672    7.672
 do_general_diag_kp                 182  6.1    0.048    0.048    7.671    7.671
 rskp_transform                    7840  6.8    6.052    6.052    6.052    6.052
 qs_forces                            2  2.0    0.001    0.001    3.950    3.950
 kpoint_density_transform           208  7.1    0.042    0.042    2.561    2.561
 dbcsr_copy                      162060  6.6    1.588    1.588    2.213    2.213
 copy_dbcsr_to_fm                  6544  7.0    0.048    0.048    1.624    1.624
 dbcsr_iterator_start           1893020  6.8    1.248    1.248    1.556    1.556
 dbcsr_complete_redistribute       9872  8.4    0.227    0.227    1.539    1.539
 transform_dmat                    1664  8.1    1.262    1.262    1.262    1.262
 dbcsr_finalize                  697970  5.8    0.231    0.231    1.207    1.207
 dbcsr_iterator_stop            1893020  6.8    0.971    0.971    1.196    1.196
 copy_fm_to_dbcsr                  3328  8.1    0.019    0.019    1.074    1.074
 evaluate_core_matrix_traces        387  5.5    0.001    0.001    0.943    0.943
 calculate_ptrace_kp                387  6.5    0.059    0.059    0.942    0.942
 dbcsr_dot                       157906  7.5    0.606    0.606    0.883    0.883
 dbcsr_create_new                426844  6.2    0.639    0.639    0.857    0.857
 -------------------------------------------------------------------------------

 The number of warnings for this run is : 0
 
 -------------------------------------------------------------------------------
  **** **** ******  **  PROGRAM ENDED AT                 2026-07-16 13:27:54.096
 ***** ** ***  *** **   PROGRAM RAN ON                                     terok
 **    ****   ******    PROGRAM RAN BY                                  kuehne88
 ***** **    ** ** **   PROGRAM PROCESS ID                               1787888
  **** **  *******  **  PROGRAM STOPPED IN                        /home/kuehne88
