 DBCSR| CPU Multiplication driver                                           XSMM (U)
 DBCSR| Multrec recursion limit                                              512 (U)
 DBCSR| Multiplication stack size                                           1000 (D)
 DBCSR| Maximum elements for images                                    UNLIMITED (U)
 DBCSR| Multiplicative factor virtual images                                   1 (U)
 DBCSR| Use multiplication densification                                       T (D)
 DBCSR| Multiplication size stacks                                             3 (U)
 DBCSR| Use memory pool for CPU allocation                                     F (U)
 DBCSR| Number of 3D layers                                               SINGLE (U)
 DBCSR| Use MPI memory allocation                                              F (U)
 DBCSR| Use RMA algorithm                                                      F (U)
 DBCSR| Use Communication thread                                               T (U)
 DBCSR| Communication thread load                                             87 (D)
 DBCSR| MPI: My process id                                                     0
 DBCSR| MPI: Number of processes                                               1
 DBCSR| OMP: Current number of threads                                         1
 DBCSR| OMP: Max number of threads                                             1
 DBCSR| Split modifier for TAS multiplication algorithm                  1.0E+00 (U)


  **** **** ******  **  PROGRAM STARTED AT               2026-05-23 22:46:31.163
 ***** ** ***  *** **   PROGRAM STARTED ON                            spark-c86c
 **    ****   ******    PROGRAM STARTED BY                              kuehne88
 ***** **    ** ** **   PROGRAM PROCESS ID                               2252528
  **** **  *******  **  PROGRAM STARTED IN /home/kuehne88/periodic-gfn2-benchmar
                                           ks/X23b/runs/crystal_sp/k222/GFN2/cyt
                                           osine_GFN2_k222_sp

 CP2K| version string:                 CP2K version 2026.1 (Development Version)
 CP2K| source code revision number:                                   0622d442e4
 CP2K| cp2kflags: omp fftw3 libxc parallel scalapack mpi_f08 xsmm spglib libdftd
 CP2K|            4 dftd4_v3 mctc-lib tblite
 CP2K| is freely available from                            https://www.cp2k.org/
 CP2K| Program compiled at                                   2026-05-23 22:05:08
 CP2K| Program compiled on                                            spark-c86c
 CP2K| Program compiled for                                              aarch64
 CP2K| Data directory path    /home/kuehne88/cp2k-master-tblite-20260523/install
 CP2K| Input file name                                 cytosine_GFN2_k222_sp.inp

 GLOBAL| Force Environment number                                              1
 GLOBAL| Basis set file name                                           BASIS_SET
 GLOBAL| Potential file name                                           POTENTIAL
 GLOBAL| MM Potential file name                                     MM_POTENTIAL
 GLOBAL| Coordinate file name                                      __STD_INPUT__
 GLOBAL| Method name                                                        CP2K
 GLOBAL| Project name                                  cytosine_GFN2_k222_energy
 GLOBAL| Run type                                                         ENERGY
 GLOBAL| FFT library                                                       FFTW3
 GLOBAL| Diagonalization library                                       ScaLAPACK
 GLOBAL| Cholesky decomposition library                                ScaLAPACK
 GLOBAL| DGEMM library                                                      BLAS
 GLOBAL| Direct generalized diagonalization requested                          F
 GLOBAL| Orthonormality check for eigenvectors                          DISABLED
 GLOBAL| Matrix multiplication library                                 ScaLAPACK
 GLOBAL| All-to-all communication in single precision                          F
 GLOBAL| FFTs using library dependent lengths                                  F
 GLOBAL| Grid backend                                                       AUTO
 GLOBAL| Global print level                                                  LOW
 GLOBAL| MPI I/O enabled                                                       T
 GLOBAL| Total number of message passing processes                             1
 GLOBAL| Number of distributed systems (nodes)                                 1
 GLOBAL| Number of threads for this process                                    1
 GLOBAL| This output is from process                                           0
 GLOBAL| OpenMP stack size per thread (OMP_STACKSIZE)                    default
 GLOBAL| CPU model name                                                  UNKNOWN
 GLOBAL| CPUID                                                              2200
 GLOBAL| Compiled for CPUID                                                 2000

 *** HINT in environment.F:970 :: The compiler target flags (arm_arch64)   ***
 *** used to build this binary cannot exploit all extensions of this CPU   ***
 *** model (arm_sve256). Consider compiler target flags as part of FCFLAGS ***
 *** and CFLAGS (ARCH file).                                               ***


 MEMORY| system memory details [Kb]
 MEMORY|                        rank 0           min           max       average
 MEMORY| MemTotal            125508532     125508532     125508532     125508532
 MEMORY| MemFree             103192188     103192188     103192188     103192188
 MEMORY| Buffers                867264        867264        867264        867264
 MEMORY| Cached               13580808      13580808      13580808      13580808
 MEMORY| Slab                  1578252       1578252       1578252       1578252
 MEMORY| SReclaimable           900248        900248        900248        900248
 MEMORY| MemLikelyFree       118540508     118540508     118540508     118540508


 GENERATE|  Preliminary Number of Bonds generated:                             0
 GENERATE|  Achieved consistency in connectivity generation.


                  #####   #####        #     #   #     #       #          
                 #     # #     #      #    ##### #     #   # #####  ####  
                 #     # #           #       #   ###   #       #   #    # 
                 #     #  #####     #        #   #  #  #   #   #   ###### 
                 #   # #       #   #         #   #   # #   #   #   #      
                 #    #  #     #  #          #   #  #  # # #   #    #   # 
                  #### #  #####  #           #   ###   ##  #   #     ###  

                                   GFN2-xTB  
                                 Version 0.0                       
                            Johann V. Pototschnig                  



 TOTAL NUMBERS AND MAXIMUM NUMBERS

  Total number of            - Atomic kinds:                                   4
                             - Atoms:                                         52
                             - Shell sets:                                    84
                             - Shells:                                        84
                             - Primitive Cartesian functions:                316
                             - Cartesian basis functions:                    148
                             - Spherical basis functions:                    148

  Maximum angular momentum of the orbital basis functions:                     1


 SCF PARAMETERS         Density guess:                                     MOPAC
                        --------------------------------------------------------
                        max_scf:                                             300
                        max_scf_history:                                       0
                        max_diis:                                              4
                        --------------------------------------------------------
                        eps_scf:                                        1.00E-09
                        eps_scf_history:                                0.00E+00
                        eps_diis:                                       1.00E-01
                        eps_eigval:                                     1.00E-05
                        --------------------------------------------------------
                        level_shift [a.u.]:                             0.000000
                        added MOs                                        64    0
                        --------------------------------------------------------
                        Mixing method:                           DIRECT_P_MIXING
                        --------------------------------------------------------
                        Smear method:                                FERMI_DIRAC
                        Electronic temperature [K]:                        300.0
                        Electronic temperature [a.u.]:                  9.50E-04
                        Accuracy threshold:                             1.00E-06
                        --------------------------------------------------------
                        No outer SCF

 Extrapolation method: initial_guess

 Number of electrons:                                                        168
 Number of occupied orbitals:                                                 84
 Number of molecular orbitals:                                               148

 Number of orbital functions:                                                148
 Number of independent orbital functions:                                    148


 SCF WAVEFUNCTION OPTIMIZATION

  Step     Update method      Time    Convergence         Total energy    Change
  ------------------------------------------------------------------------------
     1 TBLite/Diag 0.40E+00    0.2     1.16704119       -94.9785060151 -9.50E+01
     2 TBLite/Diag 0.40E+00    0.3     0.28602694       -95.7961955691 -8.18E-01
     3 TBLite/Diag 0.40E+00    0.2     0.10734771       -95.8160024109 -1.98E-02
     4 TBLite/Diag 0.40E+00    0.2     0.08302080       -95.8347147028 -1.87E-02
     5 TBLite/Diag 0.40E+00    0.2     0.03855838       -95.8415508188 -6.84E-03
     6 TBLite/Diag 0.40E+00    0.2     0.01069002       -95.8420011410 -4.50E-04
     7 TBLite/Diag 0.40E+00    0.2     0.00448871       -95.8421528399 -1.52E-04
     8 TBLite/Diag 0.40E+00    0.2     0.00191832       -95.8421713276 -1.85E-05
     9 TBLite/Diag 0.40E+00    0.2     0.00055688       -95.8421745423 -3.21E-06
    10 TBLite/Diag 0.40E+00    0.2     0.00017064       -95.8421748325 -2.90E-07
    11 TBLite/Diag 0.40E+00    0.2     0.00008077       -95.8421748454 -1.29E-08
    12 TBLite/Diag 0.40E+00    0.2     0.00004025       -95.8421748563 -1.09E-08
    13 TBLite/Diag 0.40E+00    0.2     0.00001290       -95.8421748572 -9.20E-10
    14 TBLite/Diag 0.40E+00    0.2     0.00000723       -95.8421748571  7.18E-11
    15 TBLite/Diag 0.40E+00    0.2     0.00000500       -95.8421748573 -1.86E-10
    16 TBLite/Diag 0.40E+00    0.2     0.00000119       -95.8421748573 -1.42E-14
    17 TBLite/Diag 0.40E+00    0.2     0.00000081       -95.8421748573 -2.40E-12
    18 TBLite/Diag 0.40E+00    0.2     0.00000013       -95.8421748573 -1.85E-13
    19 TBLite/Diag 0.40E+00    0.2     0.00000008       -95.8421748573  1.42E-14
    20 TBLite/Diag 0.40E+00    0.2     0.00000005       -95.8421748573 -7.11E-14
    21 TBLite/Diag 0.40E+00    0.2     0.00000005       -95.8421748573  9.95E-14
    22 TBLite/Diag 0.40E+00    0.2     0.00000003       -95.8421748573 -1.14E-13
    23 TBLite/Diag 0.40E+00    0.2     4.3578E-09       -95.8421748573  1.71E-13
    24 TBLite/Diag 0.40E+00    0.2     8.2669E-10       -95.8421748573 -2.84E-14

  *** SCF run converged in    24 steps ***


  Core Hamiltonian energy:                                    -97.68250052542933
  Repulsive potential energy:                                   1.71753603643171
  Electrostatic energy:                                         0.24575233880375
  Self-consistent dispersion energy:                           -0.15528428172295
  Non-self consistent dispersion energy:                        0.03232157458149
  Correction for halogen bonding:                               0.00000000000000
  Electronic entropic energy:                                  -0.00000000000000
  Fermi energy:                                                -0.35062701896254

  Total energy:                                               -95.84217485733534
  Total energy (extrapolated to T->0):                        -95.84217485733534

 ENERGY| Total FORCE_EVAL ( QS ) energy [hartree]            -95.842174857335337

 -------------------------------------------------------------------------------
 -                                                                             -
 -                                DBCSR STATISTICS                             -
 -                                                                             -
 -------------------------------------------------------------------------------
 COUNTER                                    TOTAL       BLAS       SMM       ACC
 flops inhomo. stacks                           0       0.0%      0.0%      0.0%
 flops total                         0.000000E+00       0.0%      0.0%      0.0%
 flops max/rank                      0.000000E+00       0.0%      0.0%      0.0%
 matmuls inhomo. stacks                         0       0.0%      0.0%      0.0%
 matmuls total                                  0       0.0%      0.0%      0.0%
 number of processed stacks                     0       0.0%      0.0%      0.0%
 average stack size                                     0.0       0.0       0.0
 marketing flops                     0.000000E+00
 -------------------------------------------------------------------------------
 -                                                                             -
 -                      DBCSR MESSAGE PASSING PERFORMANCE                      -
 -                                                                             -
 -------------------------------------------------------------------------------
 ROUTINE             CALLS      AVE VOLUME [Bytes]
 MP_Bcast                1                     12.
 MP_Allreduce           19                     21.
 MP_Alltoall         17048                 136755.
 -------------------------------------------------------------------------------

 -------------------------------------------------------------------------------
 -                                                                             -
 -                          OFFLOAD MEMPOOL STATISTICS                         -
 -                                                                             -
 -------------------------------------------------------------------------------
 Memory consumption                Number of allocations  Used [MiB]  Size [MiB]
 Device                                                1           0           0
 Host                                                  1           0           0
 -------------------------------------------------------------------------------

 MEMORY| Estimated peak process memory [MiB]                                 311

 -------------------------------------------------------------------------------
 -                                                                             -
 -                         MESSAGE PASSING PERFORMANCE                         -
 -                                                                             -
 -------------------------------------------------------------------------------

 ROUTINE             CALLS      AVE VOLUME [Bytes]
 MP_Group                1
 MP_Bcast             7032                      7.
 MP_Allreduce        24560                    466.
 MP_Sync                 1
 MP_Wait              5840
 MP_ISend             8176                  25039.
 MP_IRecv             8176                  25039.
 -------------------------------------------------------------------------------


 -------------------------------------------------------------------------------
 -                                                                             -
 -                           R E F E R E N C E S                               -
 -                                                                             -
 -------------------------------------------------------------------------------
 
 CP2K version 2026.1 (Development Version), the CP2K developers group (2026).
 CP2K is freely available from https://www.cp2k.org/ .
 
 M. Iannuzzi, J. Wilhelm, F. Stein, A. Bussy, H. Elgabarty, D. Golze, A. Hehn, 
 M. Graml, S. Marek, B. Sertcan Gökmen, C. Schran, H. Forbert, R. Z. 
 Khaliullin, A. Kozhevnikov, M. Taillefumier, R. Meli, V. V. Rybkin, M. Brehm, 
 R. Schade, O. Schütt, J. V. Pototschnig, H. Mirhosseini, A. Knüpfer, D. Marx, 
 M. Krack, J. Hutter, T. D. Kühne.
 J. Phys. Chem. B 130, 1237-1310 (2026).
 The CP2K Program Package Made Simple.
 https://doi.org/10.1021/acs.jpcb.5c05851

 A. Katbashev, M. Stahn, T. Rose, V. Alizadeh, M. Friede, C. Plett, P. 
 Steinbach, S. Ehlert.
 J. Phys. Chem. A 129, 2667-2682 (2025).
 Overview on Building Blocks and Applications of Efficient and Robust Extended 
 Tight Binding.
 https://doi.org/10.1021/acs.jpca.4c08263

 T. D. Kühne, M. Iannuzzi, M. Del Ben, V. V. Rybkin, P. Seewald, F. Stein, T. 
 Laino, R. Z. Khaliullin, O. Schütt, F. Schiffmann, D. Golze, J. Wilhelm, S. 
 Chulkov, M. H. Bani-Hashemian, V. Weber, U. Borstnik, M. Taillefumier, A. S. 
 Jakobovits, A. Lazzaro, H. Pabst, T. Müller, R. Schade, M. Guidon, S. 
 Andermatt, N. Holmberg, G. K. Schenter, A. Hehn, A. Bussy, F. Belleflamme, G. 
 Tabacchi, A. Glöß, M. Lass, I. Bethune, C. J. Mundy, C. Plessl, M. Watkins, 
 J. VandeVondele, M. Krack, J. Hutter.
 J. Chem. Phys. 152, 194103 (2020).
 CP2K: An electronic structure and molecular dynamics software package - 
 Quickstep: Efficient and accurate electronic structure calculations.
 https://doi.org/10.1063/5.0007045

 P. Pracht, E. Caldeweyher, S. Ehlert, S. Grimme.
 ChemRxiv, (2019).
 A Robust Non-Self-Consistent Tight-Binding Quantum Chemistry Method for large 
 Molecules.
 https://doi.org/10.26434/chemrxiv.8326202.v1

 S. Grimme, C. Bannwarth, P. Shushkov.
 J. Chem. Theory Comput. 13, 1989 (2017).
 A Robust and Accurate Tight-Binding Quantum Chemical Method for Structures, 
 Vibrational Frequencies, and Noncovalent Interactions of Large Molecular 
 Systems Parametrized for All spd-Block Elements (Z = 1-86).
 https://doi.org/10.1021/acs.jctc.7b00118

 O. Schuett, P. Messmer, J. Hutter, J. VandeVondele.
 Electronic Structure Calculations on Graphics Processing Units, 173-190 (2016).
 GPU-Accelerated Sparse Matrix-Matrix Multiplication for Linear Scaling Density 
 Functional Theory.
 https://doi.org/10.1002/9781118670712.ch8

 A. Heinecke, G. Henry, M. Hutchinson, H. Pabst.
 Proceedings of Intl. Supercomputing Conference, 981-991 (2016).
 LIBXSMM: Accelerating Small Matrix Multiplications by Runtime Code Generation.
 https://doi.org/10.1109/SC.2016.83

 U. Borstnik, J. VandeVondele, V. Weber, J. Hutter.
 Parallel Comput. 40, 47-58 (2014).
 Sparse matrix multiplication: The distributed block-compressed sparse row 
 library.
 https://doi.org/10.1016/j.parco.2014.03.012

 M. Frigo, S. G. Johnson.
 Proc. IEEE 93, 216-231 (2005).
 The design and implementation of FFTW3.
 https://doi.org/10.1109/JPROC.2004.840301

 N. D. Mermin.
 Phys. Rev. 137, A1441-A1443 (1965).
 Thermal Properties of the Inhomogeneous Electron Gas.
 https://doi.org/10.1103/PhysRev.137.A1441


 -------------------------------------------------------------------------------
 -                                                                             -
 -                                T I M I N G                                  -
 -                                                                             -
 -------------------------------------------------------------------------------
 SUBROUTINE                       CALLS  ASD         SELF TIME        TOTAL TIME
                                MAXIMUM       AVERAGE  MAXIMUM  AVERAGE  MAXIMUM
 CP2K                                 1  1.0    0.006    0.006    6.697    6.697
 qs_energies                          1  2.0    0.000    0.000    6.686    6.686
 scf_env_do_scf                       1  3.0    0.000    0.000    5.813    5.813
 scf_env_do_scf_inner_loop           24  4.0    1.111    1.111    5.813    5.813
 qs_scf_new_mos_kp                   24  5.0    0.000    0.000    2.943    2.943
 do_general_diag_kp                  24  6.0    0.007    0.007    2.943    2.943
 qs_ks_update_qs_env                 24  5.0    0.000    0.000    1.535    1.535
 rebuild_ks_matrix                   24  6.0    0.000    0.000    1.464    1.464
 build_tblite_ks_matrix              24  7.0    1.442    1.442    1.464    1.464
 qs_energies_init_hamiltonians        1  3.0    0.000    0.000    0.827    0.827
 build_tblite_matrices                1  4.0    0.630    0.630    0.814    0.814
 cp_cfm_geeig                       192  7.0    0.001    0.001    0.765    0.765
 kpoint_density_transform            24  7.0    0.001    0.001    0.603    0.603
 cp_cfm_heevd                       192  8.0    0.000    0.000    0.509    0.509
 cp_cfm_heevd_base                  192  9.0    0.508    0.508    0.508    0.508
 rskp_transform                     392  6.9    0.498    0.498    0.498    0.498
 dbcsr_complete_redistribute       1254  8.2    0.407    0.407    0.482    0.482
 copy_dbcsr_to_fm                   870  6.8    0.003    0.003    0.470    0.470
 copy_fm_to_dbcsr                   384  8.0    0.001    0.001    0.314    0.314
 dbcsr_desymmetrize_deep           1654  7.4    0.195    0.195    0.255    0.255
 qs_diis_b_calc_err_kp              184  7.0    0.007    0.007    0.240    0.240
 parallel_gemm_cfm                  736  8.0    0.000    0.000    0.230    0.230
 parallel_gemm_cfm_gemm             736  9.0    0.000    0.000    0.230    0.230
 cp_cfm_gemm                        736 10.0    0.229    0.229    0.229    0.229
 transform_dmat                     192  8.0    0.218    0.218    0.218    0.218
 cp_dbcsr_alloc_block_from_nbl     1087  5.9    0.161    0.161    0.211    0.211
 cp_cfm_triangular_multiply         576  8.0    0.190    0.190    0.190    0.190
 tb_get_multipole                     1  5.0    0.018    0.018    0.168    0.168
 evaluate_core_matrix_traces         48  5.5    0.000    0.000    0.145    0.145
 calculate_ptrace_kp                 48  6.5    0.000    0.000    0.145    0.145
 dbcsr_dot                         2064  7.5    0.141    0.141    0.144    0.144
 dbcsr_copy                        2448  6.9    0.016    0.016    0.138    0.138
 -------------------------------------------------------------------------------

 The number of warnings for this run is : 0
 
 -------------------------------------------------------------------------------
  **** **** ******  **  PROGRAM ENDED AT                 2026-05-23 22:46:38.279
 ***** ** ***  *** **   PROGRAM RAN ON                                spark-c86c
 **    ****   ******    PROGRAM RAN BY                                  kuehne88
 ***** **    ** ** **   PROGRAM PROCESS ID                               2252528
  **** **  *******  **  PROGRAM STOPPED IN /home/kuehne88/periodic-gfn2-benchmar
                                           ks/X23b/runs/crystal_sp/k222/GFN2/cyt
                                           osine_GFN2_k222_sp
