 DBCSR| CPU Multiplication driver                                           XSMM (U)
 DBCSR| Multrec recursion limit                                              512 (U)
 DBCSR| Multiplication stack size                                           1000 (D)
 DBCSR| Maximum elements for images                                    UNLIMITED (U)
 DBCSR| Multiplicative factor virtual images                                   1 (U)
 DBCSR| Use multiplication densification                                       T (D)
 DBCSR| Multiplication size stacks                                             3 (U)
 DBCSR| Use memory pool for CPU allocation                                     F (U)
 DBCSR| Number of 3D layers                                               SINGLE (U)
 DBCSR| Use MPI memory allocation                                              F (U)
 DBCSR| Use RMA algorithm                                                      F (U)
 DBCSR| Use Communication thread                                               T (U)
 DBCSR| Communication thread load                                             87 (D)
 DBCSR| MPI: My process id                                                     0
 DBCSR| MPI: Number of processes                                               1
 DBCSR| OMP: Current number of threads                                         1
 DBCSR| OMP: Max number of threads                                             1
 DBCSR| Split modifier for TAS multiplication algorithm                  1.0E+00 (U)


  **** **** ******  **  PROGRAM STARTED AT               2026-05-23 22:46:19.784
 ***** ** ***  *** **   PROGRAM STARTED ON                            spark-c86c
 **    ****   ******    PROGRAM STARTED BY                              kuehne88
 ***** **    ** ** **   PROGRAM PROCESS ID                               2226020
  **** **  *******  **  PROGRAM STARTED IN /home/kuehne88/periodic-gfn2-benchmar
                                           ks/X23b/runs/molecule_geoopt/GFN1/ura
                                           cil_GFN1_mol_geoopt

 CP2K| version string:                 CP2K version 2026.1 (Development Version)
 CP2K| source code revision number:                                   0622d442e4
 CP2K| cp2kflags: omp fftw3 libxc parallel scalapack mpi_f08 xsmm spglib libdftd
 CP2K|            4 dftd4_v3 mctc-lib tblite
 CP2K| is freely available from                            https://www.cp2k.org/
 CP2K| Program compiled at                                   2026-05-23 22:05:08
 CP2K| Program compiled on                                            spark-c86c
 CP2K| Program compiled for                                              aarch64
 CP2K| Data directory path    /home/kuehne88/cp2k-master-tblite-20260523/install
 CP2K| Input file name                                uracil_GFN1_mol_geoopt.inp

 GLOBAL| Force Environment number                                              1
 GLOBAL| Basis set file name                                           BASIS_SET
 GLOBAL| Potential file name                                           POTENTIAL
 GLOBAL| MM Potential file name                                     MM_POTENTIAL
 GLOBAL| Coordinate file name                                      __STD_INPUT__
 GLOBAL| Method name                                                        CP2K
 GLOBAL| Project name                                     uracil_GFN1_mol_geoopt
 GLOBAL| Run type                                                        GEO_OPT
 GLOBAL| FFT library                                                       FFTW3
 GLOBAL| Diagonalization library                                       ScaLAPACK
 GLOBAL| Cholesky decomposition library                                ScaLAPACK
 GLOBAL| DGEMM library                                                      BLAS
 GLOBAL| Direct generalized diagonalization requested                          F
 GLOBAL| Orthonormality check for eigenvectors                          DISABLED
 GLOBAL| Matrix multiplication library                                 ScaLAPACK
 GLOBAL| All-to-all communication in single precision                          F
 GLOBAL| FFTs using library dependent lengths                                  F
 GLOBAL| Grid backend                                                       AUTO
 GLOBAL| Global print level                                                  LOW
 GLOBAL| MPI I/O enabled                                                       T
 GLOBAL| Total number of message passing processes                             1
 GLOBAL| Number of distributed systems (nodes)                                 1
 GLOBAL| Number of threads for this process                                    1
 GLOBAL| This output is from process                                           0
 GLOBAL| OpenMP stack size per thread (OMP_STACKSIZE)                    default
 GLOBAL| CPU model name                                                  UNKNOWN
 GLOBAL| CPUID                                                              2200
 GLOBAL| Compiled for CPUID                                                 2000

 *** HINT in environment.F:970 :: The compiler target flags (arm_arch64)   ***
 *** used to build this binary cannot exploit all extensions of this CPU   ***
 *** model (arm_sve256). Consider compiler target flags as part of FCFLAGS ***
 *** and CFLAGS (ARCH file).                                               ***


 MEMORY| system memory details [Kb]
 MEMORY|                        rank 0           min           max       average
 MEMORY| MemTotal            125508532     125508532     125508532     125508532
 MEMORY| MemFree             106330232     106330232     106330232     106330232
 MEMORY| Buffers                866064        866064        866064        866064
 MEMORY| Cached               13215540      13215540      13215540      13215540
 MEMORY| Slab                  1564152       1564152       1564152       1564152
 MEMORY| SReclaimable           888608        888608        888608        888608
 MEMORY| MemLikelyFree       121300444     121300444     121300444     121300444


 GENERATE|  Preliminary Number of Bonds generated:                             0
 GENERATE|  Achieved consistency in connectivity generation.


                  #####   #####        #     #   #     #       #          
                 #     # #     #      #    ##### #     #   # #####  ####  
                 #     # #           #       #   ###   #       #   #    # 
                 #     #  #####     #        #   #  #  #   #   #   ###### 
                 #   # #       #   #         #   #   # #   #   #   #      
                 #    #  #     #  #          #   #  #  # # #   #    #   # 
                  #### #  #####  #           #   ###   ##  #   #     ###  

                                   GFN1-xTB  
                                 Version 0.0                       
                            Johann V. Pototschnig                  



 TOTAL NUMBERS AND MAXIMUM NUMBERS

  Total number of            - Atomic kinds:                                   4
                             - Atoms:                                         12
                             - Shell sets:                                    24
                             - Shells:                                        24
                             - Primitive Cartesian functions:                140
                             - Cartesian basis functions:                     40
                             - Spherical basis functions:                     40

  Maximum angular momentum of the orbital basis functions:                     1


 SCF PARAMETERS         Density guess:                                     MOPAC
                        --------------------------------------------------------
                        max_scf:                                             300
                        max_scf_history:                                       0
                        max_diis:                                              4
                        --------------------------------------------------------
                        eps_scf:                                        1.00E-09
                        eps_scf_history:                                0.00E+00
                        eps_diis:                                       1.00E-01
                        eps_eigval:                                     1.00E-05
                        --------------------------------------------------------
                        level_shift [a.u.]:                             0.000000
                        added MOs                                        19    0
                        --------------------------------------------------------
                        Mixing method:                           DIRECT_P_MIXING
                        --------------------------------------------------------
                        Smear method:                                FERMI_DIRAC
                        Electronic temperature [K]:                        300.0
                        Electronic temperature [a.u.]:                  9.50E-04
                        Accuracy threshold:                             1.00E-06
                        --------------------------------------------------------
                        No outer SCF

 BFGS| Use rational function optimization for step estimation:                NO
 BFGS| Use model Hessian for initial guess:                                  YES
 BFGS| Restart Hessian:                                                       NO
 BFGS| Trust radius:                                                       0.472

 *******************************************************************************
 ***                     STARTING GEOMETRY OPTIMIZATION                      ***
 ***                                   BFGS                                  ***
 *******************************************************************************

 Extrapolation method: initial_guess

 Number of electrons:                                                         42
 Number of occupied orbitals:                                                 21
 Number of molecular orbitals:                                                40

 Number of orbital functions:                                                 40
 Number of independent orbital functions:                                     40


 SCF WAVEFUNCTION OPTIMIZATION

  Step     Update method      Time    Convergence         Total energy    Change
  ------------------------------------------------------------------------------
     1 TBLite/Diag 0.40E+00    0.0     1.61520686       -25.9056931437 -2.59E+01
     2 TBLite/Diag 0.40E+00    0.0     0.39650439       -26.4234545119 -5.18E-01
     3 TBLite/Diag 0.40E+00    0.0     0.06477689       -26.4285041850 -5.05E-03
     4 TBLite/Diag 0.40E+00    0.0     0.03772456       -26.4286896638 -1.85E-04
     5 TBLite/Diag 0.40E+00    0.0     0.02053878       -26.4292638750 -5.74E-04
     6 TBLite/Diag 0.40E+00    0.0     0.00578971       -26.4293293779 -6.55E-05
     7 TBLite/Diag 0.40E+00    0.0     0.00174256       -26.4293341257 -4.75E-06
     8 TBLite/Diag 0.40E+00    0.0     0.00026112       -26.4293342108 -8.51E-08
     9 TBLite/Diag 0.40E+00    0.0     0.00011892       -26.4293342317 -2.09E-08
    10 TBLite/Diag 0.40E+00    0.0     0.00002068       -26.4293342324 -7.50E-10
    11 TBLite/Diag 0.40E+00    0.0     0.00000449       -26.4293342324 -3.40E-12
    12 TBLite/Diag 0.40E+00    0.0     0.00000248       -26.4293342324 -6.38E-12
    13 TBLite/Diag 0.40E+00    0.0     0.00000075       -26.4293342324  7.11E-14
    14 TBLite/Diag 0.40E+00    0.0     0.00000040       -26.4293342324 -2.70E-13
    15 TBLite/Diag 0.40E+00    0.0     8.3756E-09       -26.4293342324  3.55E-15
    16 TBLite/Diag 0.40E+00    0.0     3.0656E-10       -26.4293342324  7.11E-15

  *** SCF run converged in    16 steps ***


  Core Hamiltonian energy:                                    -26.83210795530589
  Repulsive potential energy:                                   0.26978513915500
  Electrostatic energy:                                         0.13795611384631
  Self-consistent dispersion energy:                            0.00000000000000
  Non-self consistent dispersion energy:                       -0.00496753011806
  Correction for halogen bonding:                               0.00000000000000
  Electronic entropic energy:                                  -0.00000000000000
  Fermi energy:                                                -0.34745620199174

  Total energy:                                               -26.42933423242264
  Total energy (extrapolated to T->0):                        -26.42933423242264

 ENERGY| Total FORCE_EVAL ( QS ) energy [hartree]            -26.429334232422637

 OPT| **************************************************************************
 OPT| Step number                                                              0
 OPT| Optimization method                                                   BFGS
 OPT| Total energy [hartree]                                      -26.4293342324
 OPT| Used time [s]                                                        0.017
 OPT| **************************************************************************
 OPT| Estimated peak process memory [MiB]                                    166

 --------------------------
 OPTIMIZATION STEP:      1
 --------------------------

 Extrapolation method: ASPC

 Number of electrons:                                                         42
 Number of occupied orbitals:                                                 21
 Number of molecular orbitals:                                                40

 Number of orbital functions:                                                 40
 Number of independent orbital functions:                                     40


 SCF WAVEFUNCTION OPTIMIZATION

  Step     Update method      Time    Convergence         Total energy    Change
  ------------------------------------------------------------------------------
     1 TBLite/Diag 0.40E+00    0.0     0.02008809       -26.4308086496 -2.64E+01
     2 TBLite/Diag 0.40E+00    0.0     0.00506443       -26.4308480592 -3.94E-05
     3 TBLite/Diag 0.40E+00    0.0     0.00152367       -26.4308507719 -2.71E-06
     4 TBLite/Diag 0.40E+00    0.0     0.00048752       -26.4308509992 -2.27E-07
     5 TBLite/Diag 0.40E+00    0.0     0.00017258       -26.4308510559 -5.67E-08
     6 TBLite/Diag 0.40E+00    0.0     0.00004017       -26.4308510574 -1.48E-09
     7 TBLite/Diag 0.40E+00    0.0     0.00001501       -26.4308510576 -2.18E-10
     8 TBLite/Diag 0.40E+00    0.0     0.00000467       -26.4308510576 -2.07E-11
     9 TBLite/Diag 0.40E+00    0.0     0.00000037       -26.4308510576 -2.63E-13
    10 TBLite/Diag 0.40E+00    0.0     0.00000013       -26.4308510576 -3.55E-14
    11 TBLite/Diag 0.40E+00    0.0     6.6122E-09       -26.4308510576  1.07E-14
    12 TBLite/Diag 0.40E+00    0.0     2.3451E-09       -26.4308510576 -7.11E-15
    13 TBLite/Diag 0.40E+00    0.0     2.9782E-10       -26.4308510576  1.78E-14

  *** SCF run converged in    13 steps ***


  Core Hamiltonian energy:                                    -26.84814513758233
  Repulsive potential energy:                                   0.28496802227616
  Electrostatic energy:                                         0.13730821269750
  Self-consistent dispersion energy:                            0.00000000000000
  Non-self consistent dispersion energy:                       -0.00498215503696
  Correction for halogen bonding:                               0.00000000000000
  Electronic entropic energy:                                  -0.00000000000000
  Fermi energy:                                                -0.34386186022732

  Total energy:                                               -26.43085105764563
  Total energy (extrapolated to T->0):                        -26.43085105764563

 ENERGY| Total FORCE_EVAL ( QS ) energy [hartree]            -26.430851057645626

 OPT| **************************************************************************
 OPT| Step number                                                              1
 OPT| Optimization method                                                   BFGS
 OPT| Total energy [hartree]                                      -26.4308510576
 OPT| Effective energy change [hartree]                            -0.0015168252
 OPT| Predicted energy change [hartree]                            -0.0012913445
 OPT| Scaling factor                                                0.0000000000
 OPT| Step size                                                     0.0496230617
 OPT| Trust radius                                                  0.4724315332
 OPT| Decrease in energy                                                     YES
 OPT| Used time [s]                                                        0.014
 OPT|
 OPT| Maximum step size                                             0.0496230617
 OPT| Convergence limit for maximum step size                       0.0030000000
 OPT| Maximum step size is converged                                          NO
 OPT|
 OPT| RMS step size                                                 0.0159436834
 OPT| Convergence limit for RMS step size                           0.0015000000
 OPT| RMS step size is converged                                              NO
 OPT|
 OPT| Maximum gradient                                              0.0039361120
 OPT| Convergence limit for maximum gradient                        0.0004500000
 OPT| Maximum gradient is converged                                           NO
 OPT|
 OPT| RMS gradient                                                  0.0017862671
 OPT| Convergence limit for RMS gradient                            0.0003000000
 OPT| RMS gradient is converged                                               NO
 OPT| **************************************************************************
 OPT| Estimated peak process memory after this step [MiB]                    166

 --------------------------
 OPTIMIZATION STEP:      2
 --------------------------

 Extrapolation method: ASPC

 Number of electrons:                                                         42
 Number of occupied orbitals:                                                 21
 Number of molecular orbitals:                                                40

 Number of orbital functions:                                                 40
 Number of independent orbital functions:                                     40


 SCF WAVEFUNCTION OPTIMIZATION

  Step     Update method      Time    Convergence         Total energy    Change
  ------------------------------------------------------------------------------
     1 TBLite/Diag 0.40E+00    0.0     0.00686893       -26.4309354710 -2.64E+01
     2 TBLite/Diag 0.40E+00    0.0     0.00215014       -26.4309407522 -5.28E-06
     3 TBLite/Diag 0.40E+00    0.0     0.00051376       -26.4309411556 -4.03E-07
     4 TBLite/Diag 0.40E+00    0.0     0.00011203       -26.4309411640 -8.40E-09
     5 TBLite/Diag 0.40E+00    0.0     0.00006568       -26.4309411734 -9.32E-09
     6 TBLite/Diag 0.40E+00    0.0     0.00001960       -26.4309411737 -3.89E-10
     7 TBLite/Diag 0.40E+00    0.0     0.00000697       -26.4309411738 -6.02E-11
     8 TBLite/Diag 0.40E+00    0.0     0.00000157       -26.4309411738 -2.75E-12
     9 TBLite/Diag 0.40E+00    0.0     0.00000039       -26.4309411738 -4.26E-14
    10 TBLite/Diag 0.40E+00    0.0     0.00000003       -26.4309411738 -7.11E-15
    11 TBLite/Diag 0.40E+00    0.0     2.6910E-09       -26.4309411738  7.11E-15
    12 TBLite/Diag 0.40E+00    0.0     1.5805E-09       -26.4309411738 -2.13E-14
    13 TBLite/Diag 0.40E+00    0.0     7.7473E-11       -26.4309411738  2.84E-14

  *** SCF run converged in    13 steps ***


  Core Hamiltonian energy:                                    -26.85266960580773
  Repulsive potential energy:                                   0.28962700878751
  Electrostatic energy:                                         0.13708794441003
  Self-consistent dispersion energy:                            0.00000000000000
  Non-self consistent dispersion energy:                       -0.00498652119309
  Correction for halogen bonding:                               0.00000000000000
  Electronic entropic energy:                                  -0.00000000000000
  Fermi energy:                                                -0.34252944947925

  Total energy:                                               -26.43094117380328
  Total energy (extrapolated to T->0):                        -26.43094117380328

 ENERGY| Total FORCE_EVAL ( QS ) energy [hartree]            -26.430941173803280

 OPT| **************************************************************************
 OPT| Step number                                                              2
 OPT| Optimization method                                                   BFGS
 OPT| Total energy [hartree]                                      -26.4309411738
 OPT| Effective energy change [hartree]                            -0.0000901162
 OPT| Predicted energy change [hartree]                            -0.0001135993
 OPT| Scaling factor                                                0.0000000000
 OPT| Step size                                                     0.0132759540
 OPT| Trust radius                                                  0.4724315332
 OPT| Decrease in energy                                                     YES
 OPT| Used time [s]                                                        0.014
 OPT|
 OPT| Maximum step size                                             0.0132759540
 OPT| Convergence limit for maximum step size                       0.0030000000
 OPT| Maximum step size is converged                                          NO
 OPT|
 OPT| RMS step size                                                 0.0053639764
 OPT| Convergence limit for RMS step size                           0.0015000000
 OPT| RMS step size is converged                                              NO
 OPT|
 OPT| Maximum gradient                                              0.0022381261
 OPT| Convergence limit for maximum gradient                        0.0004500000
 OPT| Maximum gradient is converged                                           NO
 OPT|
 OPT| RMS gradient                                                  0.0007709430
 OPT| Convergence limit for RMS gradient                            0.0003000000
 OPT| RMS gradient is converged                                               NO
 OPT| **************************************************************************
 OPT| Estimated peak process memory after this step [MiB]                    167

 --------------------------
 OPTIMIZATION STEP:      3
 --------------------------

 Extrapolation method: ASPC

 Number of electrons:                                                         42
 Number of occupied orbitals:                                                 21
 Number of molecular orbitals:                                                40

 Number of orbital functions:                                                 40
 Number of independent orbital functions:                                     40


 SCF WAVEFUNCTION OPTIMIZATION

  Step     Update method      Time    Convergence         Total energy    Change
  ------------------------------------------------------------------------------
     1 TBLite/Diag 0.40E+00    0.0     0.00248031       -26.4309547928 -2.64E+01
     2 TBLite/Diag 0.40E+00    0.0     0.00108735       -26.4309560710 -1.28E-06
     3 TBLite/Diag 0.40E+00    0.0     0.00022186       -26.4309561323 -6.13E-08
     4 TBLite/Diag 0.40E+00    0.0     0.00005953       -26.4309561352 -2.94E-09
     5 TBLite/Diag 0.40E+00    0.0     0.00002276       -26.4309561360 -8.00E-10
     6 TBLite/Diag 0.40E+00    0.0     0.00000329       -26.4309561360 -3.12E-12
     7 TBLite/Diag 0.40E+00    0.0     0.00000171       -26.4309561361 -6.41E-12
     8 TBLite/Diag 0.40E+00    0.0     0.00000039       -26.4309561361 -1.71E-13
     9 TBLite/Diag 0.40E+00    0.0     0.00000013       -26.4309561361 -2.49E-14
    10 TBLite/Diag 0.40E+00    0.0     0.00000002       -26.4309561361  1.78E-14
    11 TBLite/Diag 0.40E+00    0.0     3.7674E-09       -26.4309561361 -7.11E-15
    12 TBLite/Diag 0.40E+00    0.0     4.8302E-10       -26.4309561361 -3.55E-15

  *** SCF run converged in    12 steps ***


  Core Hamiltonian energy:                                    -26.85270182117798
  Repulsive potential energy:                                   0.28947577972236
  Electrostatic energy:                                         0.13725658948141
  Self-consistent dispersion energy:                            0.00000000000000
  Non-self consistent dispersion energy:                       -0.00498668407992
  Correction for halogen bonding:                               0.00000000000000
  Electronic entropic energy:                                  -0.00000000000000
  Fermi energy:                                                -0.34244370538876

  Total energy:                                               -26.43095613605413
  Total energy (extrapolated to T->0):                        -26.43095613605413

 ENERGY| Total FORCE_EVAL ( QS ) energy [hartree]            -26.430956136054132

 OPT| **************************************************************************
 OPT| Step number                                                              3
 OPT| Optimization method                                                   BFGS
 OPT| Total energy [hartree]                                      -26.4309561361
 OPT| Effective energy change [hartree]                            -0.0000149623
 OPT| Predicted energy change [hartree]                            -0.0000167490
 OPT| Scaling factor                                                0.0000000000
 OPT| Step size                                                     0.0046504007
 OPT| Trust radius                                                  0.4724315332
 OPT| Decrease in energy                                                     YES
 OPT| Used time [s]                                                        0.014
 OPT|
 OPT| Maximum step size                                             0.0046504007
 OPT| Convergence limit for maximum step size                       0.0030000000
 OPT| Maximum step size is converged                                          NO
 OPT|
 OPT| RMS step size                                                 0.0020878802
 OPT| Convergence limit for RMS step size                           0.0015000000
 OPT| RMS step size is converged                                              NO
 OPT|
 OPT| Maximum gradient                                              0.0010523865
 OPT| Convergence limit for maximum gradient                        0.0004500000
 OPT| Maximum gradient is converged                                           NO
 OPT|
 OPT| RMS gradient                                                  0.0003381332
 OPT| Convergence limit for RMS gradient                            0.0003000000
 OPT| RMS gradient is converged                                               NO
 OPT| **************************************************************************
 OPT| Estimated peak process memory after this step [MiB]                    167

 --------------------------
 OPTIMIZATION STEP:      4
 --------------------------

 Extrapolation method: ASPC

 Number of electrons:                                                         42
 Number of occupied orbitals:                                                 21
 Number of molecular orbitals:                                                40

 Number of orbital functions:                                                 40
 Number of independent orbital functions:                                     40


 SCF WAVEFUNCTION OPTIMIZATION

  Step     Update method      Time    Convergence         Total energy    Change
  ------------------------------------------------------------------------------
     1 TBLite/Diag 0.40E+00    0.0     0.00102456       -26.4309583140 -2.64E+01
     2 TBLite/Diag 0.40E+00    0.0     0.00031674       -26.4309584466 -1.33E-07
     3 TBLite/Diag 0.40E+00    0.0     0.00009582       -26.4309584547 -8.17E-09
     4 TBLite/Diag 0.40E+00    0.0     0.00002923       -26.4309584548 -4.38E-11
     5 TBLite/Diag 0.40E+00    0.0     0.00001476       -26.4309584549 -1.59E-10
     6 TBLite/Diag 0.40E+00    0.0     0.00000180       -26.4309584549 -6.14E-12
     7 TBLite/Diag 0.40E+00    0.0     0.00000081       -26.4309584549 -7.32E-13
     8 TBLite/Diag 0.40E+00    0.0     0.00000007       -26.4309584549 -3.55E-15
     9 TBLite/Diag 0.40E+00    0.0     0.00000002       -26.4309584549  1.07E-14
    10 TBLite/Diag 0.40E+00    0.0     2.0716E-09       -26.4309584549 -1.78E-14
    11 TBLite/Diag 0.40E+00    0.0     5.0536E-10       -26.4309584549  1.07E-14

  *** SCF run converged in    11 steps ***


  Core Hamiltonian energy:                                    -26.85227511945253
  Repulsive potential energy:                                   0.28898477022597
  Electrostatic energy:                                         0.13731830840663
  Self-consistent dispersion energy:                            0.00000000000000
  Non-self consistent dispersion energy:                       -0.00498641412145
  Correction for halogen bonding:                               0.00000000000000
  Electronic entropic energy:                                  -0.00000000000000
  Fermi energy:                                                -0.34256521659450

  Total energy:                                               -26.43095845494138
  Total energy (extrapolated to T->0):                        -26.43095845494138

 ENERGY| Total FORCE_EVAL ( QS ) energy [hartree]            -26.430958454941383

 OPT| **************************************************************************
 OPT| Step number                                                              4
 OPT| Optimization method                                                   BFGS
 OPT| Total energy [hartree]                                      -26.4309584549
 OPT| Effective energy change [hartree]                            -0.0000023189
 OPT| Predicted energy change [hartree]                            -0.0000020910
 OPT| Scaling factor                                                0.0000000000
 OPT| Step size                                                     0.0017312347
 OPT| Trust radius                                                  0.4724315332
 OPT| Decrease in energy                                                     YES
 OPT| Used time [s]                                                        0.013
 OPT|
 OPT| Maximum step size                                             0.0017312347
 OPT| Convergence limit for maximum step size                       0.0030000000
 OPT| Maximum step size is converged                                         YES
 OPT|
 OPT| RMS step size                                                 0.0006294465
 OPT| Convergence limit for RMS step size                           0.0015000000
 OPT| RMS step size is converged                                             YES
 OPT|
 OPT| Maximum gradient                                              0.0003100837
 OPT| Convergence limit for maximum gradient                        0.0004500000
 OPT| Maximum gradient is converged                                          YES
 OPT|
 OPT| RMS gradient                                                  0.0000987468
 OPT| Convergence limit for RMS gradient                            0.0003000000
 OPT| RMS gradient is converged                                              YES
 OPT| **************************************************************************
 OPT| Estimated peak process memory after this step [MiB]                    167

 *******************************************************************************
 ***                    GEOMETRY OPTIMIZATION COMPLETED                      ***
 *******************************************************************************

 write_final_structure: Optimization converged, writing XYZ file gladly:
  uracil_GFN1_mol_geoopt-FINAL-1_4.xyz

 write_final_structure: Optimization converged, writing CIF file gladly:
  uracil_GFN1_mol_geoopt-FINAL-1_4.cif

 write_final_structure: Done!

                    Reevaluating energy at the minimum

 Extrapolation method: ASPC

 Number of electrons:                                                         42
 Number of occupied orbitals:                                                 21
 Number of molecular orbitals:                                                40

 Number of orbital functions:                                                 40
 Number of independent orbital functions:                                     40


 SCF WAVEFUNCTION OPTIMIZATION

  Step     Update method      Time    Convergence         Total energy    Change
  ------------------------------------------------------------------------------
     1 TBLite/Diag 0.40E+00    0.0     3.2010E-10       -26.4309584549 -2.64E+01

  *** SCF run converged in     1 steps ***


  Core Hamiltonian energy:                                    -26.85227511954976
  Repulsive potential energy:                                   0.28898477022597
  Electrostatic energy:                                         0.13731830850387
  Self-consistent dispersion energy:                            0.00000000000000
  Non-self consistent dispersion energy:                       -0.00498641412145
  Correction for halogen bonding:                               0.00000000000000
  Electronic entropic energy:                                  -0.00000000000000
  Fermi energy:                                                -0.34256521660202

  Total energy:                                               -26.43095845494137
  Total energy (extrapolated to T->0):                        -26.43095845494137

 ENERGY| Total FORCE_EVAL ( QS ) energy [hartree]            -26.430958454941369

 -------------------------------------------------------------------------------
 -                                                                             -
 -                                DBCSR STATISTICS                             -
 -                                                                             -
 -------------------------------------------------------------------------------
 COUNTER                                    TOTAL       BLAS       SMM       ACC
 flops     2 x     8 x     2                15360       0.0%    100.0%      0.0%     
 flops     2 x    32 x     2                61440       0.0%    100.0%      0.0%     
 flops     2 x     8 x     4                61440       0.0%    100.0%      0.0%     
 flops     4 x     8 x     2                61440       0.0%    100.0%      0.0%     
 flops     2 x     2 x    40               243200       0.0%    100.0%      0.0%     
 flops     2 x    32 x     4               245760       0.0%    100.0%      0.0%     
 flops     4 x    32 x     2               245760       0.0%    100.0%      0.0%     
 flops     4 x     8 x     4               245760       0.0%    100.0%      0.0%     
 flops     2 x     4 x    40               778240       0.0%    100.0%      0.0%     
 flops     4 x     2 x    40               778240       0.0%    100.0%      0.0%     
 flops     4 x    32 x     4               983040       0.0%    100.0%      0.0%     
 flops     4 x     4 x    40              3502080       0.0%    100.0%      0.0%     
 flops inhomo. stacks                           0       0.0%      0.0%      0.0%
 flops total                         7.221760E+06       0.0%    100.0%      0.0%
 flops max/rank                      7.221760E+06       0.0%    100.0%      0.0%
 matmuls inhomo. stacks                         0       0.0%      0.0%      0.0%
 matmuls total                              10248       0.0%    100.0%      0.0%
 number of processed stacks                   424       0.0%    100.0%      0.0%
 average stack size                                     0.0      24.2       0.0
 marketing flops                     7.027200E+06
 -------------------------------------------------------------------------------
 # multiplications                             91
 max memory usage/rank              13.671514E+09
 # max total images/rank                        1
 # max 3D layers                                1
 # MPI messages exchanged                       0
 -------------------------------------------------------------------------------
 -                                                                             -
 -                      DBCSR MESSAGE PASSING PERFORMANCE                      -
 -                                                                             -
 -------------------------------------------------------------------------------
 ROUTINE             CALLS      AVE VOLUME [Bytes]
 MP_Bcast               13                     12.
 MP_Allreduce          468                     10.
 MP_Alltoall          3115                   8570.
 MP_ISend              364                    678.
 MP_IRecv              364                    678.
 -------------------------------------------------------------------------------

 -------------------------------------------------------------------------------
 -                                                                             -
 -                          OFFLOAD MEMPOOL STATISTICS                         -
 -                                                                             -
 -------------------------------------------------------------------------------
 Memory consumption                Number of allocations  Used [MiB]  Size [MiB]
 Device                                                1           0           0
 Host                                                  1           0           0
 -------------------------------------------------------------------------------

 MEMORY| Estimated peak process memory [MiB]                                 167

 -------------------------------------------------------------------------------
 -                                                                             -
 -                         MESSAGE PASSING PERFORMANCE                         -
 -                                                                             -
 -------------------------------------------------------------------------------

 ROUTINE             CALLS      AVE VOLUME [Bytes]
 MP_Group                1
 MP_Bcast              146                    167.
 MP_Allreduce         1178                     80.
 MP_Sync                77
 MP_comm_split          76
 -------------------------------------------------------------------------------


 -------------------------------------------------------------------------------
 -                                                                             -
 -                           R E F E R E N C E S                               -
 -                                                                             -
 -------------------------------------------------------------------------------
 
 CP2K version 2026.1 (Development Version), the CP2K developers group (2026).
 CP2K is freely available from https://www.cp2k.org/ .
 
 M. Iannuzzi, J. Wilhelm, F. Stein, A. Bussy, H. Elgabarty, D. Golze, A. Hehn, 
 M. Graml, S. Marek, B. Sertcan Gökmen, C. Schran, H. Forbert, R. Z. 
 Khaliullin, A. Kozhevnikov, M. Taillefumier, R. Meli, V. V. Rybkin, M. Brehm, 
 R. Schade, O. Schütt, J. V. Pototschnig, H. Mirhosseini, A. Knüpfer, D. Marx, 
 M. Krack, J. Hutter, T. D. Kühne.
 J. Phys. Chem. B 130, 1237-1310 (2026).
 The CP2K Program Package Made Simple.
 https://doi.org/10.1021/acs.jpcb.5c05851

 A. Katbashev, M. Stahn, T. Rose, V. Alizadeh, M. Friede, C. Plett, P. 
 Steinbach, S. Ehlert.
 J. Phys. Chem. A 129, 2667-2682 (2025).
 Overview on Building Blocks and Applications of Efficient and Robust Extended 
 Tight Binding.
 https://doi.org/10.1021/acs.jpca.4c08263

 T. D. Kühne, M. Iannuzzi, M. Del Ben, V. V. Rybkin, P. Seewald, F. Stein, T. 
 Laino, R. Z. Khaliullin, O. Schütt, F. Schiffmann, D. Golze, J. Wilhelm, S. 
 Chulkov, M. H. Bani-Hashemian, V. Weber, U. Borstnik, M. Taillefumier, A. S. 
 Jakobovits, A. Lazzaro, H. Pabst, T. Müller, R. Schade, M. Guidon, S. 
 Andermatt, N. Holmberg, G. K. Schenter, A. Hehn, A. Bussy, F. Belleflamme, G. 
 Tabacchi, A. Glöß, M. Lass, I. Bethune, C. J. Mundy, C. Plessl, M. Watkins, 
 J. VandeVondele, M. Krack, J. Hutter.
 J. Chem. Phys. 152, 194103 (2020).
 CP2K: An electronic structure and molecular dynamics software package - 
 Quickstep: Efficient and accurate electronic structure calculations.
 https://doi.org/10.1063/5.0007045

 P. Pracht, E. Caldeweyher, S. Ehlert, S. Grimme.
 ChemRxiv, (2019).
 A Robust Non-Self-Consistent Tight-Binding Quantum Chemistry Method for large 
 Molecules.
 https://doi.org/10.26434/chemrxiv.8326202.v1

 S. Grimme, C. Bannwarth, P. Shushkov.
 J. Chem. Theory Comput. 13, 1989 (2017).
 A Robust and Accurate Tight-Binding Quantum Chemical Method for Structures, 
 Vibrational Frequencies, and Noncovalent Interactions of Large Molecular 
 Systems Parametrized for All spd-Block Elements (Z = 1-86).
 https://doi.org/10.1021/acs.jctc.7b00118

 O. Schuett, P. Messmer, J. Hutter, J. VandeVondele.
 Electronic Structure Calculations on Graphics Processing Units, 173-190 (2016).
 GPU-Accelerated Sparse Matrix-Matrix Multiplication for Linear Scaling Density 
 Functional Theory.
 https://doi.org/10.1002/9781118670712.ch8

 A. Heinecke, G. Henry, M. Hutchinson, H. Pabst.
 Proceedings of Intl. Supercomputing Conference, 981-991 (2016).
 LIBXSMM: Accelerating Small Matrix Multiplications by Runtime Code Generation.
 https://doi.org/10.1109/SC.2016.83

 U. Borstnik, J. VandeVondele, V. Weber, J. Hutter.
 Parallel Comput. 40, 47-58 (2014).
 Sparse matrix multiplication: The distributed block-compressed sparse row 
 library.
 https://doi.org/10.1016/j.parco.2014.03.012

 T. D. Kühne, M. Krack, F. R. Mohamed, M. Parrinello.
 Phys. Rev. Lett. 98, 066401 (2007).
 Efficient and accurate Car-Parrinello-like approach to Born-Oppenheimer 
 molecular dynamics.
 https://doi.org/10.1103/PhysRevLett.98.066401

 M. Frigo, S. G. Johnson.
 Proc. IEEE 93, 216-231 (2005).
 The design and implementation of FFTW3.
 https://doi.org/10.1109/JPROC.2004.840301

 J. Kolafa.
 J. Comput. Chem. 25, 335-342 (2004).
 Time-reversible always stable predictor-corrector method for molecular dynamics 
 of polarizable molecules.
 https://doi.org/10.1002/jcc.10385

 N. D. Mermin.
 Phys. Rev. 137, A1441-A1443 (1965).
 Thermal Properties of the Inhomogeneous Electron Gas.
 https://doi.org/10.1103/PhysRev.137.A1441


 -------------------------------------------------------------------------------
 -                                                                             -
 -                                T I M I N G                                  -
 -                                                                             -
 -------------------------------------------------------------------------------
 SUBROUTINE                       CALLS  ASD         SELF TIME        TOTAL TIME
                                MAXIMUM       AVERAGE  MAXIMUM  AVERAGE  MAXIMUM
 CP2K                                 1  1.0    0.002    0.002    0.083    0.083
 cp_geo_opt                           1  2.0    0.000    0.000    0.076    0.076
 geoopt_bfgs                          1  3.0    0.001    0.001    0.076    0.076
 cp_eval_at                           6  4.0    0.000    0.000    0.073    0.073
 qs_forces                            5  5.0    0.000    0.000    0.069    0.069
 qs_energies                          6  5.8    0.000    0.000    0.062    0.062
 scf_env_do_scf                       6  6.8    0.000    0.000    0.048    0.048
 scf_env_do_scf_inner_loop           66  8.0    0.001    0.001    0.048    0.048
 qs_scf_new_mos                      66  9.0    0.000    0.000    0.041    0.041
 cp_dbcsr_plus_fm_fm_t               76 10.8    0.000    0.000    0.021    0.021
 calculate_dm_sparse                 71 10.0    0.000    0.000    0.020    0.020
 dbcsr_multiply_generic              91 11.9    0.001    0.001    0.017    0.017
 copy_dbcsr_to_fm                   147 10.4    0.000    0.000    0.011    0.011
 dbcsr_complete_redistribute        314 12.2    0.006    0.006    0.010    0.010
 eigensolver                         66 10.0    0.001    0.001    0.010    0.010
 make_m2s                           182 12.9    0.001    0.001    0.010    0.010
 cp_fm_syevd                         76 10.6    0.000    0.000    0.009    0.009
 rebuild_ks_matrix                   71  9.8    0.000    0.000    0.009    0.009
 build_tblite_ks_matrix              71 10.8    0.009    0.009    0.009    0.009
 init_scf_run                         6  6.8    0.000    0.000    0.007    0.007
 build_tblite_matrices               11  7.0    0.007    0.007    0.007    0.007
 qs_ks_update_qs_env_forces           5  6.0    0.000    0.000    0.007    0.007
 cp_fm_syevd_base                    76 11.6    0.007    0.007    0.007    0.007
 qs_diis_b_step                      60 10.0    0.000    0.000    0.007    0.007
 scf_env_initial_rho_setup            6  7.8    0.000    0.000    0.007    0.007
 wfi_extrapolate                      6  8.8    0.000    0.000    0.006    0.006
 copy_fm_to_dbcsr                   167 11.8    0.000    0.000    0.006    0.006
 qs_energies_init_hamiltonians        6  6.8    0.000    0.000    0.004    0.004
 make_images                        182 13.9    0.001    0.001    0.004    0.004
 qs_init_subsys                       1  2.0    0.001    0.001    0.004    0.004
 multiply_cannon                     91 12.9    0.001    0.001    0.004    0.004
 cp_dbcsr_sm_fm_multiply             15 10.3    0.000    0.000    0.004    0.004
 dbcsr_finalize                    1155 13.4    0.001    0.001    0.004    0.004
 dbcsr_desymmetrize_deep            147 11.4    0.001    0.001    0.003    0.003
 qs_ks_update_qs_env                 66  9.0    0.000    0.000    0.003    0.003
 dbcsr_crop_matrix                  152 13.8    0.000    0.000    0.003    0.003
 dbcsr_create_new                  2224 13.4    0.002    0.002    0.002    0.002
 reorthogonalize_vectors              5  9.8    0.000    0.000    0.002    0.002
 make_basis_lowdin                    5 10.8    0.000    0.000    0.002    0.002
 cp_dbcsr_sm_fm_multiply_core        15 11.3    0.000    0.000    0.002    0.002
 dbcsr_copy_submatrix               152 14.8    0.001    0.001    0.002    0.002
 qs_env_setup                         1  3.0    0.000    0.000    0.002    0.002
 parallel_gemm_fm_gemm              155 10.6    0.000    0.000    0.002    0.002
 dbcsr_merge_all                    542 14.9    0.001    0.001    0.002    0.002
 cp_fm_gemm                         155 11.6    0.002    0.002    0.002    0.002
 qs_env_rebuild_pw_env               12  6.2    0.000    0.000    0.002    0.002
 pw_env_rebuild                       1  5.0    0.000    0.000    0.002    0.002
 -------------------------------------------------------------------------------

 The number of warnings for this run is : 0
 
 -------------------------------------------------------------------------------
  **** **** ******  **  PROGRAM ENDED AT                 2026-05-23 22:46:20.476
 ***** ** ***  *** **   PROGRAM RAN ON                                spark-c86c
 **    ****   ******    PROGRAM RAN BY                                  kuehne88
 ***** **    ** ** **   PROGRAM PROCESS ID                               2226020
  **** **  *******  **  PROGRAM STOPPED IN /home/kuehne88/periodic-gfn2-benchmar
                                           ks/X23b/runs/molecule_geoopt/GFN1/ura
                                           cil_GFN1_mol_geoopt
