 DBCSR| CPU Multiplication driver                                           XSMM (U)
 DBCSR| Multrec recursion limit                                              512 (U)
 DBCSR| Multiplication stack size                                           1000 (D)
 DBCSR| Maximum elements for images                                    UNLIMITED (U)
 DBCSR| Multiplicative factor virtual images                                   1 (U)
 DBCSR| Use multiplication densification                                       T (D)
 DBCSR| Multiplication size stacks                                             3 (U)
 DBCSR| Use memory pool for CPU allocation                                     F (U)
 DBCSR| Number of 3D layers                                               SINGLE (U)
 DBCSR| Use MPI memory allocation                                              F (U)
 DBCSR| Use RMA algorithm                                                      F (U)
 DBCSR| Use Communication thread                                               T (U)
 DBCSR| Communication thread load                                             87 (D)
 DBCSR| MPI: My process id                                                     0
 DBCSR| MPI: Number of processes                                               1
 DBCSR| OMP: Current number of threads                                         1
 DBCSR| OMP: Max number of threads                                             1
 DBCSR| Split modifier for TAS multiplication algorithm                  1.0E+00 (U)


  **** **** ******  **  PROGRAM STARTED AT               2026-05-23 22:46:22.159
 ***** ** ***  *** **   PROGRAM STARTED ON                            spark-c86c
 **    ****   ******    PROGRAM STARTED BY                              kuehne88
 ***** **    ** ** **   PROGRAM PROCESS ID                               2235779
  **** **  *******  **  PROGRAM STARTED IN /home/kuehne88/periodic-gfn2-benchmar
                                           ks/X23b/runs/crystal_sp/gamma/GFN2/et
                                           hylcarbamate_GFN2_gamma_sp

 CP2K| version string:                 CP2K version 2026.1 (Development Version)
 CP2K| source code revision number:                                   0622d442e4
 CP2K| cp2kflags: omp fftw3 libxc parallel scalapack mpi_f08 xsmm spglib libdftd
 CP2K|            4 dftd4_v3 mctc-lib tblite
 CP2K| is freely available from                            https://www.cp2k.org/
 CP2K| Program compiled at                                   2026-05-23 22:05:08
 CP2K| Program compiled on                                            spark-c86c
 CP2K| Program compiled for                                              aarch64
 CP2K| Data directory path    /home/kuehne88/cp2k-master-tblite-20260523/install
 CP2K| Input file name                          ethylcarbamate_GFN2_gamma_sp.inp

 GLOBAL| Force Environment number                                              1
 GLOBAL| Basis set file name                                           BASIS_SET
 GLOBAL| Potential file name                                           POTENTIAL
 GLOBAL| MM Potential file name                                     MM_POTENTIAL
 GLOBAL| Coordinate file name                                      __STD_INPUT__
 GLOBAL| Method name                                                        CP2K
 GLOBAL| Project name                           ethylcarbamate_GFN2_gamma_energy
 GLOBAL| Run type                                                         ENERGY
 GLOBAL| FFT library                                                       FFTW3
 GLOBAL| Diagonalization library                                       ScaLAPACK
 GLOBAL| Cholesky decomposition library                                ScaLAPACK
 GLOBAL| DGEMM library                                                      BLAS
 GLOBAL| Direct generalized diagonalization requested                          F
 GLOBAL| Orthonormality check for eigenvectors                          DISABLED
 GLOBAL| Matrix multiplication library                                 ScaLAPACK
 GLOBAL| All-to-all communication in single precision                          F
 GLOBAL| FFTs using library dependent lengths                                  F
 GLOBAL| Grid backend                                                       AUTO
 GLOBAL| Global print level                                                  LOW
 GLOBAL| MPI I/O enabled                                                       T
 GLOBAL| Total number of message passing processes                             1
 GLOBAL| Number of distributed systems (nodes)                                 1
 GLOBAL| Number of threads for this process                                    1
 GLOBAL| This output is from process                                           0
 GLOBAL| OpenMP stack size per thread (OMP_STACKSIZE)                    default
 GLOBAL| CPU model name                                                  UNKNOWN
 GLOBAL| CPUID                                                              2200
 GLOBAL| Compiled for CPUID                                                 2000

 *** HINT in environment.F:970 :: The compiler target flags (arm_arch64)   ***
 *** used to build this binary cannot exploit all extensions of this CPU   ***
 *** model (arm_sve256). Consider compiler target flags as part of FCFLAGS ***
 *** and CFLAGS (ARCH file).                                               ***


 MEMORY| system memory details [Kb]
 MEMORY|                        rank 0           min           max       average
 MEMORY| MemTotal            125508532     125508532     125508532     125508532
 MEMORY| MemFree             105541540     105541540     105541540     105541540
 MEMORY| Buffers                866548        866548        866548        866548
 MEMORY| Cached               13222688      13222688      13222688      13222688
 MEMORY| Slab                  1565380       1565380       1565380       1565380
 MEMORY| SReclaimable           889456        889456        889456        889456
 MEMORY| MemLikelyFree       120520232     120520232     120520232     120520232


 GENERATE|  Preliminary Number of Bonds generated:                             0
 GENERATE|  Achieved consistency in connectivity generation.


                  #####   #####        #     #   #     #       #          
                 #     # #     #      #    ##### #     #   # #####  ####  
                 #     # #           #       #   ###   #       #   #    # 
                 #     #  #####     #        #   #  #  #   #   #   ###### 
                 #   # #       #   #         #   #   # #   #   #   #      
                 #    #  #     #  #          #   #  #  # # #   #    #   # 
                  #### #  #####  #           #   ###   ##  #   #     ###  

                                   GFN2-xTB  
                                 Version 0.0                       
                            Johann V. Pototschnig                  



 TOTAL NUMBERS AND MAXIMUM NUMBERS

  Total number of            - Atomic kinds:                                   4
                             - Atoms:                                         26
                             - Shell sets:                                    38
                             - Shells:                                        38
                             - Primitive Cartesian functions:                138
                             - Cartesian basis functions:                     62
                             - Spherical basis functions:                     62

  Maximum angular momentum of the orbital basis functions:                     1


 SCF PARAMETERS         Density guess:                                     MOPAC
                        --------------------------------------------------------
                        max_scf:                                             300
                        max_scf_history:                                       0
                        max_diis:                                              4
                        --------------------------------------------------------
                        eps_scf:                                        1.00E-09
                        eps_scf_history:                                0.00E+00
                        eps_diis:                                       1.00E-01
                        eps_eigval:                                     1.00E-05
                        --------------------------------------------------------
                        level_shift [a.u.]:                             0.000000
                        added MOs                                        26    0
                        --------------------------------------------------------
                        Mixing method:                           DIRECT_P_MIXING
                        --------------------------------------------------------
                        Smear method:                                FERMI_DIRAC
                        Electronic temperature [K]:                        300.0
                        Electronic temperature [a.u.]:                  9.50E-04
                        Accuracy threshold:                             1.00E-06
                        --------------------------------------------------------
                        No outer SCF

 Extrapolation method: initial_guess

 Number of electrons:                                                         72
 Number of occupied orbitals:                                                 36
 Number of molecular orbitals:                                                62

 Number of orbital functions:                                                 62
 Number of independent orbital functions:                                     62


 SCF WAVEFUNCTION OPTIMIZATION

  Step     Update method      Time    Convergence         Total energy    Change
  ------------------------------------------------------------------------------
     1 TBLite/Diag 0.40E+00    0.0     1.11864480       -41.6214127157 -4.16E+01
     2 TBLite/Diag 0.40E+00    0.0     0.32100224       -42.0159763372 -3.95E-01
     3 TBLite/Diag 0.40E+00    0.0     0.07410402       -42.0262008961 -1.02E-02
     4 TBLite/Diag 0.40E+00    0.0     0.04893039       -42.0306092012 -4.41E-03
     5 TBLite/Diag 0.40E+00    0.0     0.02032891       -42.0317051976 -1.10E-03
     6 TBLite/Diag 0.40E+00    0.0     0.00352627       -42.0317631687 -5.80E-05
     7 TBLite/Diag 0.40E+00    0.0     0.00125395       -42.0317668553 -3.69E-06
     8 TBLite/Diag 0.40E+00    0.0     0.00026105       -42.0317676115 -7.56E-07
     9 TBLite/Diag 0.40E+00    0.0     0.00018124       -42.0317676928 -8.13E-08
    10 TBLite/Diag 0.40E+00    0.0     0.00013057       -42.0317676877  5.04E-09
    11 TBLite/Diag 0.40E+00    0.0     0.00007483       -42.0317677089 -2.11E-08
    12 TBLite/Diag 0.40E+00    0.0     0.00001115       -42.0317677087  1.27E-10
    13 TBLite/Diag 0.40E+00    0.0     0.00000759       -42.0317677090 -2.21E-10
    14 TBLite/Diag 0.40E+00    0.0     0.00000115       -42.0317677090 -2.87E-12
    15 TBLite/Diag 0.40E+00    0.0     0.00000027       -42.0317677090 -6.39E-14
    16 TBLite/Diag 0.40E+00    0.0     0.00000014       -42.0317677090 -6.39E-14
    17 TBLite/Diag 0.40E+00    0.0     0.00000001       -42.0317677090 -7.11E-15
    18 TBLite/Diag 0.40E+00    0.0     1.3388E-09       -42.0317677090  3.55E-14
    19 TBLite/Diag 0.40E+00    0.0     1.1235E-09       -42.0317677090 -1.42E-14
    20 TBLite/Diag 0.40E+00    0.0     3.7362E-10       -42.0317677090 -7.11E-15

  *** SCF run converged in    20 steps ***


  Core Hamiltonian energy:                                    -42.74787721014958
  Repulsive potential energy:                                   0.64328224873825
  Electrostatic energy:                                         0.11205063857969
  Self-consistent dispersion energy:                           -0.04772892428270
  Non-self consistent dispersion energy:                        0.00850553815709
  Correction for halogen bonding:                               0.00000000000000
  Electronic entropic energy:                                  -0.00000000000000
  Fermi energy:                                                -0.23573723568725

  Total energy:                                               -42.03176770895725
  Total energy (extrapolated to T->0):                        -42.03176770895725

 ENERGY| Total FORCE_EVAL ( QS ) energy [hartree]            -42.031767708957254

 -------------------------------------------------------------------------------
 -                                                                             -
 -                                DBCSR STATISTICS                             -
 -                                                                             -
 -------------------------------------------------------------------------------
 COUNTER                                    TOTAL       BLAS       SMM       ACC
 flops     1 x     1 x    62               260400       0.0%    100.0%      0.0%     
 flops     4 x     1 x    62               833280       0.0%    100.0%      0.0%     
 flops     1 x     4 x    62               833280       0.0%    100.0%      0.0%     
 flops     4 x     4 x    62              3095040       0.0%    100.0%      0.0%     
 flops inhomo. stacks                           0       0.0%      0.0%      0.0%
 flops total                         5.022000E+06       0.0%    100.0%      0.0%
 flops max/rank                      5.022000E+06       0.0%    100.0%      0.0%
 matmuls inhomo. stacks                         0       0.0%      0.0%      0.0%
 matmuls total                               7020       0.0%    100.0%      0.0%
 number of processed stacks                    80       0.0%    100.0%      0.0%
 average stack size                                     0.0      87.8       0.0
 marketing flops                     5.535360E+06
 -------------------------------------------------------------------------------
 # multiplications                             20
 max memory usage/rank              13.670842E+09
 # max total images/rank                        1
 # max 3D layers                                1
 # MPI messages exchanged                       0
 -------------------------------------------------------------------------------
 -                                                                             -
 -                      DBCSR MESSAGE PASSING PERFORMANCE                      -
 -                                                                             -
 -------------------------------------------------------------------------------
 ROUTINE             CALLS      AVE VOLUME [Bytes]
 MP_Bcast                5                     12.
 MP_Allreduce          127                     11.
 MP_Alltoall           800                  23802.
 MP_ISend               80                   1040.
 MP_IRecv               80                   1040.
 -------------------------------------------------------------------------------

 -------------------------------------------------------------------------------
 -                                                                             -
 -                          OFFLOAD MEMPOOL STATISTICS                         -
 -                                                                             -
 -------------------------------------------------------------------------------
 Memory consumption                Number of allocations  Used [MiB]  Size [MiB]
 Device                                                1           0           0
 Host                                                  1           0           0
 -------------------------------------------------------------------------------

 MEMORY| Estimated peak process memory [MiB]                                 162

 -------------------------------------------------------------------------------
 -                                                                             -
 -                         MESSAGE PASSING PERFORMANCE                         -
 -                                                                             -
 -------------------------------------------------------------------------------

 ROUTINE             CALLS      AVE VOLUME [Bytes]
 MP_Group                1
 MP_Bcast               40                    250.
 MP_Allreduce          577                    191.
 MP_Sync                21
 MP_comm_split          20
 -------------------------------------------------------------------------------


 -------------------------------------------------------------------------------
 -                                                                             -
 -                           R E F E R E N C E S                               -
 -                                                                             -
 -------------------------------------------------------------------------------
 
 CP2K version 2026.1 (Development Version), the CP2K developers group (2026).
 CP2K is freely available from https://www.cp2k.org/ .
 
 M. Iannuzzi, J. Wilhelm, F. Stein, A. Bussy, H. Elgabarty, D. Golze, A. Hehn, 
 M. Graml, S. Marek, B. Sertcan Gökmen, C. Schran, H. Forbert, R. Z. 
 Khaliullin, A. Kozhevnikov, M. Taillefumier, R. Meli, V. V. Rybkin, M. Brehm, 
 R. Schade, O. Schütt, J. V. Pototschnig, H. Mirhosseini, A. Knüpfer, D. Marx, 
 M. Krack, J. Hutter, T. D. Kühne.
 J. Phys. Chem. B 130, 1237-1310 (2026).
 The CP2K Program Package Made Simple.
 https://doi.org/10.1021/acs.jpcb.5c05851

 A. Katbashev, M. Stahn, T. Rose, V. Alizadeh, M. Friede, C. Plett, P. 
 Steinbach, S. Ehlert.
 J. Phys. Chem. A 129, 2667-2682 (2025).
 Overview on Building Blocks and Applications of Efficient and Robust Extended 
 Tight Binding.
 https://doi.org/10.1021/acs.jpca.4c08263

 T. D. Kühne, M. Iannuzzi, M. Del Ben, V. V. Rybkin, P. Seewald, F. Stein, T. 
 Laino, R. Z. Khaliullin, O. Schütt, F. Schiffmann, D. Golze, J. Wilhelm, S. 
 Chulkov, M. H. Bani-Hashemian, V. Weber, U. Borstnik, M. Taillefumier, A. S. 
 Jakobovits, A. Lazzaro, H. Pabst, T. Müller, R. Schade, M. Guidon, S. 
 Andermatt, N. Holmberg, G. K. Schenter, A. Hehn, A. Bussy, F. Belleflamme, G. 
 Tabacchi, A. Glöß, M. Lass, I. Bethune, C. J. Mundy, C. Plessl, M. Watkins, 
 J. VandeVondele, M. Krack, J. Hutter.
 J. Chem. Phys. 152, 194103 (2020).
 CP2K: An electronic structure and molecular dynamics software package - 
 Quickstep: Efficient and accurate electronic structure calculations.
 https://doi.org/10.1063/5.0007045

 P. Pracht, E. Caldeweyher, S. Ehlert, S. Grimme.
 ChemRxiv, (2019).
 A Robust Non-Self-Consistent Tight-Binding Quantum Chemistry Method for large 
 Molecules.
 https://doi.org/10.26434/chemrxiv.8326202.v1

 S. Grimme, C. Bannwarth, P. Shushkov.
 J. Chem. Theory Comput. 13, 1989 (2017).
 A Robust and Accurate Tight-Binding Quantum Chemical Method for Structures, 
 Vibrational Frequencies, and Noncovalent Interactions of Large Molecular 
 Systems Parametrized for All spd-Block Elements (Z = 1-86).
 https://doi.org/10.1021/acs.jctc.7b00118

 O. Schuett, P. Messmer, J. Hutter, J. VandeVondele.
 Electronic Structure Calculations on Graphics Processing Units, 173-190 (2016).
 GPU-Accelerated Sparse Matrix-Matrix Multiplication for Linear Scaling Density 
 Functional Theory.
 https://doi.org/10.1002/9781118670712.ch8

 A. Heinecke, G. Henry, M. Hutchinson, H. Pabst.
 Proceedings of Intl. Supercomputing Conference, 981-991 (2016).
 LIBXSMM: Accelerating Small Matrix Multiplications by Runtime Code Generation.
 https://doi.org/10.1109/SC.2016.83

 U. Borstnik, J. VandeVondele, V. Weber, J. Hutter.
 Parallel Comput. 40, 47-58 (2014).
 Sparse matrix multiplication: The distributed block-compressed sparse row 
 library.
 https://doi.org/10.1016/j.parco.2014.03.012

 M. Frigo, S. G. Johnson.
 Proc. IEEE 93, 216-231 (2005).
 The design and implementation of FFTW3.
 https://doi.org/10.1109/JPROC.2004.840301

 N. D. Mermin.
 Phys. Rev. 137, A1441-A1443 (1965).
 Thermal Properties of the Inhomogeneous Electron Gas.
 https://doi.org/10.1103/PhysRev.137.A1441


 -------------------------------------------------------------------------------
 -                                                                             -
 -                                T I M I N G                                  -
 -                                                                             -
 -------------------------------------------------------------------------------
 SUBROUTINE                       CALLS  ASD         SELF TIME        TOTAL TIME
                                MAXIMUM       AVERAGE  MAXIMUM  AVERAGE  MAXIMUM
 CP2K                                 1  1.0    0.002    0.002    0.187    0.187
 qs_energies                          1  2.0    0.000    0.000    0.182    0.182
 qs_energies_init_hamiltonians        1  3.0    0.000    0.000    0.139    0.139
 build_tblite_matrices                1  4.0    0.131    0.131    0.138    0.138
 scf_env_do_scf                       1  3.0    0.000    0.000    0.043    0.043
 scf_env_do_scf_inner_loop           20  4.0    0.006    0.006    0.043    0.043
 qs_scf_new_mos                      20  5.0    0.000    0.000    0.023    0.023
 qs_ks_update_qs_env                 20  5.0    0.000    0.000    0.012    0.012
 rebuild_ks_matrix                   20  6.0    0.000    0.000    0.012    0.012
 build_tblite_ks_matrix              20  7.0    0.012    0.012    0.012    0.012
 calculate_dm_sparse                 20  6.0    0.000    0.000    0.008    0.008
 cp_dbcsr_plus_fm_fm_t               20  7.0    0.000    0.000    0.008    0.008
 copy_dbcsr_to_fm                    40  6.4    0.000    0.000    0.007    0.007
 eigensolver                         20  6.0    0.000    0.000    0.006    0.006
 tb_get_multipole                     1  5.0    0.005    0.005    0.006    0.006
 dbcsr_complete_redistribute         80  8.2    0.005    0.005    0.006    0.006
 dbcsr_multiply_generic              20  8.0    0.000    0.000    0.006    0.006
 cp_fm_syevd                         20  7.0    0.000    0.000    0.005    0.005
 qs_diis_b_step                      19  6.0    0.000    0.000    0.004    0.004
 cp_fm_syevd_base                    20  8.0    0.004    0.004    0.004    0.004
 -------------------------------------------------------------------------------

 The number of warnings for this run is : 0
 
 -------------------------------------------------------------------------------
  **** **** ******  **  PROGRAM ENDED AT                 2026-05-23 22:46:22.954
 ***** ** ***  *** **   PROGRAM RAN ON                                spark-c86c
 **    ****   ******    PROGRAM RAN BY                                  kuehne88
 ***** **    ** ** **   PROGRAM PROCESS ID                               2235779
  **** **  *******  **  PROGRAM STOPPED IN /home/kuehne88/periodic-gfn2-benchmar
                                           ks/X23b/runs/crystal_sp/gamma/GFN2/et
                                           hylcarbamate_GFN2_gamma_sp
