 DBCSR| CPU Multiplication driver                                           XSMM (U)
 DBCSR| Multrec recursion limit                                              512 (U)
 DBCSR| Multiplication stack size                                           1000 (D)
 DBCSR| Maximum elements for images                                    UNLIMITED (U)
 DBCSR| Multiplicative factor virtual images                                   1 (U)
 DBCSR| Use multiplication densification                                       T (D)
 DBCSR| Multiplication size stacks                                             3 (U)
 DBCSR| Use memory pool for CPU allocation                                     F (U)
 DBCSR| Number of 3D layers                                               SINGLE (U)
 DBCSR| Use MPI memory allocation                                              F (U)
 DBCSR| Use RMA algorithm                                                      F (U)
 DBCSR| Use Communication thread                                               T (U)
 DBCSR| Communication thread load                                             75 (D)
 DBCSR| MPI: My process id                                                     0
 DBCSR| MPI: Number of processes                                               1
 DBCSR| OMP: Current number of threads                                         4
 DBCSR| OMP: Max number of threads                                             4
 DBCSR| Split modifier for TAS multiplication algorithm                  1.0E+00 (U)


  **** **** ******  **  PROGRAM STARTED AT               2026-05-23 19:13:50.903
 ***** ** ***  *** **   PROGRAM STARTED ON                            spark-c86c
 **    ****   ******    PROGRAM STARTED BY                              kuehne88
 ***** **    ** ** **   PROGRAM PROCESS ID                               2106854
  **** **  *******  **  PROGRAM STARTED IN /home/kuehne88/dmc-ice13-cp2k-bench/r
                                           uns/GFN1/XV

 CP2K| version string:                 CP2K version 2026.1 (Development Version)
 CP2K| source code revision number:                                   95e0cafc31
 CP2K| cp2kflags: omp libint fftw3 libxc parallel scalapack mpi_f08 xsmm spglib 
 CP2K|            libdftd4 dftd4_v3 mctc-lib tblite
 CP2K| is freely available from                            https://www.cp2k.org/
 CP2K| Program compiled at                                   2026-05-10 16:03:07
 CP2K| Program compiled on                                            spark-c86c
 CP2K| Program compiled for                                              aarch64
 CP2K| Data directory path                     /home/kuehne88/cp2k-xtb/cp2k/data
 CP2K| Input file name                                           ice_XV_GFN1.inp

 GLOBAL| Force Environment number                                              1
 GLOBAL| Basis set file name                                           BASIS_SET
 GLOBAL| Potential file name                                           POTENTIAL
 GLOBAL| MM Potential file name                                     MM_POTENTIAL
 GLOBAL| Coordinate file name                                      __STD_INPUT__
 GLOBAL| Method name                                                        CP2K
 GLOBAL| Project name                                                ice_XV_GFN1
 GLOBAL| Run type                                                         ENERGY
 GLOBAL| FFT library                                                       FFTW3
 GLOBAL| Diagonalization library                                       ScaLAPACK
 GLOBAL| Cholesky decomposition library                                ScaLAPACK
 GLOBAL| DGEMM library                                                      BLAS
 GLOBAL| Direct generalized diagonalization requested                          F
 GLOBAL| Orthonormality check for eigenvectors                          DISABLED
 GLOBAL| Matrix multiplication library                                 ScaLAPACK
 GLOBAL| All-to-all communication in single precision                          F
 GLOBAL| FFTs using library dependent lengths                                  F
 GLOBAL| Grid backend                                                       AUTO
 GLOBAL| Global print level                                                  LOW
 GLOBAL| MPI I/O enabled                                                       T
 GLOBAL| Total number of message passing processes                             1
 GLOBAL| Number of distributed systems (nodes)                                 1
 GLOBAL| Number of threads for this process                                    4
 GLOBAL| This output is from process                                           0
 GLOBAL| OpenMP stack size per thread (OMP_STACKSIZE)                    default
 GLOBAL| CPU model name                                                  UNKNOWN
 GLOBAL| CPUID                                                              2200
 GLOBAL| Compiled for CPUID                                                 2000

 *** HINT in environment.F:974 :: The compiler target flags (arm_arch64)   ***
 *** used to build this binary cannot exploit all extensions of this CPU   ***
 *** model (arm_sve256). Consider compiler target flags as part of FCFLAGS ***
 *** and CFLAGS (ARCH file).                                               ***


 MEMORY| system memory details [Kb]
 MEMORY|                        rank 0           min           max       average
 MEMORY| MemTotal            125508532     125508532     125508532     125508532
 MEMORY| MemFree             116480496     116480496     116480496     116480496
 MEMORY| Buffers                361232        361232        361232        361232
 MEMORY| Cached                5063684       5063684       5063684       5063684
 MEMORY| Slab                  1132904       1132904       1132904       1132904
 MEMORY| SReclaimable           475528        475528        475528        475528
 MEMORY| MemLikelyFree       122380940     122380940     122380940     122380940


 *** WARNING in cell_methods.F:457 :: Cell vectors are read but cell   ***
 *** matrix is not a lower triangle, not conforming to the program     ***
 *** convention that A lies along the X-axis and B is in the XY plane. ***


 GENERATE|  Preliminary Number of Bonds generated:                             0
 GENERATE|  Achieved consistency in connectivity generation.


                  #####   #####        #     #   #     #       #          
                 #     # #     #      #    ##### #     #   # #####  ####  
                 #     # #           #       #   ###   #       #   #    # 
                 #     #  #####     #        #   #  #  #   #   #   ###### 
                 #   # #       #   #         #   #   # #   #   #   #      
                 #    #  #     #  #          #   #  #  # # #   #    #   # 
                  #### #  #####  #           #   ###   ##  #   #     ###  

                                   GFN1-xTB  
                                 Version 0.0                       
                            Johann V. Pototschnig                  



 TOTAL NUMBERS AND MAXIMUM NUMBERS

  Total number of            - Atomic kinds:                                   2
                             - Atoms:                                         30
                             - Shell sets:                                    60
                             - Shells:                                        60
                             - Primitive Cartesian functions:                340
                             - Cartesian basis functions:                     80
                             - Spherical basis functions:                     80

  Maximum angular momentum of the orbital basis functions:                     1


 SCF PARAMETERS         Density guess:                                     MOPAC
                        --------------------------------------------------------
                        max_scf:                                             300
                        max_scf_history:                                       0
                        max_diis:                                              4
                        --------------------------------------------------------
                        eps_scf:                                        1.00E-09
                        eps_scf_history:                                0.00E+00
                        eps_diis:                                       1.00E-01
                        eps_eigval:                                     1.00E-05
                        --------------------------------------------------------
                        level_shift [a.u.]:                             0.000000
                        added MOs                                        40    0
                        --------------------------------------------------------
                        Mixing method:                           DIRECT_P_MIXING
                        --------------------------------------------------------
                        Smear method:                                FERMI_DIRAC
                        Electronic temperature [K]:                        300.0
                        Electronic temperature [a.u.]:                  9.50E-04
                        Accuracy threshold:                             1.00E-06
                        --------------------------------------------------------
                        No outer SCF

 Extrapolation method: initial_guess

 Number of electrons:                                                         80
 Number of occupied orbitals:                                                 40
 Number of molecular orbitals:                                                80

 Number of orbital functions:                                                 80
 Number of independent orbital functions:                                     80


 SCF WAVEFUNCTION OPTIMIZATION

  Step     Update method      Time    Convergence         Total energy    Change
  ------------------------------------------------------------------------------
     1 TBLite/Diag 0.40E+00    0.0     0.80683820       -57.5871258243 -5.76E+01
     2 TBLite/Diag 0.40E+00    0.0     0.11702184       -57.8615514944 -2.74E-01
     3 TBLite/Diag 0.40E+00    0.0     0.09116177       -57.9190327754 -5.75E-02
     4 TBLite/Diag 0.40E+00    0.0     0.01691856       -57.9197710490 -7.38E-04
     5 TBLite/Diag 0.40E+00    0.0     0.00619667       -57.9200488580 -2.78E-04
     6 TBLite/Diag 0.40E+00    0.0     0.00053703       -57.9200497671 -9.09E-07
     7 TBLite/Diag 0.40E+00    0.0     0.00011324       -57.9200498163 -4.92E-08
     8 TBLite/Diag 0.40E+00    0.0     0.00003203       -57.9200498239 -7.57E-09
     9 TBLite/Diag 0.40E+00    0.0     0.00000092       -57.9200498239 -3.02E-12
    10 TBLite/Diag 0.40E+00    0.0     0.00000029       -57.9200498239 -5.68E-13
    11 TBLite/Diag 0.40E+00    0.0     0.00000004       -57.9200498239 -2.84E-14
    12 TBLite/Diag 0.40E+00    0.0     4.1072E-09       -57.9200498239 -7.11E-15
    13 TBLite/Diag 0.40E+00    0.0     2.0817E-10       -57.9200498239  4.26E-14

  *** SCF run converged in    13 steps ***


  Core Hamiltonian energy:                                    -58.62094858497748
  Repulsive potential energy:                                   0.28309711240460
  Electrostatic energy:                                         0.45235141304575
  Self-consistent dispersion energy:                            0.00000000000000
  Non-self consistent dispersion energy:                       -0.03454976438213
  Correction for halogen bonding:                               0.00000000000000
  Electronic entropic energy:                                  -0.00000000000000
  Fermi energy:                                                -0.23282279639683

  Total energy:                                               -57.92004982390926
  Total energy (extrapolated to T->0):                        -57.92004982390926

 ENERGY| Total FORCE_EVAL ( QS ) energy [hartree]            -57.920049823909260

 -------------------------------------------------------------------------------
 -                                                                             -
 -                                DBCSR STATISTICS                             -
 -                                                                             -
 -------------------------------------------------------------------------------
 COUNTER                                    TOTAL       BLAS       SMM       ACC
 flops     4 x     2 x    80              1664000       0.0%    100.0%      0.0%     
 flops     2 x     4 x    80              1664000       0.0%    100.0%      0.0%     
 flops     2 x     2 x    80              1747200       0.0%    100.0%      0.0%     
 flops     4 x     4 x    80              1830400       0.0%    100.0%      0.0%     
 flops inhomo. stacks                           0       0.0%      0.0%      0.0%
 flops total                         6.905600E+06       0.0%    100.0%      0.0%
 flops max/rank                      6.905600E+06       0.0%    100.0%      0.0%
 matmuls inhomo. stacks                         0       0.0%      0.0%      0.0%
 matmuls total                               6045       0.0%    100.0%      0.0%
 number of processed stacks                   208       0.0%    100.0%      0.0%
 average stack size                                     0.0      29.1       0.0
 marketing flops                     6.656000E+06
 -------------------------------------------------------------------------------
 # multiplications                             13
 max memory usage/rank              14.037774E+09
 # max total images/rank                        1
 # max 3D layers                                1
 # MPI messages exchanged                       0
 -------------------------------------------------------------------------------
 -                                                                             -
 -                      DBCSR MESSAGE PASSING PERFORMANCE                      -
 -                                                                             -
 -------------------------------------------------------------------------------
 ROUTINE             CALLS      AVE VOLUME [Bytes]
 MP_Bcast                5                     12.
 MP_Allreduce           92                     13.
 MP_Alltoall           520                  37347.
 MP_ISend               52                   1800.
 MP_IRecv               52                   1800.
 -------------------------------------------------------------------------------

 -------------------------------------------------------------------------------
 -                                                                             -
 -                          OFFLOAD MEMPOOL STATISTICS                         -
 -                                                                             -
 -------------------------------------------------------------------------------
 Memory consumption                Number of allocations  Used [MiB]  Size [MiB]
 Device                                                1           0           0
 Host                                                  1           0           0
 -------------------------------------------------------------------------------

 MEMORY| Estimated peak process memory [MiB]                                 167

 -------------------------------------------------------------------------------
 -                                                                             -
 -                         MESSAGE PASSING PERFORMANCE                         -
 -                                                                             -
 -------------------------------------------------------------------------------

 ROUTINE             CALLS      AVE VOLUME [Bytes]
 MP_Group                1
 MP_Bcast               26                    322.
 MP_Allreduce          154                    174.
 MP_Sync                14
 MP_comm_split          13
 -------------------------------------------------------------------------------


 -------------------------------------------------------------------------------
 -                                                                             -
 -                           R E F E R E N C E S                               -
 -                                                                             -
 -------------------------------------------------------------------------------
 
 CP2K version 2026.1 (Development Version), the CP2K developers group (2026).
 CP2K is freely available from https://www.cp2k.org/ .
 
 M. Iannuzzi, J. Wilhelm, F. Stein, A. Bussy, H. Elgabarty, D. Golze, A. Hehn, 
 M. Graml, S. Marek, B. Sertcan Gökmen, C. Schran, H. Forbert, R. Z. 
 Khaliullin, A. Kozhevnikov, M. Taillefumier, R. Meli, V. V. Rybkin, M. Brehm, 
 R. Schade, O. Schütt, J. V. Pototschnig, H. Mirhosseini, A. Knüpfer, D. Marx, 
 M. Krack, J. Hutter, T. D. Kühne.
 J. Phys. Chem. B 130, 1237-1310 (2026).
 The CP2K Program Package Made Simple.
 https://doi.org/10.1021/acs.jpcb.5c05851

 A. Katbashev, M. Stahn, T. Rose, V. Alizadeh, M. Friede, C. Plett, P. 
 Steinbach, S. Ehlert.
 J. Phys. Chem. A 129, 2667-2682 (2025).
 Overview on Building Blocks and Applications of Efficient and Robust Extended 
 Tight Binding.
 https://doi.org/10.1021/acs.jpca.4c08263

 T. D. Kühne, M. Iannuzzi, M. Del Ben, V. V. Rybkin, P. Seewald, F. Stein, T. 
 Laino, R. Z. Khaliullin, O. Schütt, F. Schiffmann, D. Golze, J. Wilhelm, S. 
 Chulkov, M. H. Bani-Hashemian, V. Weber, U. Borstnik, M. Taillefumier, A. S. 
 Jakobovits, A. Lazzaro, H. Pabst, T. Müller, R. Schade, M. Guidon, S. 
 Andermatt, N. Holmberg, G. K. Schenter, A. Hehn, A. Bussy, F. Belleflamme, G. 
 Tabacchi, A. Glöß, M. Lass, I. Bethune, C. J. Mundy, C. Plessl, M. Watkins, 
 J. VandeVondele, M. Krack, J. Hutter.
 J. Chem. Phys. 152, 194103 (2020).
 CP2K: An electronic structure and molecular dynamics software package - 
 Quickstep: Efficient and accurate electronic structure calculations.
 https://doi.org/10.1063/5.0007045

 P. Pracht, E. Caldeweyher, S. Ehlert, S. Grimme.
 ChemRxiv, (2019).
 A Robust Non-Self-Consistent Tight-Binding Quantum Chemistry Method for large 
 Molecules.
 https://doi.org/10.26434/chemrxiv.8326202.v1

 S. Grimme, C. Bannwarth, P. Shushkov.
 J. Chem. Theory Comput. 13, 1989 (2017).
 A Robust and Accurate Tight-Binding Quantum Chemical Method for Structures, 
 Vibrational Frequencies, and Noncovalent Interactions of Large Molecular 
 Systems Parametrized for All spd-Block Elements (Z = 1-86).
 https://doi.org/10.1021/acs.jctc.7b00118

 O. Schuett, P. Messmer, J. Hutter, J. VandeVondele.
 Electronic Structure Calculations on Graphics Processing Units, 173-190 (2016).
 GPU-Accelerated Sparse Matrix-Matrix Multiplication for Linear Scaling Density 
 Functional Theory.
 https://doi.org/10.1002/9781118670712.ch8

 A. Heinecke, G. Henry, M. Hutchinson, H. Pabst.
 Proceedings of Intl. Supercomputing Conference, 981-991 (2016).
 LIBXSMM: Accelerating Small Matrix Multiplications by Runtime Code Generation.
 https://doi.org/10.1109/SC.2016.83

 U. Borstnik, J. VandeVondele, V. Weber, J. Hutter.
 Parallel Comput. 40, 47-58 (2014).
 Sparse matrix multiplication: The distributed block-compressed sparse row 
 library.
 https://doi.org/10.1016/j.parco.2014.03.012

 M. Frigo, S. G. Johnson.
 Proc. IEEE 93, 216-231 (2005).
 The design and implementation of FFTW3.
 https://doi.org/10.1109/JPROC.2004.840301

 N. D. Mermin.
 Phys. Rev. 137, A1441-A1443 (1965).
 Thermal Properties of the Inhomogeneous Electron Gas.
 https://doi.org/10.1103/PhysRev.137.A1441


 -------------------------------------------------------------------------------
 -                                                                             -
 -                                T I M I N G                                  -
 -                                                                             -
 -------------------------------------------------------------------------------
 SUBROUTINE                       CALLS  ASD         SELF TIME        TOTAL TIME
                                MAXIMUM       AVERAGE  MAXIMUM  AVERAGE  MAXIMUM
 CP2K                                 1  1.0    0.002    0.002    0.076    0.076
 qs_energies                          1  2.0    0.000    0.000    0.071    0.071
 scf_env_do_scf                       1  3.0    0.000    0.000    0.038    0.038
 scf_env_do_scf_inner_loop           13  4.0    0.001    0.001    0.038    0.038
 qs_scf_new_mos                      13  5.0    0.000    0.000    0.032    0.032
 qs_energies_init_hamiltonians        1  3.0    0.000    0.000    0.026    0.026
 build_tblite_matrices                1  4.0    0.023    0.023    0.024    0.024
 copy_dbcsr_to_fm                    26  6.4    0.000    0.000    0.015    0.015
 dbcsr_complete_redistribute         52  8.2    0.004    0.004    0.013    0.013
 calculate_dm_sparse                 13  6.0    0.000    0.000    0.011    0.011
 cp_dbcsr_plus_fm_fm_t               13  7.0    0.000    0.000    0.011    0.011
 dbcsr_finalize                     181  9.9    0.000    0.000    0.009    0.009
 dbcsr_merge_all                     91 11.0    0.007    0.007    0.008    0.008
 dbcsr_create_new                   358  9.5    0.007    0.007    0.007    0.007
 eigensolver                         13  6.0    0.000    0.000    0.007    0.007
 dbcsr_multiply_generic              13  8.0    0.000    0.000    0.007    0.007
 cp_fm_syevd                         13  7.0    0.000    0.000    0.005    0.005
 qs_diis_b_step                      12  6.0    0.000    0.000    0.005    0.005
 cp_fm_syevd_base                    13  8.0    0.005    0.005    0.005    0.005
 make_m2s                            26  9.0    0.000    0.000    0.004    0.004
 qs_ks_update_qs_env                 13  5.0    0.000    0.000    0.004    0.004
 init_scf_run                         1  3.0    0.000    0.000    0.003    0.003
 rebuild_ks_matrix                   13  6.0    0.000    0.000    0.003    0.003
 build_tblite_ks_matrix              13  7.0    0.002    0.002    0.003    0.003
 dbcsr_copy                          79  8.4    0.003    0.003    0.003    0.003
 copy_fm_to_dbcsr                    26  8.0    0.000    0.000    0.003    0.003
 qs_scf_ensure_mos                    1  3.0    0.000    0.000    0.003    0.003
 qs_init_subsys                       1  2.0    0.001    0.001    0.002    0.002
 dbcsr_crop_matrix                   26 10.0    0.000    0.000    0.002    0.002
 dbcsr_desymmetrize_deep             26  7.4    0.001    0.001    0.002    0.002
 dbcsr_copy_submatrix                26 11.0    0.000    0.000    0.002    0.002
 -------------------------------------------------------------------------------

 The number of warnings for this run is : 1
 
 -------------------------------------------------------------------------------
  **** **** ******  **  PROGRAM ENDED AT                 2026-05-23 19:13:51.411
 ***** ** ***  *** **   PROGRAM RAN ON                                spark-c86c
 **    ****   ******    PROGRAM RAN BY                                  kuehne88
 ***** **    ** ** **   PROGRAM PROCESS ID                               2106854
  **** **  *******  **  PROGRAM STOPPED IN /home/kuehne88/dmc-ice13-cp2k-bench/r
                                           uns/GFN1/XV
