 DBCSR| CPU Multiplication driver                                           BLAS (U)
 DBCSR| Multrec recursion limit                                              512 (U)
 DBCSR| Multiplication stack size                                           1000 (D)
 DBCSR| Maximum elements for images                                    UNLIMITED (U)
 DBCSR| Multiplicative factor virtual images                                   1 (U)
 DBCSR| Use multiplication densification                                       T (D)
 DBCSR| Multiplication size stacks                                             3 (U)
 DBCSR| Use memory pool for CPU allocation                                     F (U)
 DBCSR| Number of 3D layers                                               SINGLE (U)
 DBCSR| Use MPI memory allocation                                              F (U)
 DBCSR| Use RMA algorithm                                                      F (U)
 DBCSR| Use Communication thread                                               T (U)
 DBCSR| Communication thread load                                             87 (D)
 DBCSR| MPI: My process id                                                     0
 DBCSR| MPI: Number of processes                                               1
 DBCSR| OMP: Current number of threads                                         1
 DBCSR| OMP: Max number of threads                                             1
 DBCSR| Split modifier for TAS multiplication algorithm                  1.0E+00 (U)


  **** **** ******  **  PROGRAM STARTED AT               2026-07-16 17:46:53.705
 ***** ** ***  *** **   PROGRAM STARTED ON        MacBook-Pro-von-Thomas-3.local
 **    ****   ******    PROGRAM STARTED BY                               tkuehne
 ***** **    ** ** **   PROGRAM PROCESS ID                                 93548
  **** **  *******  **  PROGRAM STARTED IN /private/tmp/gxtb_batch_runtime/pbc_2
                                           d_full_b1

 CP2K| version string:                 CP2K version 2026.1 (Development Version)
 CP2K| source code revision number:                                   28df9380ab
 CP2K| cp2kflags: omp parallel scalapack no_statm_access spglib s_dftd3 mctc-lib
 CP2K|             tblite tblite_gxtb
 CP2K| is freely available from                            https://www.cp2k.org/
 CP2K| Program compiled at                                   2026-07-16 17:38:27
 CP2K| Program compiled on                                                      
 CP2K| Program compiled for                                                arm64
 CP2K| Data directory path                            /usr/local/share/cp2k/data
 CP2K| Input file name        /private/tmp/Periodic-g-xTB-Benchmarks-accel/valid

 GLOBAL| Force Environment number                                              1
 GLOBAL| Basis set file name                                           BASIS_SET
 GLOBAL| Potential file name                                           POTENTIAL
 GLOBAL| MM Potential file name                                     MM_POTENTIAL
 GLOBAL| Coordinate file name                                      __STD_INPUT__
 GLOBAL| Method name                                                        CP2K
 GLOBAL| Project name                                   Ar_layer_gxtb_xz_kp_full
 GLOBAL| Run type                                                          DEBUG
 GLOBAL| FFT library                                                       FFTW3
 GLOBAL| Diagonalization library                                       ScaLAPACK
 GLOBAL| Cholesky decomposition library                                ScaLAPACK
 GLOBAL| DGEMM library                                                      BLAS
 GLOBAL| Direct generalized diagonalization requested                          F
 GLOBAL| Orthonormality check for eigenvectors                          DISABLED
 GLOBAL| Matrix multiplication library                                 ScaLAPACK
 GLOBAL| All-to-all communication in single precision                          F
 GLOBAL| FFTs using library dependent lengths                                  F
 GLOBAL| Grid backend                                                       AUTO
 GLOBAL| Global print level                                               MEDIUM
 GLOBAL| MPI I/O enabled                                                       T
 GLOBAL| Total number of message passing processes                             1
 GLOBAL| Number of distributed systems (nodes)                                 1
 GLOBAL| Number of threads for this process                                    1
 GLOBAL| This output is from process                                           0
 GLOBAL| OpenMP stack size per thread (OMP_STACKSIZE)                    default
 GLOBAL| CPU model name                                                  UNKNOWN
 GLOBAL| CPUID                                                              2000

 MEMORY| system memory details [Kb]
 MEMORY|                        rank 0           min           max       average
 MEMORY| MemTotal                    0             0             0             0
 MEMORY| MemFree                     0             0             0             0
 MEMORY| Buffers                     0             0             0             0
 MEMORY| Cached                      0             0             0             0
 MEMORY| Slab                        0             0             0             0
 MEMORY| SReclaimable                0             0             0             0
 MEMORY| MemLikelyFree               0             0             0             0


 *** WARNING in environment.F:1095 :: FFT library FFTW3 is not available. ***
 *** Trying FFT library FFTSG.                                            ***


 *** Fundamental physical constants (SI units) ***

 *** Literature: B. J. Mohr and B. N. Taylor,
 ***             CODATA recommended values of the fundamental physical
 ***             constants: 2006, Web Version 5.1
 ***             http://physics.nist.gov/constants

 Speed of light in vacuum [m/s]                             2.99792458000000E+08
 Magnetic constant or permeability of vacuum [N/A**2]       1.25663706143592E-06
 Electric constant or permittivity of vacuum [F/m]          8.85418781762039E-12
 Planck constant (h) [J*s]                                  6.62606896000000E-34
 Planck constant (h-bar) [J*s]                              1.05457162825177E-34
 Elementary charge [C]                                      1.60217648700000E-19
 Electron mass [kg]                                         9.10938215000000E-31
 Electron g factor [ ]                                     -2.00231930436220E+00
 Proton mass [kg]                                           1.67262163700000E-27
 Fine-structure constant                                    7.29735253760000E-03
 Rydberg constant [1/m]                                     1.09737315685270E+07
 Avogadro constant [1/mol]                                  6.02214179000000E+23
 Boltzmann constant [J/K]                                   1.38065040000000E-23
 Atomic mass unit [kg]                                      1.66053878200000E-27
 Bohr radius [m]                                            5.29177208590000E-11

 *** Conversion factors ***

 [u] -> [a.u.]                                              1.82288848426455E+03
 [Angstrom] -> [Bohr] = [a.u.]                              1.88972613288564E+00
 [a.u.] = [Bohr] -> [Angstrom]                              5.29177208590000E-01
 [a.u.] -> [s]                                              2.41888432650478E-17
 [a.u.] -> [fs]                                             2.41888432650478E-02
 [a.u.] -> [J]                                              4.35974393937059E-18
 [a.u.] -> [N]                                              8.23872205491840E-08
 [a.u.] -> [K]                                              3.15774647902944E+05
 [a.u.] -> [kJ/mol]                                         2.62549961709828E+03
 [a.u.] -> [kcal/mol]                                       6.27509468713739E+02
 [a.u.] -> [Pa]                                             2.94210107994716E+13
 [a.u.] -> [bar]                                            2.94210107994716E+08
 [a.u.] -> [atm]                                            2.90362800883016E+08
 [a.u.] -> [eV]                                             2.72113838565563E+01
 [a.u.] -> [Hz]                                             6.57968392072181E+15
 [a.u.] -> [1/cm] (wave numbers)                            2.19474631370540E+05
 [a.u./Bohr**2] -> [1/cm]                                   5.14048714338585E+03
 

 CELL| Volume [angstrom^3]:                                           498.016800
 CELL| Vector a [angstrom]:       5.260     0.000     0.000   |a| =     5.260000
 CELL| Vector b [angstrom]:       0.000    18.000     0.000   |b| =    18.000000
 CELL| Vector c [angstrom]:       0.000     0.000     5.260   |c| =     5.260000
 CELL| Angle (b,c), alpha [degree]:                                    90.000000
 CELL| Angle (a,c), beta  [degree]:                                    90.000000
 CELL| Angle (a,b), gamma [degree]:                                    90.000000
 CELL| Numerically orthorhombic:                                             YES
 CELL| Periodicity                                                            XZ

 CELL_REF| Volume [angstrom^3]:                                       498.016800
 CELL_REF| Vector a [angstrom     5.260     0.000     0.000   |a| =     5.260000
 CELL_REF| Vector b [angstrom     0.000    18.000     0.000   |b| =    18.000000
 CELL_REF| Vector c [angstrom     0.000     0.000     5.260   |c| =     5.260000
 CELL_REF| Angle (b,c), alpha [degree]:                                90.000000
 CELL_REF| Angle (a,c), beta  [degree]:                                90.000000
 CELL_REF| Angle (a,b), gamma [degree]:                                90.000000
 CELL_REF| Numerically orthorhombic:                                         YES
 CELL_REF| Periodicity                                                        XZ

 GENERATE|  Preliminary Number of Bonds generated:                             0
 GENERATE|  Achieved consistency in connectivity generation.


                  #####   #####        #     #   #     #       #          
                 #     # #     #      #    ##### #     #   # #####  ####  
                 #     # #           #       #   ###   #       #   #    # 
                 #     #  #####     #        #   #  #  #   #   #   ###### 
                 #   # #       #   #         #   #   # #   #   #   #      
                 #    #  #     #  #          #   #  #  # # #   #    #   # 
                  #### #  #####  #           #   ###   ##  #   #     ###  

                                     g-xTB   
                                 Version 0.0                       
                            Johann V. Pototschnig                  

                tblite provider: SAVE
                tblite source revision: unknown
                g-xTB support: enabled

 xTB| Parameter file                                             xTB1_parameters
 xTB| Basis expansion STO-NG                                                   6
 xTB| Basis expansion STO-NG for Hydrogen                                      4
 xTB| Repulsive pair potential accuracy                               0.1000E-09
 xTB| Repulsive enhancement factor                                      0.000000
 xTB| Halogen interaction potential                                            T
 xTB| Halogen interaction potential cutoff radius                         20.000
 xTB| Nonbonded interactions                                                   F
 xTB| vdW potential type:                                              DFTD3(BJ)
 xTB| D3 Dispersion: Parameter                                         dftd3.dat
 xTB| Huckel constants ks kp kd                        1.850     2.250     2.000
 xTB| Huckel constants ksp k2sh                                  2.080     2.850
 xTB| Mataga-Nishimoto exponent                                            2.000
 xTB| Repulsion potential exponent                                         1.500
 xTB| Coordination number scaling kcn(s) kcn(p) kc     0.006    -0.003    -0.005
 xTB| Electronegativity scaling                                           -0.007
 xTB| Halogen potential scaling kxr kx2                          1.300     0.440
 xTB| SCC mixer:                                                       AUTO
 xTB| tblite accuracy:                                                 1.000E+00
 xTB| tblite SCC mixer damping:                                            0.400
 xTB| tblite SCC mixer iterations:                                           250
 xTB| tblite SCC mixer memory:                                               250
 xTB| tblite SCC mixer solver:                                         GVD
 xTB| tblite SCC mixer omega0:                                         1.000E-02
 xTB| tblite SCC mixer min weight:                                     1.000E+00
 xTB| tblite SCC mixer max weight:                                     1.000E+05
 xTB| tblite SCC mixer weight factor:                                  1.000E-02




 ATOMIC KIND INFORMATION

  1. Atomic kind: Ar                                    Number of atoms:       4

     Orbital Basis Set                                                 Ar_STO-5G

       Number of orbital shell sets:                                           3
       Number of orbital shells:                                               3
       Number of primitive Cartesian functions:                               12
       Number of Cartesian basis functions:                                   10
       Number of spherical basis functions:                                    9
       Norm type:                                                              3

       Normalised Cartesian orbitals:

                        Set   Shell   Orbital            Exponent    Coefficient

                          1       1    1s               16.931104       0.070505
                                                         2.293011      -1.025689
                                                         1.777506       0.625047
                                                         0.473525       0.324022
                                                         0.172864       0.055696

                          2       1    2px               3.241555      -0.326399
                                                         1.120495       0.526887
                                                         0.440449       0.248761
                                                         0.234944       0.039869
                                                         0.125495       0.019434
                          2       1    2py               3.241555      -0.326399
                                                         1.120495       0.526887
                                                         0.440449       0.248761
                                                         0.234944       0.039869
                                                         0.125495       0.019434
                          2       1    2pz               3.241555      -0.326399
                                                         1.120495       0.526887
                                                         0.440449       0.248761
                                                         0.234944       0.039869
                                                         0.125495       0.019434

                          3       1    3dx2              1.767057       1.279285
                                                         0.372274       0.249729
                          3       1    3dxy              1.767057       2.215786
                                                         0.372274       0.432543
                          3       1    3dxz              1.767057       2.215786
                                                         0.372274       0.432543
                          3       1    3dy2              1.767057       1.279285
                                                         0.372274       0.249729
                          3       1    3dyz              1.767057       2.215786
                                                         0.372274       0.432543
                          3       1    3dz2              1.767057       1.279285
                                                         0.372274       0.249729

     AE Potential information for                                          Argon

       Description:                                       Bare Coulomb Potential
                                                             Valence charge only

       Gaussian exponent of the core charge distribution:               2.082466
       Electronic configuration (s p d ...):                       2   6   0   0


 MOLECULE KIND INFORMATION


 All atoms are their own molecule, skipping detailed information


 TOTAL NUMBERS AND MAXIMUM NUMBERS

  Total number of            - Atomic kinds:                                   1
                             - Atoms:                                          4
                             - Shell sets:                                    12
                             - Shells:                                        12
                             - Primitive Cartesian functions:                 48
                             - Cartesian basis functions:                     40
                             - Spherical basis functions:                     36

  Maximum angular momentum of the orbital basis functions:                     2


 MODULE QUICKSTEP: ATOMIC COORDINATES IN ANGSTROM

   Atom Kind Element         X             Y             Z       Z(eff)     Mass
      1    1 Ar   18      0.594380      9.018000      0.194620   8.0000  39.9480
      2    1 Ar   18      2.556360      9.414000      0.073640   8.0000  39.9480
      3    1 Ar   18      2.719420      9.576000      2.582660   8.0000  39.9480
      4    1 Ar   18      0.152540      8.424000      2.871960   8.0000  39.9480



 SCF PARAMETERS         Density guess:                                     MOPAC
                        --------------------------------------------------------
                        max_scf:                                             300
                        max_scf_history:                                       0
                        max_diis:                                              4
                        --------------------------------------------------------
                        eps_scf:                                        1.00E-10
                        eps_scf_history:                                0.00E+00
                        eps_diis:                                       1.00E-01
                        eps_eigval:                                     1.00E-05
                        --------------------------------------------------------
                        level_shift [a.u.]:                             0.000000
                        added MOs                                        20    0
                        --------------------------------------------------------
                        Mixing method:                           DIRECT_P_MIXING
                        --------------------------------------------------------
                        Smear method:                                FERMI_DIRAC
                        Electronic temperature [K]:                        300.0
                        Electronic temperature [a.u.]:                  9.50E-04
                        Accuracy threshold:                             1.00E-06
                        --------------------------------------------------------
                        No outer SCF

 PW_GRID| Information for grid number                                          1
 PW_GRID| Cutoff [a.u.]                                                      1.0
 PW_GRID| spherical cutoff:                                                   NO
 PW_GRID|   Bounds   1             -3       2                Points:           6
 PW_GRID|   Bounds   2             -7       7                Points:          15
 PW_GRID|   Bounds   3             -3       2                Points:           6
 PW_GRID| Volume element (a.u.^3)   6.224         Volume (a.u.^3)      3360.7840
 PW_GRID| Grid span                                                    FULLSPACE

 POISSON| Solver                                                        PERIODIC
 POISSON| Periodicity                                                        XYZ

 RS_GRID| Information for grid number                                          1
 RS_GRID|   Bounds   1             -3       2                Points:           6
 RS_GRID|   Bounds   2             -7       7                Points:          15
 RS_GRID|   Bounds   3             -3       2                Points:           6

 *******************************************************************************
                                    Kpoints
 *******************************************************************************
 BRILLOUIN| K-point scheme                                        Monkhorst-Pack
 BRILLOUIN| K-Point grid                                             2    1    2
 BRILLOUIN| K-point symmetry accuracy                               0.100000E-05
 BRILLOUIN| K-Point point group symmetrization                               OFF
 BRILLOUIN| Wavefunction type                                            COMPLEX
 BRILLOUIN| Use full k-point grid     
 BRILLOUIN| List of Kpoints [2 Pi/Bohr]                                        4
 BRILLOUIN| Number           Weight            X              Y              Z
 BRILLOUIN|     1           0.25000       -0.25000        0.00000       -0.25000
 BRILLOUIN|     2           0.25000       -0.25000        0.00000        0.25000
 BRILLOUIN|     3           0.25000        0.25000        0.00000       -0.25000
 BRILLOUIN|     4           0.25000        0.25000        0.00000        0.25000
 *******************************************************************************

 Extrapolation method: initial_guess

 Number of electrons:                                                         32
 Number of occupied orbitals:                                                 16
 Number of molecular orbitals:                                                36

 Number of orbital functions:                                                 36
 Number of independent orbital functions:                                     36


 SCF WAVEFUNCTION OPTIMIZATION

  Step     Update method      Time    Convergence         Total energy    Change
  ------------------------------------------------------------------------------
 GXTB-QUALIFICATION_ONLY STREAM-ORACLE iter=1 dE=  0.000000E+00 dVsh=  0.000000E+00 dFfold=  0.000000E+00 hermFull=  0.000000E+00 covOracleFull=  0.000000E+00 covOracleFold=  0.000000E+00 dualOracleFold=  0.000000E+00 covStream=  0.000000E+00 dualStream=  0.000000E+00
 GXTB-QUALIFICATION_ONLY STREAM-ORACLE iter=1 dE=  8.881784E-16 dVsh=  6.938894E-18 dFfold=  2.220446E-16 hermFull=  0.000000E+00 covOracleFull=  0.000000E+00 covOracleFold=  0.000000E+00 dualOracleFold=  0.000000E+00 covStream=  2.220446E-16 dualStream=  0.000000E+00
     1 GXTB-Raw    0.10E+01    0.0     2.03893263     -2110.0745350461 -2.11E+03
     2 GXTB-Simple 0.20E+00    0.0     0.09197923     -2110.1376792401 -6.31E-02
     3 GXTB-Simple 0.20E+00    0.0     0.05908652     -2110.1659473608 -2.83E-02
     4 GXTB-FDIIS  0.10E+01    0.0     0.16726269     -2110.2003301599 -3.44E-02
     5 GXTB-FDIIS  0.10E+01    0.0     0.00370460     -2110.2003499617 -1.98E-05
     6 GXTB-FDIIS  0.10E+01    0.0     0.00090813     -2110.2003519326 -1.97E-06
     7 GXTB-FDIIS  0.10E+01    0.0     0.00025826     -2110.2003520152 -8.26E-08
     8 GXTB-FDIIS  0.10E+01    0.0     0.00000527     -2110.2003520153 -9.82E-11
     9 GXTB-FDIIS  0.10E+01    0.0     0.00000190     -2110.2003520153 -5.00E-12
    10 GXTB-FDIIS  0.10E+01    0.0     0.00000023     -2110.2003520153 -4.55E-13
    11 GXTB-FDIIS  0.10E+01    0.0     0.00000004     -2110.2003520153  0.00E+00
    12 GXTB-FDIIS  0.10E+01    0.0     2.4144E-09     -2110.2003520153  0.00E+00
    13 GXTB-FDIIS  0.10E+01    0.0     3.2632E-10     -2110.2003520153  0.00E+00
    14 GXTB-FDIIS  0.10E+01    0.0     3.7615E-11     -2110.2003520153  0.00E+00

  *** SCF run converged in    14 steps ***


  Core Hamiltonian energy:                                     -9.12659505572802
  Repulsive potential energy:                                   0.19911907994950
  Electrostatic energy:                                         0.01937736011385
  Self-consistent dispersion energy:                           -0.01081696617619
  Non-self consistent dispersion energy:                        0.00035262402187
  Correction for halogen bonding:                               0.00000000000000
  Electronic entropic energy:                                  -0.00000000000000
  Fermi energy:                                                -0.17210460860660

  Total energy:                                             -2110.20035201526525
  Total energy (extrapolated to T->0):                      -2110.20035201526525


 MULLIKEN POPULATION ANALYSIS

  # Atom   Element   Kind        Atomic population                    Net charge
       1     Ar         1                 8.001156                     -0.001156
       2     Ar         1                 7.999076                      0.000924
       3     Ar         1                 7.999749                      0.000251
       4     Ar         1                 8.000019                     -0.000019
 # Total charge                          32.000000                      0.000000


 ENERGY| Total FORCE_EVAL ( QS ) energy [hartree]          -2110.200352015265253

 -------------------------------------------------------------------------------
 ----                             MULTIGRID INFO                            ----
 -------------------------------------------------------------------------------
 total grid count     :           156              cutoff [a.u.]            1.00

 PW_GRID| Information for grid number                                          2
 PW_GRID| Cutoff [a.u.]                                                      1.0
 PW_GRID| spherical cutoff:                                                   NO
 PW_GRID|   Bounds   1             -3       2                Points:           6
 PW_GRID|   Bounds   2             -7       7                Points:          15
 PW_GRID|   Bounds   3             -3       2                Points:           6
 PW_GRID| Volume element (a.u.^3)   6.224         Volume (a.u.^3)      3360.8178
 PW_GRID| Grid span                                                    FULLSPACE

 POISSON| Solver                                                        PERIODIC
 POISSON| Periodicity                                                        XYZ

 RS_GRID| Information for grid number                                          2
 RS_GRID|   Bounds   1             -3       2                Points:           6
 RS_GRID|   Bounds   2             -7       7                Points:          15
 RS_GRID|   Bounds   3             -3       2                Points:           6

 Parameters for the always stable predictor-corrector (ASPC) method:
  ASPC order: 0
  B(1) =   1.000000

 Extrapolation method: ASPC

 Number of electrons:                                                         32
 Number of occupied orbitals:                                                 16
 Number of molecular orbitals:                                                36

 Number of orbital functions:                                                 36
 Number of independent orbital functions:                                     36


 SCF WAVEFUNCTION OPTIMIZATION

  Step     Update method      Time    Convergence         Total energy    Change
  ------------------------------------------------------------------------------
 GXTB-QUALIFICATION_ONLY STREAM-ORACLE iter=1 dE=  8.881784E-15 dVsh=  6.938894E-18 dFfold=  2.775558E-16 hermFull=  0.000000E+00 covOracleFull=  0.000000E+00 covOracleFold=  0.000000E+00 dualOracleFold=  0.000000E+00 covStream=  2.775558E-16 dualStream=  0.000000E+00
 GXTB-QUALIFICATION_ONLY STREAM-ORACLE iter=1 dE=  4.440892E-15 dVsh=  6.938894E-18 dFfold=  3.330669E-16 hermFull=  0.000000E+00 covOracleFull=  0.000000E+00 covOracleFold=  0.000000E+00 dualOracleFold=  0.000000E+00 covStream=  3.330669E-16 dualStream=  0.000000E+00
     1 GXTB-Raw    0.10E+01    0.0     0.00000667     -2110.2003578871 -2.11E+03
     2 GXTB-Simple 0.20E+00    0.0     0.00000022     -2110.2003578871 -4.55E-13
     3 GXTB-Simple 0.20E+00    0.0     0.00000018     -2110.2003578871 -4.55E-13
     4 GXTB-FDIIS  0.10E+01    0.0     0.00000092     -2110.2003578871 -9.09E-13
     5 GXTB-FDIIS  0.10E+01    0.0     0.00000002     -2110.2003578871  0.00E+00
     6 GXTB-FDIIS  0.10E+01    0.0     2.0256E-09     -2110.2003578871  4.55E-13
     7 GXTB-FDIIS  0.10E+01    0.0     2.2556E-10     -2110.2003578871 -9.09E-13
     8 GXTB-FDIIS  0.10E+01    0.0     2.1910E-11     -2110.2003578871  0.00E+00

  *** SCF run converged in     8 steps ***


  Core Hamiltonian energy:                                     -9.12659934939437
  Repulsive potential energy:                                   0.19910739814032
  Electrostatic energy:                                         0.01937798950843
  Self-consistent dispersion energy:                           -0.01081685445211
  Non-self consistent dispersion energy:                        0.00035261689594
  Correction for halogen bonding:                               0.00000000000000
  Electronic entropic energy:                                  -0.00000000000000
  Fermi energy:                                                -0.17210760864561

  Total energy:                                             -2110.20035788713722
  Total energy (extrapolated to T->0):                      -2110.20035788713722


 MULLIKEN POPULATION ANALYSIS

  # Atom   Element   Kind        Atomic population                    Net charge
       1     Ar         1                 8.001156                     -0.001156
       2     Ar         1                 7.999076                      0.000924
       3     Ar         1                 7.999749                      0.000251
       4     Ar         1                 8.000019                     -0.000019
 # Total charge                          32.000000                     -0.000000


 ENERGY| Total FORCE_EVAL ( QS ) energy [hartree]          -2110.200357887137216

 -------------------------------------------------------------------------------
 ----                             MULTIGRID INFO                            ----
 -------------------------------------------------------------------------------
 total grid count     :           156              cutoff [a.u.]            1.00

 PW_GRID| Information for grid number                                          3
 PW_GRID| Cutoff [a.u.]                                                      1.0
 PW_GRID| spherical cutoff:                                                   NO
 PW_GRID|   Bounds   1             -3       2                Points:           6
 PW_GRID|   Bounds   2             -7       7                Points:          15
 PW_GRID|   Bounds   3             -3       2                Points:           6
 PW_GRID| Volume element (a.u.^3)   6.224         Volume (a.u.^3)      3360.7502
 PW_GRID| Grid span                                                    FULLSPACE

 POISSON| Solver                                                        PERIODIC
 POISSON| Periodicity                                                        XYZ

 RS_GRID| Information for grid number                                          3
 RS_GRID|   Bounds   1             -3       2                Points:           6
 RS_GRID|   Bounds   2             -7       7                Points:          15
 RS_GRID|   Bounds   3             -3       2                Points:           6

 Parameters for the always stable predictor-corrector (ASPC) method:
  ASPC order: 0
  B(1) =   2.000000
  B(2) =  -1.000000

 Extrapolation method: ASPC

 Number of electrons:                                                         32
 Number of occupied orbitals:                                                 16
 Number of molecular orbitals:                                                36

 Number of orbital functions:                                                 36
 Number of independent orbital functions:                                     36


 SCF WAVEFUNCTION OPTIMIZATION

  Step     Update method      Time    Convergence         Total energy    Change
  ------------------------------------------------------------------------------
 GXTB-QUALIFICATION_ONLY STREAM-ORACLE iter=1 dE=  3.552714E-15 dVsh=  1.387779E-17 dFfold=  2.220446E-16 hermFull=  0.000000E+00 covOracleFull=  0.000000E+00 covOracleFold=  0.000000E+00 dualOracleFold=  0.000000E+00 covStream=  2.220446E-16 dualStream=  0.000000E+00
 GXTB-QUALIFICATION_ONLY STREAM-ORACLE iter=1 dE=  0.000000E+00 dVsh=  1.387779E-17 dFfold=  3.330669E-16 hermFull=  0.000000E+00 covOracleFull=  0.000000E+00 covOracleFold=  0.000000E+00 dualOracleFold=  0.000000E+00 covStream=  3.330669E-16 dualStream=  1.464375E-16
     1 GXTB-Raw    0.10E+01    0.0     0.00001335     -2110.2003461428 -2.11E+03
     2 GXTB-Simple 0.20E+00    0.0     0.00000043     -2110.2003461428 -2.27E-12
     3 GXTB-Simple 0.20E+00    0.0     0.00000036     -2110.2003461428 -1.36E-12
     4 GXTB-FDIIS  0.10E+01    0.0     0.00000183     -2110.2003461428 -4.09E-12
     5 GXTB-FDIIS  0.10E+01    0.0     0.00000004     -2110.2003461428  0.00E+00
     6 GXTB-FDIIS  0.10E+01    0.0     4.0517E-09     -2110.2003461428  0.00E+00
     7 GXTB-FDIIS  0.10E+01    0.0     4.5123E-10     -2110.2003461428  4.55E-13
     8 GXTB-FDIIS  0.10E+01    0.0     4.3842E-11     -2110.2003461428  0.00E+00

  *** SCF run converged in     8 steps ***


  Core Hamiltonian energy:                                     -9.12659076206758
  Repulsive potential energy:                                   0.19913076257608
  Electrostatic energy:                                         0.01937673072882
  Self-consistent dispersion energy:                           -0.01081707789906
  Non-self consistent dispersion energy:                        0.00035263114786
  Correction for halogen bonding:                               0.00000000000000
  Electronic entropic energy:                                  -0.00000000000000
  Fermi energy:                                                -0.17210160835230

  Total energy:                                             -2110.20034614283259
  Total energy (extrapolated to T->0):                      -2110.20034614283259


 MULLIKEN POPULATION ANALYSIS

  # Atom   Element   Kind        Atomic population                    Net charge
       1     Ar         1                 8.001157                     -0.001157
       2     Ar         1                 7.999076                      0.000924
       3     Ar         1                 7.999749                      0.000251
       4     Ar         1                 8.000019                     -0.000019
 # Total charge                          32.000000                     -0.000000


 ENERGY| Total FORCE_EVAL ( QS ) energy [hartree]          -2110.200346142832586

 -------------------------------------------------------------------------------
 ----                             MULTIGRID INFO                            ----
 -------------------------------------------------------------------------------
 total grid count     :           156              cutoff [a.u.]            1.00

 PW_GRID| Information for grid number                                          4
 PW_GRID| Cutoff [a.u.]                                                      1.0
 PW_GRID| spherical cutoff:                                                   NO
 PW_GRID|   Bounds   1             -3       2                Points:           6
 PW_GRID|   Bounds   2             -7       7                Points:          15
 PW_GRID|   Bounds   3             -3       2                Points:           6
 PW_GRID| Volume element (a.u.^3)   6.224         Volume (a.u.^3)      3360.7840
 PW_GRID| Grid span                                                    FULLSPACE

 POISSON| Solver                                                        PERIODIC
 POISSON| Periodicity                                                        XYZ

 RS_GRID| Information for grid number                                          4
 RS_GRID|   Bounds   1             -3       2                Points:           6
 RS_GRID|   Bounds   2             -7       7                Points:          15
 RS_GRID|   Bounds   3             -3       2                Points:           6

 Parameters for the always stable predictor-corrector (ASPC) method:
  ASPC order: 1
  B(1) =   2.500000
  B(2) =  -2.000000
  B(3) =   0.500000

 Extrapolation method: ASPC

 Number of electrons:                                                         32
 Number of occupied orbitals:                                                 16
 Number of molecular orbitals:                                                36

 Number of orbital functions:                                                 36
 Number of independent orbital functions:                                     36


 SCF WAVEFUNCTION OPTIMIZATION

  Step     Update method      Time    Convergence         Total energy    Change
  ------------------------------------------------------------------------------
 GXTB-QUALIFICATION_ONLY STREAM-ORACLE iter=1 dE=  7.105427E-15 dVsh=  6.938894E-18 dFfold=  2.220446E-16 hermFull=  0.000000E+00 covOracleFull=  0.000000E+00 covOracleFold=  0.000000E+00 dualOracleFold=  0.000000E+00 covStream=  2.220446E-16 dualStream=  0.000000E+00
 GXTB-QUALIFICATION_ONLY STREAM-ORACLE iter=1 dE=  1.509903E-14 dVsh=  6.938894E-18 dFfold=  3.330669E-16 hermFull=  0.000000E+00 covOracleFull=  0.000000E+00 covOracleFold=  0.000000E+00 dualOracleFold=  0.000000E+00 covStream=  3.330669E-16 dualStream=  1.464377E-16
     1 GXTB-Raw    0.10E+01    0.0     0.00000707     -2110.2003525728 -2.11E+03
     2 GXTB-Simple 0.20E+00    0.0     0.00000023     -2110.2003525728 -4.55E-13
     3 GXTB-Simple 0.20E+00    0.0     0.00000019     -2110.2003525728 -4.55E-13
     4 GXTB-FDIIS  0.10E+01    0.0     0.00000097     -2110.2003525728 -9.09E-13
     5 GXTB-FDIIS  0.10E+01    0.0     0.00000002     -2110.2003525728 -4.55E-13
     6 GXTB-FDIIS  0.10E+01    0.0     2.1489E-09     -2110.2003525728  4.55E-13
     7 GXTB-FDIIS  0.10E+01    0.0     2.3924E-10     -2110.2003525728 -4.55E-13
     8 GXTB-FDIIS  0.10E+01    0.0     2.3172E-11     -2110.2003525728  0.00E+00

  *** SCF run converged in     8 steps ***


  Core Hamiltonian energy:                                     -9.12659522119246
  Repulsive potential energy:                                   0.19911840187876
  Electrostatic energy:                                         0.01937739689209
  Self-consistent dispersion energy:                           -0.01081696822718
  Non-self consistent dispersion energy:                        0.00035262441533
  Correction for halogen bonding:                               0.00000000000000
  Electronic entropic energy:                                  -0.00000000000000
  Fermi energy:                                                -0.17210477908819

  Total energy:                                             -2110.20035257280324
  Total energy (extrapolated to T->0):                      -2110.20035257280324


 MULLIKEN POPULATION ANALYSIS

  # Atom   Element   Kind        Atomic population                    Net charge
       1     Ar         1                 8.001156                     -0.001156
       2     Ar         1                 7.999076                      0.000924
       3     Ar         1                 7.999749                      0.000251
       4     Ar         1                 8.000019                     -0.000019
 # Total charge                          32.000000                     -0.000000


 ENERGY| Total FORCE_EVAL ( QS ) energy [hartree]          -2110.200352572803240

 -------------------------------------------------------------------------------
 ----                             MULTIGRID INFO                            ----
 -------------------------------------------------------------------------------
 total grid count     :           156              cutoff [a.u.]            1.00

 PW_GRID| Information for grid number                                          5
 PW_GRID| Cutoff [a.u.]                                                      1.0
 PW_GRID| spherical cutoff:                                                   NO
 PW_GRID|   Bounds   1             -3       2                Points:           6
 PW_GRID|   Bounds   2             -7       7                Points:          15
 PW_GRID|   Bounds   3             -3       2                Points:           6
 PW_GRID| Volume element (a.u.^3)   6.224         Volume (a.u.^3)      3360.7840
 PW_GRID| Grid span                                                    FULLSPACE

 POISSON| Solver                                                        PERIODIC
 POISSON| Periodicity                                                        XYZ

 RS_GRID| Information for grid number                                          5
 RS_GRID|   Bounds   1             -3       2                Points:           6
 RS_GRID|   Bounds   2             -7       7                Points:          15
 RS_GRID|   Bounds   3             -3       2                Points:           6

 Parameters for the always stable predictor-corrector (ASPC) method:
  ASPC order: 2
  B(1) =   2.800000
  B(2) =  -2.800000
  B(3) =   1.200000
  B(4) =  -0.200000

 Extrapolation method: ASPC

 Number of electrons:                                                         32
 Number of occupied orbitals:                                                 16
 Number of molecular orbitals:                                                36

 Number of orbital functions:                                                 36
 Number of independent orbital functions:                                     36


 SCF WAVEFUNCTION OPTIMIZATION

  Step     Update method      Time    Convergence         Total energy    Change
  ------------------------------------------------------------------------------
 GXTB-QUALIFICATION_ONLY STREAM-ORACLE iter=1 dE=  7.105427E-15 dVsh=  1.387779E-17 dFfold=  2.775558E-16 hermFull=  0.000000E+00 covOracleFull=  0.000000E+00 covOracleFold=  0.000000E+00 dualOracleFold=  0.000000E+00 covStream=  2.775558E-16 dualStream=  2.928753E-16
 GXTB-QUALIFICATION_ONLY STREAM-ORACLE iter=1 dE=  1.509903E-14 dVsh=  6.938894E-18 dFfold=  2.775558E-16 hermFull=  0.000000E+00 covOracleFull=  0.000000E+00 covOracleFold=  0.000000E+00 dualOracleFold=  0.000000E+00 covStream=  2.775558E-16 dualStream=  0.000000E+00
     1 GXTB-Raw    0.10E+01    0.0     0.00000080     -2110.2003514577 -2.11E+03
     2 GXTB-Simple 0.20E+00    0.0     0.00000003     -2110.2003514577  4.55E-13
     3 GXTB-Simple 0.20E+00    0.0     0.00000002     -2110.2003514577  0.00E+00
     4 GXTB-FDIIS  0.10E+01    0.0     0.00000011     -2110.2003514577  0.00E+00
     5 GXTB-FDIIS  0.10E+01    0.0     2.0466E-09     -2110.2003514577 -4.55E-13
     6 GXTB-FDIIS  0.10E+01    0.0     2.4585E-10     -2110.2003514577  4.55E-13
     7 GXTB-FDIIS  0.10E+01    0.0     3.1464E-11     -2110.2003514577 -4.55E-13

  *** SCF run converged in     7 steps ***


  Core Hamiltonian energy:                                     -9.12659489026288
  Repulsive potential energy:                                   0.19911975802419
  Electrostatic energy:                                         0.01937732333515
  Self-consistent dispersion energy:                           -0.01081696412514
  Non-self consistent dispersion energy:                        0.00035262362841
  Correction for halogen bonding:                               0.00000000000000
  Electronic entropic energy:                                  -0.00000000000000
  Fermi energy:                                                -0.17210443812589

  Total energy:                                             -2110.20035145772408
  Total energy (extrapolated to T->0):                      -2110.20035145772408


 MULLIKEN POPULATION ANALYSIS

  # Atom   Element   Kind        Atomic population                    Net charge
       1     Ar         1                 8.001156                     -0.001156
       2     Ar         1                 7.999076                      0.000924
       3     Ar         1                 7.999749                      0.000251
       4     Ar         1                 8.000019                     -0.000019
 # Total charge                          32.000000                      0.000000


 ENERGY| Total FORCE_EVAL ( QS ) energy [hartree]          -2110.200351457724082

 -------------------------------------------------------------------------------
 ----                             MULTIGRID INFO                            ----
 -------------------------------------------------------------------------------
 total grid count     :           156              cutoff [a.u.]            1.00

 PW_GRID| Information for grid number                                          6
 PW_GRID| Cutoff [a.u.]                                                      1.0
 PW_GRID| spherical cutoff:                                                   NO
 PW_GRID|   Bounds   1             -3       2                Points:           6
 PW_GRID|   Bounds   2             -7       7                Points:          15
 PW_GRID|   Bounds   3             -3       2                Points:           6
 PW_GRID| Volume element (a.u.^3)   6.224         Volume (a.u.^3)      3360.7840
 PW_GRID| Grid span                                                    FULLSPACE

 POISSON| Solver                                                        PERIODIC
 POISSON| Periodicity                                                        XYZ

 RS_GRID| Information for grid number                                          6
 RS_GRID|   Bounds   1             -3       2                Points:           6
 RS_GRID|   Bounds   2             -7       7                Points:          15
 RS_GRID|   Bounds   3             -3       2                Points:           6

 Parameters for the always stable predictor-corrector (ASPC) method:
  ASPC order: 3
  B(1) =   3.000000
  B(2) =  -3.428571
  B(3) =   1.928571
  B(4) =  -0.571429
  B(5) =   0.071429

 Extrapolation method: ASPC

 Number of electrons:                                                         32
 Number of occupied orbitals:                                                 16
 Number of molecular orbitals:                                                36

 Number of orbital functions:                                                 36
 Number of independent orbital functions:                                     36


 SCF WAVEFUNCTION OPTIMIZATION

  Step     Update method      Time    Convergence         Total energy    Change
  ------------------------------------------------------------------------------
 GXTB-QUALIFICATION_ONLY STREAM-ORACLE iter=1 dE=  3.552714E-15 dVsh=  6.938894E-18 dFfold=  2.775558E-16 hermFull=  0.000000E+00 covOracleFull=  0.000000E+00 covOracleFold=  0.000000E+00 dualOracleFold=  0.000000E+00 covStream=  2.775558E-16 dualStream=  1.464377E-16
 GXTB-QUALIFICATION_ONLY STREAM-ORACLE iter=1 dE=  4.440892E-15 dVsh=  6.938894E-18 dFfold=  2.775558E-16 hermFull=  0.000000E+00 covOracleFull=  0.000000E+00 covOracleFold=  0.000000E+00 dualOracleFold=  0.000000E+00 covStream=  2.775558E-16 dualStream=  1.464377E-16
     1 GXTB-Raw    0.10E+01    0.0     0.00000066     -2110.2003517067 -2.11E+03
     2 GXTB-Simple 0.20E+00    0.0     0.00000003     -2110.2003517067  0.00E+00
     3 GXTB-Simple 0.20E+00    0.0     0.00000003     -2110.2003517067 -4.55E-13
     4 GXTB-FDIIS  0.10E+01    0.0     0.00000017     -2110.2003517067  4.55E-13
     5 GXTB-FDIIS  0.10E+01    0.0     3.1695E-09     -2110.2003517067  0.00E+00
     6 GXTB-FDIIS  0.10E+01    0.0     4.3421E-10     -2110.2003517067  0.00E+00
     7 GXTB-FDIIS  0.10E+01    0.0     4.2111E-11     -2110.2003517067 -4.55E-13

  *** SCF run converged in     7 steps ***


  Core Hamiltonian energy:                                     -9.12659510656011
  Repulsive potential energy:                                   0.19911957751675
  Electrostatic energy:                                         0.01937732614761
  Self-consistent dispersion energy:                           -0.01081697179828
  Non-self consistent dispersion energy:                        0.00035262452278
  Correction for halogen bonding:                               0.00000000000000
  Electronic entropic energy:                                  -0.00000000000000
  Fermi energy:                                                -0.17210435245988

  Total energy:                                             -2110.20035170672008
  Total energy (extrapolated to T->0):                      -2110.20035170672008


 MULLIKEN POPULATION ANALYSIS

  # Atom   Element   Kind        Atomic population                    Net charge
       1     Ar         1                 8.001156                     -0.001156
       2     Ar         1                 7.999076                      0.000924
       3     Ar         1                 7.999749                      0.000251
       4     Ar         1                 8.000019                     -0.000019
 # Total charge                          32.000000                      0.000000


 ENERGY| Total FORCE_EVAL ( QS ) energy [hartree]          -2110.200351706720085

 -------------------------------------------------------------------------------
 ----                             MULTIGRID INFO                            ----
 -------------------------------------------------------------------------------
 total grid count     :           156              cutoff [a.u.]            1.00

 PW_GRID| Information for grid number                                          7
 PW_GRID| Cutoff [a.u.]                                                      1.0
 PW_GRID| spherical cutoff:                                                   NO
 PW_GRID|   Bounds   1             -3       2                Points:           6
 PW_GRID|   Bounds   2             -7       7                Points:          15
 PW_GRID|   Bounds   3             -3       2                Points:           6
 PW_GRID| Volume element (a.u.^3)   6.224         Volume (a.u.^3)      3360.7840
 PW_GRID| Grid span                                                    FULLSPACE

 POISSON| Solver                                                        PERIODIC
 POISSON| Periodicity                                                        XYZ

 RS_GRID| Information for grid number                                          7
 RS_GRID|   Bounds   1             -3       2                Points:           6
 RS_GRID|   Bounds   2             -7       7                Points:          15
 RS_GRID|   Bounds   3             -3       2                Points:           6

 Parameters for the always stable predictor-corrector (ASPC) method:
  ASPC order: 3
  B(1) =   3.000000
  B(2) =  -3.428571
  B(3) =   1.928571
  B(4) =  -0.571429
  B(5) =   0.071429

 Extrapolation method: ASPC

 Number of electrons:                                                         32
 Number of occupied orbitals:                                                 16
 Number of molecular orbitals:                                                36

 Number of orbital functions:                                                 36
 Number of independent orbital functions:                                     36


 SCF WAVEFUNCTION OPTIMIZATION

  Step     Update method      Time    Convergence         Total energy    Change
  ------------------------------------------------------------------------------
 GXTB-QUALIFICATION_ONLY STREAM-ORACLE iter=1 dE=  7.105427E-15 dVsh=  1.387779E-17 dFfold=  2.775558E-16 hermFull=  0.000000E+00 covOracleFull=  0.000000E+00 covOracleFold=  0.000000E+00 dualOracleFold=  0.000000E+00 covStream=  2.775558E-16 dualStream=  0.000000E+00
 GXTB-QUALIFICATION_ONLY STREAM-ORACLE iter=1 dE=  4.440892E-15 dVsh=  6.938894E-18 dFfold=  1.665335E-16 hermFull=  0.000000E+00 covOracleFull=  0.000000E+00 covOracleFold=  0.000000E+00 dualOracleFold=  0.000000E+00 covStream=  1.665335E-16 dualStream=  2.928753E-16
     1 GXTB-Raw    0.10E+01    0.0     0.00000127     -2110.2003523238 -2.11E+03
     2 GXTB-Simple 0.20E+00    0.0     0.00000007     -2110.2003523238  0.00E+00
     3 GXTB-Simple 0.20E+00    0.0     0.00000006     -2110.2003523238  0.00E+00
     4 GXTB-FDIIS  0.10E+01    0.0     0.00000032     -2110.2003523238  0.00E+00
     5 GXTB-FDIIS  0.10E+01    0.0     9.0640E-09     -2110.2003523238  0.00E+00
     6 GXTB-FDIIS  0.10E+01    0.0     9.3510E-10     -2110.2003523238 -4.55E-13
     7 GXTB-FDIIS  0.10E+01    0.0     8.7542E-11     -2110.2003523238  0.00E+00

  *** SCF run converged in     7 steps ***


  Core Hamiltonian energy:                                     -9.12659500494749
  Repulsive potential energy:                                   0.19911858235452
  Electrostatic energy:                                         0.01937739408311
  Self-consistent dispersion energy:                           -0.01081696055556
  Non-self consistent dispersion energy:                        0.00035262352104
  Correction for halogen bonding:                               0.00000000000000
  Electronic entropic energy:                                  -0.00000000000000
  Fermi energy:                                                -0.17210486476117

  Total energy:                                             -2110.20035232381360
  Total energy (extrapolated to T->0):                      -2110.20035232381360


 MULLIKEN POPULATION ANALYSIS

  # Atom   Element   Kind        Atomic population                    Net charge
       1     Ar         1                 8.001156                     -0.001156
       2     Ar         1                 7.999076                      0.000924
       3     Ar         1                 7.999749                      0.000251
       4     Ar         1                 8.000019                     -0.000019
 # Total charge                          32.000000                     -0.000000


 ENERGY| Total FORCE_EVAL ( QS ) energy [hartree]          -2110.200352323813604

 -------------------------------------------------------------------------------
 ----                             MULTIGRID INFO                            ----
 -------------------------------------------------------------------------------
 total grid count     :           156              cutoff [a.u.]            1.00

 PW_GRID| Information for grid number                                          8
 PW_GRID| Cutoff [a.u.]                                                      1.0
 PW_GRID| spherical cutoff:                                                   NO
 PW_GRID|   Bounds   1             -3       2                Points:           6
 PW_GRID|   Bounds   2             -7       7                Points:          15
 PW_GRID|   Bounds   3             -3       2                Points:           6
 PW_GRID| Volume element (a.u.^3)   6.224         Volume (a.u.^3)      3360.7840
 PW_GRID| Grid span                                                    FULLSPACE

 POISSON| Solver                                                        PERIODIC
 POISSON| Periodicity                                                        XYZ

 RS_GRID| Information for grid number                                          8
 RS_GRID|   Bounds   1             -3       2                Points:           6
 RS_GRID|   Bounds   2             -7       7                Points:          15
 RS_GRID|   Bounds   3             -3       2                Points:           6

 Parameters for the always stable predictor-corrector (ASPC) method:
  ASPC order: 3
  B(1) =   3.000000
  B(2) =  -3.428571
  B(3) =   1.928571
  B(4) =  -0.571429
  B(5) =   0.071429

 Extrapolation method: ASPC

 Number of electrons:                                                         32
 Number of occupied orbitals:                                                 16
 Number of molecular orbitals:                                                36

 Number of orbital functions:                                                 36
 Number of independent orbital functions:                                     36


 SCF WAVEFUNCTION OPTIMIZATION

  Step     Update method      Time    Convergence         Total energy    Change
  ------------------------------------------------------------------------------
 GXTB-QUALIFICATION_ONLY STREAM-ORACLE iter=1 dE=  4.440892E-15 dVsh=  0.000000E+00 dFfold=  4.440892E-16 hermFull=  0.000000E+00 covOracleFull=  0.000000E+00 covOracleFold=  0.000000E+00 dualOracleFold=  0.000000E+00 covStream=  4.440892E-16 dualStream=  0.000000E+00
 GXTB-QUALIFICATION_ONLY STREAM-ORACLE iter=1 dE=  4.440892E-15 dVsh=  6.938894E-18 dFfold=  1.665335E-16 hermFull=  0.000000E+00 covOracleFull=  0.000000E+00 covOracleFold=  0.000000E+00 dualOracleFold=  0.000000E+00 covStream=  1.665335E-16 dualStream=  0.000000E+00
     1 GXTB-Raw    0.10E+01    0.0     0.00000236     -2110.2003539232 -2.11E+03
     2 GXTB-Simple 0.20E+00    0.0     0.00000016     -2110.2003539232 -4.55E-13
     3 GXTB-Simple 0.20E+00    0.0     0.00000013     -2110.2003539232 -9.09E-13
     4 GXTB-FDIIS  0.10E+01    0.0     0.00000082     -2110.2003539232 -4.55E-13
     5 GXTB-FDIIS  0.10E+01    0.0     0.00000003     -2110.2003539232  0.00E+00
     6 GXTB-FDIIS  0.10E+01    0.0     1.0653E-09     -2110.2003539232  4.55E-13
     7 GXTB-FDIIS  0.10E+01    0.0     4.4518E-11     -2110.2003539232 -4.55E-13

  *** SCF run converged in     7 steps ***


  Core Hamiltonian energy:                                     -9.12659562196825
  Repulsive potential energy:                                   0.19911675951647
  Electrostatic energy:                                         0.01937748597415
  Self-consistent dispersion energy:                           -0.01081697319404
  Non-self consistent dispersion energy:                        0.00035262536825
  Correction for halogen bonding:                               0.00000000000000
  Electronic entropic energy:                                  -0.00000000000000
  Fermi energy:                                                -0.17210519201367

  Total energy:                                             -2110.20035392320005
  Total energy (extrapolated to T->0):                      -2110.20035392320005


 MULLIKEN POPULATION ANALYSIS

  # Atom   Element   Kind        Atomic population                    Net charge
       1     Ar         1                 8.001156                     -0.001156
       2     Ar         1                 7.999076                      0.000924
       3     Ar         1                 7.999749                      0.000251
       4     Ar         1                 8.000019                     -0.000019
 # Total charge                          32.000000                     -0.000000


 ENERGY| Total FORCE_EVAL ( QS ) energy [hartree]          -2110.200353923200055

 -------------------------------------------------------------------------------
 ----                             MULTIGRID INFO                            ----
 -------------------------------------------------------------------------------
 total grid count     :           156              cutoff [a.u.]            1.00

 PW_GRID| Information for grid number                                          9
 PW_GRID| Cutoff [a.u.]                                                      1.0
 PW_GRID| spherical cutoff:                                                   NO
 PW_GRID|   Bounds   1             -3       2                Points:           6
 PW_GRID|   Bounds   2             -7       7                Points:          15
 PW_GRID|   Bounds   3             -3       2                Points:           6
 PW_GRID| Volume element (a.u.^3)   6.224         Volume (a.u.^3)      3360.7840
 PW_GRID| Grid span                                                    FULLSPACE

 POISSON| Solver                                                        PERIODIC
 POISSON| Periodicity                                                        XYZ

 RS_GRID| Information for grid number                                          9
 RS_GRID|   Bounds   1             -3       2                Points:           6
 RS_GRID|   Bounds   2             -7       7                Points:          15
 RS_GRID|   Bounds   3             -3       2                Points:           6

 Parameters for the always stable predictor-corrector (ASPC) method:
  ASPC order: 3
  B(1) =   3.000000
  B(2) =  -3.428571
  B(3) =   1.928571
  B(4) =  -0.571429
  B(5) =   0.071429

 Extrapolation method: ASPC

 Number of electrons:                                                         32
 Number of occupied orbitals:                                                 16
 Number of molecular orbitals:                                                36

 Number of orbital functions:                                                 36
 Number of independent orbital functions:                                     36


 SCF WAVEFUNCTION OPTIMIZATION

  Step     Update method      Time    Convergence         Total energy    Change
  ------------------------------------------------------------------------------
 GXTB-QUALIFICATION_ONLY STREAM-ORACLE iter=1 dE=  3.552714E-15 dVsh=  6.938894E-18 dFfold=  2.775558E-16 hermFull=  0.000000E+00 covOracleFull=  0.000000E+00 covOracleFold=  0.000000E+00 dualOracleFold=  0.000000E+00 covStream=  2.775558E-16 dualStream=  1.464376E-16
 GXTB-QUALIFICATION_ONLY STREAM-ORACLE iter=1 dE=  1.776357E-15 dVsh=  6.938894E-18 dFfold=  2.220446E-16 hermFull=  0.000000E+00 covOracleFull=  0.000000E+00 covOracleFold=  0.000000E+00 dualOracleFold=  0.000000E+00 covStream=  2.220446E-16 dualStream=  1.464377E-16
     1 GXTB-Raw    0.10E+01    0.0     0.00000515     -2110.2003501073 -2.11E+03
     2 GXTB-Simple 0.20E+00    0.0     0.00000030     -2110.2003501073 -1.36E-12
     3 GXTB-Simple 0.20E+00    0.0     0.00000026     -2110.2003501073 -9.09E-13
     4 GXTB-FDIIS  0.10E+01    0.0     0.00000156     -2110.2003501073 -3.64E-12
     5 GXTB-FDIIS  0.10E+01    0.0     0.00000008     -2110.2003501073  4.55E-13
     6 GXTB-FDIIS  0.10E+01    0.0     2.1545E-09     -2110.2003501073  4.55E-13
     7 GXTB-FDIIS  0.10E+01    0.0     8.0588E-11     -2110.2003501073  0.00E+00

  *** SCF run converged in     7 steps ***


  Core Hamiltonian energy:                                     -9.12659448950977
  Repulsive potential energy:                                   0.19912140031832
  Electrostatic energy:                                         0.01937723425845
  Self-consistent dispersion energy:                           -0.01081695915665
  Non-self consistent dispersion energy:                        0.00035262267535
  Correction for halogen bonding:                               0.00000000000000
  Electronic entropic energy:                                  -0.00000000000000
  Fermi energy:                                                -0.17210402522292

  Total energy:                                             -2110.20035010733909
  Total energy (extrapolated to T->0):                      -2110.20035010733909


 MULLIKEN POPULATION ANALYSIS

  # Atom   Element   Kind        Atomic population                    Net charge
       1     Ar         1                 8.001156                     -0.001156
       2     Ar         1                 7.999076                      0.000924
       3     Ar         1                 7.999749                      0.000251
       4     Ar         1                 8.000019                     -0.000019
 # Total charge                          32.000000                      0.000000


 ENERGY| Total FORCE_EVAL ( QS ) energy [hartree]          -2110.200350107339091

 -------------------------------------------------------------------------------
 ----                             MULTIGRID INFO                            ----
 -------------------------------------------------------------------------------
 total grid count     :           156              cutoff [a.u.]            1.00

 PW_GRID| Information for grid number                                         10
 PW_GRID| Cutoff [a.u.]                                                      1.0
 PW_GRID| spherical cutoff:                                                   NO
 PW_GRID|   Bounds   1             -3       2                Points:           6
 PW_GRID|   Bounds   2             -7       7                Points:          15
 PW_GRID|   Bounds   3             -3       2                Points:           6
 PW_GRID| Volume element (a.u.^3)   6.224         Volume (a.u.^3)      3360.7939
 PW_GRID| Grid span                                                    FULLSPACE

 POISSON| Solver                                                        PERIODIC
 POISSON| Periodicity                                                        XYZ

 RS_GRID| Information for grid number                                         10
 RS_GRID|   Bounds   1             -3       2                Points:           6
 RS_GRID|   Bounds   2             -7       7                Points:          15
 RS_GRID|   Bounds   3             -3       2                Points:           6

 Parameters for the always stable predictor-corrector (ASPC) method:
  ASPC order: 3
  B(1) =   3.000000
  B(2) =  -3.428571
  B(3) =   1.928571
  B(4) =  -0.571429
  B(5) =   0.071429

 Extrapolation method: ASPC

 Number of electrons:                                                         32
 Number of occupied orbitals:                                                 16
 Number of molecular orbitals:                                                36

 Number of orbital functions:                                                 36
 Number of independent orbital functions:                                     36


 SCF WAVEFUNCTION OPTIMIZATION

  Step     Update method      Time    Convergence         Total energy    Change
  ------------------------------------------------------------------------------
 GXTB-QUALIFICATION_ONLY STREAM-ORACLE iter=1 dE=  8.881784E-15 dVsh=  6.938894E-18 dFfold=  2.220446E-16 hermFull=  0.000000E+00 covOracleFull=  0.000000E+00 covOracleFold=  0.000000E+00 dualOracleFold=  0.000000E+00 covStream=  2.220446E-16 dualStream=  0.000000E+00
 GXTB-QUALIFICATION_ONLY STREAM-ORACLE iter=1 dE=  1.687539E-14 dVsh=  6.938894E-18 dFfold=  2.775558E-16 hermFull=  0.000000E+00 covOracleFull=  0.000000E+00 covOracleFold=  0.000000E+00 dualOracleFold=  0.000000E+00 covStream=  2.775558E-16 dualStream=  1.464377E-16
     1 GXTB-Raw    0.10E+01    0.0     0.00000273     -2110.2003522409 -2.11E+03
     2 GXTB-Simple 0.20E+00    0.0     0.00000016     -2110.2003522409  0.00E+00
     3 GXTB-Simple 0.20E+00    0.0     0.00000014     -2110.2003522409 -4.55E-13
     4 GXTB-FDIIS  0.10E+01    0.0     0.00000082     -2110.2003522409 -9.09E-13
     5 GXTB-FDIIS  0.10E+01    0.0     0.00000004     -2110.2003522409  0.00E+00
     6 GXTB-FDIIS  0.10E+01    0.0     1.1393E-09     -2110.2003522409  0.00E+00
     7 GXTB-FDIIS  0.10E+01    0.0     4.2827E-11     -2110.2003522409  4.55E-13

  *** SCF run converged in     7 steps ***


  Core Hamiltonian energy:                                     -9.12659524088640
  Repulsive potential energy:                                   0.19911887438131
  Electrostatic energy:                                         0.01937737180939
  Self-consistent dispersion energy:                           -0.01081696564328
  Non-self consistent dispersion energy:                        0.00035262466047
  Correction for halogen bonding:                               0.00000000000000
  Electronic entropic energy:                                  -0.00000000000000
  Fermi energy:                                                -0.17210464860776

  Total energy:                                             -2110.20035224089634
  Total energy (extrapolated to T->0):                      -2110.20035224089634


 MULLIKEN POPULATION ANALYSIS

  # Atom   Element   Kind        Atomic population                    Net charge
       1     Ar         1                 8.001156                     -0.001156
       2     Ar         1                 7.999076                      0.000924
       3     Ar         1                 7.999749                      0.000251
       4     Ar         1                 8.000019                     -0.000019
 # Total charge                          32.000000                      0.000000


 ENERGY| Total FORCE_EVAL ( QS ) energy [hartree]          -2110.200352240896336

 -------------------------------------------------------------------------------
 ----                             MULTIGRID INFO                            ----
 -------------------------------------------------------------------------------
 total grid count     :           156              cutoff [a.u.]            1.00

 PW_GRID| Information for grid number                                         11
 PW_GRID| Cutoff [a.u.]                                                      1.0
 PW_GRID| spherical cutoff:                                                   NO
 PW_GRID|   Bounds   1             -3       2                Points:           6
 PW_GRID|   Bounds   2             -7       7                Points:          15
 PW_GRID|   Bounds   3             -3       2                Points:           6
 PW_GRID| Volume element (a.u.^3)   6.224         Volume (a.u.^3)      3360.7741
 PW_GRID| Grid span                                                    FULLSPACE

 POISSON| Solver                                                        PERIODIC
 POISSON| Periodicity                                                        XYZ

 RS_GRID| Information for grid number                                         11
 RS_GRID|   Bounds   1             -3       2                Points:           6
 RS_GRID|   Bounds   2             -7       7                Points:          15
 RS_GRID|   Bounds   3             -3       2                Points:           6

 Parameters for the always stable predictor-corrector (ASPC) method:
  ASPC order: 3
  B(1) =   3.000000
  B(2) =  -3.428571
  B(3) =   1.928571
  B(4) =  -0.571429
  B(5) =   0.071429

 Extrapolation method: ASPC

 Number of electrons:                                                         32
 Number of occupied orbitals:                                                 16
 Number of molecular orbitals:                                                36

 Number of orbital functions:                                                 36
 Number of independent orbital functions:                                     36


 SCF WAVEFUNCTION OPTIMIZATION

  Step     Update method      Time    Convergence         Total energy    Change
  ------------------------------------------------------------------------------
 GXTB-QUALIFICATION_ONLY STREAM-ORACLE iter=1 dE=  7.105427E-15 dVsh=  6.938894E-18 dFfold=  2.775558E-16 hermFull=  0.000000E+00 covOracleFull=  0.000000E+00 covOracleFold=  0.000000E+00 dualOracleFold=  0.000000E+00 covStream=  2.775558E-16 dualStream=  2.928753E-16
 GXTB-QUALIFICATION_ONLY STREAM-ORACLE iter=1 dE=  8.881784E-16 dVsh=  1.387779E-17 dFfold=  3.330669E-16 hermFull=  0.000000E+00 covOracleFull=  0.000000E+00 covOracleFold=  0.000000E+00 dualOracleFold=  0.000000E+00 covStream=  3.330669E-16 dualStream=  0.000000E+00
     1 GXTB-Raw    0.10E+01    0.0     0.00000030     -2110.2003517896 -2.11E+03
     2 GXTB-Simple 0.20E+00    0.0     0.00000002     -2110.2003517896  4.55E-13
     3 GXTB-Simple 0.20E+00    0.0     0.00000002     -2110.2003517896  0.00E+00
     4 GXTB-FDIIS  0.10E+01    0.0     0.00000009     -2110.2003517896  0.00E+00
     5 GXTB-FDIIS  0.10E+01    0.0     5.2539E-09     -2110.2003517896  0.00E+00
     6 GXTB-FDIIS  0.10E+01    0.0     1.9457E-10     -2110.2003517896 -4.55E-13
     7 GXTB-FDIIS  0.10E+01    0.0     8.3000E-12     -2110.2003517896  0.00E+00

  *** SCF run converged in     7 steps ***


  Core Hamiltonian energy:                                     -9.12659487057011
  Repulsive potential energy:                                   0.19911928551754
  Electrostatic energy:                                         0.01937734841791
  Self-consistent dispersion energy:                           -0.01081696670908
  Non-self consistent dispersion energy:                        0.00035262338328
  Correction for halogen bonding:                               0.00000000000000
  Electronic entropic energy:                                  -0.00000000000000
  Fermi energy:                                                -0.17210456860625

  Total energy:                                             -2110.20035178963417
  Total energy (extrapolated to T->0):                      -2110.20035178963417


 MULLIKEN POPULATION ANALYSIS

  # Atom   Element   Kind        Atomic population                    Net charge
       1     Ar         1                 8.001156                     -0.001156
       2     Ar         1                 7.999076                      0.000924
       3     Ar         1                 7.999749                      0.000251
       4     Ar         1                 8.000019                     -0.000019
 # Total charge                          32.000000                      0.000000


 ENERGY| Total FORCE_EVAL ( QS ) energy [hartree]          -2110.200351789634169

 -------------------------------------------------------------------------------
 ----                             MULTIGRID INFO                            ----
 -------------------------------------------------------------------------------
 total grid count     :           156              cutoff [a.u.]            1.00

 PW_GRID| Information for grid number                                         12
 PW_GRID| Cutoff [a.u.]                                                      1.0
 PW_GRID| spherical cutoff:                                                   NO
 PW_GRID|   Bounds   1             -3       2                Points:           6
 PW_GRID|   Bounds   2             -7       7                Points:          15
 PW_GRID|   Bounds   3             -3       2                Points:           6
 PW_GRID| Volume element (a.u.^3)   6.224         Volume (a.u.^3)      3360.7840
 PW_GRID| Grid span                                                    FULLSPACE

 POISSON| Solver                                                        PERIODIC
 POISSON| Periodicity                                                        XYZ

 RS_GRID| Information for grid number                                         12
 RS_GRID|   Bounds   1             -3       2                Points:           6
 RS_GRID|   Bounds   2             -7       7                Points:          15
 RS_GRID|   Bounds   3             -3       2                Points:           6

 Parameters for the always stable predictor-corrector (ASPC) method:
  ASPC order: 3
  B(1) =   3.000000
  B(2) =  -3.428571
  B(3) =   1.928571
  B(4) =  -0.571429
  B(5) =   0.071429

 Extrapolation method: ASPC

 Number of electrons:                                                         32
 Number of occupied orbitals:                                                 16
 Number of molecular orbitals:                                                36

 Number of orbital functions:                                                 36
 Number of independent orbital functions:                                     36


 SCF WAVEFUNCTION OPTIMIZATION

  Step     Update method      Time    Convergence         Total energy    Change
  ------------------------------------------------------------------------------
 GXTB-QUALIFICATION_ONLY STREAM-ORACLE iter=1 dE=  5.329071E-15 dVsh=  1.084202E-19 dFfold=  2.220446E-16 hermFull=  0.000000E+00 covOracleFull=  0.000000E+00 covOracleFold=  0.000000E+00 dualOracleFold=  0.000000E+00 covStream=  2.220446E-16 dualStream=  0.000000E+00
 GXTB-QUALIFICATION_ONLY STREAM-ORACLE iter=1 dE=  8.881784E-16 dVsh=  6.938894E-18 dFfold=  4.996004E-16 hermFull=  0.000000E+00 covOracleFull=  0.000000E+00 covOracleFold=  0.000000E+00 dualOracleFold=  0.000000E+00 covStream=  4.996004E-16 dualStream=  0.000000E+00
     1 GXTB-Raw    0.10E+01    0.0     0.00000067     -2110.2003520267 -2.11E+03
     2 GXTB-Simple 0.20E+00    0.0     0.00000003     -2110.2003520267 -4.55E-13
     3 GXTB-Simple 0.20E+00    0.0     0.00000003     -2110.2003520267  0.00E+00
     4 GXTB-FDIIS  0.10E+01    0.0     0.00000017     -2110.2003520267  4.55E-13
     5 GXTB-FDIIS  0.10E+01    0.0     1.8464E-09     -2110.2003520267  0.00E+00
     6 GXTB-FDIIS  0.10E+01    0.0     1.9138E-10     -2110.2003520267 -4.55E-13
     7 GXTB-FDIIS  0.10E+01    0.0     1.4383E-11     -2110.2003520267  0.00E+00

  *** SCF run converged in     7 steps ***


  Core Hamiltonian energy:                                     -9.12659510838297
  Repulsive potential energy:                                   0.19911908913897
  Electrostatic energy:                                         0.01937736547906
  Self-consistent dispersion energy:                           -0.01081696502909
  Non-self consistent dispersion energy:                        0.00035262384470
  Correction for halogen bonding:                               0.00000000000000
  Electronic entropic energy:                                  -0.00000000000000
  Fermi energy:                                                -0.17210455405396

  Total energy:                                             -2110.20035202670442
  Total energy (extrapolated to T->0):                      -2110.20035202670442


 MULLIKEN POPULATION ANALYSIS

  # Atom   Element   Kind        Atomic population                    Net charge
       1     Ar         1                 8.001156                     -0.001156
       2     Ar         1                 7.999076                      0.000924
       3     Ar         1                 7.999749                      0.000251
       4     Ar         1                 8.000019                     -0.000019
 # Total charge                          32.000000                      0.000000


 ENERGY| Total FORCE_EVAL ( QS ) energy [hartree]          -2110.200352026704422

 -------------------------------------------------------------------------------
 ----                             MULTIGRID INFO                            ----
 -------------------------------------------------------------------------------
 total grid count     :           156              cutoff [a.u.]            1.00

 PW_GRID| Information for grid number                                         13
[...]


 MODULE DEBUG: ATOMIC COORDINATES IN ANGSTROM

   Atom Kind Element         X             Y             Z       Z(eff)     Mass
      1    1 Ar   18      0.594380      9.018000      0.194620   8.0000  39.9480
      2    1 Ar   18      2.556360      9.414000      0.073640   8.0000  39.9480
      3    1 Ar   18      2.719420      9.576000      2.582660   8.0000  39.9480
      4    1 Ar   18      0.152540      8.424000      2.872013   8.0000  39.9480


 Parameters for the always stable predictor-corrector (ASPC) method:
  ASPC order: 3
  B(1) =   3.000000
  B(2) =  -3.428571
  B(3) =   1.928571
  B(4) =  -0.571429
  B(5) =   0.071429

 Extrapolation method: ASPC

 Number of electrons:                                                         32
 Number of occupied orbitals:                                                 16
 Number of molecular orbitals:                                                36

 Number of orbital functions:                                                 36
 Number of independent orbital functions:                                     36


 SCF WAVEFUNCTION OPTIMIZATION

  Step     Update method      Time    Convergence         Total energy    Change
  ------------------------------------------------------------------------------
 GXTB-QUALIFICATION_ONLY STREAM-ORACLE iter=1 dE=  3.552714E-15 dVsh=  5.421011E-20 dFfold=  2.775558E-16 hermFull=  0.000000E+00 covOracleFull=  0.000000E+00 covOracleFold=  0.000000E+00 dualOracleFold=  0.000000E+00 covStream=  2.775558E-16 dualStream=  1.464377E-16
 GXTB-QUALIFICATION_ONLY STREAM-ORACLE iter=1 dE=  7.105427E-15 dVsh=  1.084202E-19 dFfold=  2.220446E-16 hermFull=  0.000000E+00 covOracleFull=  0.000000E+00 covOracleFold=  0.000000E+00 dualOracleFold=  0.000000E+00 covStream=  2.220446E-16 dualStream=  1.464377E-16
     1 GXTB-Raw    0.10E+01    0.0     0.00000586     -2110.2003515934 -2.11E+03
     2 GXTB-Simple 0.20E+00    0.0     0.00000028     -2110.2003515934 -9.09E-13
     3 GXTB-Simple 0.20E+00    0.0     0.00000024     -2110.2003515934 -4.55E-13
     4 GXTB-FDIIS  0.10E+01    0.0     0.00000134     -2110.2003515934 -1.36E-12
     5 GXTB-FDIIS  0.10E+01    0.0     7.3936E-09     -2110.2003515934  0.00E+00
     6 GXTB-FDIIS  0.10E+01    0.0     6.5874E-10     -2110.2003515934  0.00E+00
     7 GXTB-FDIIS  0.10E+01    0.0     1.0860E-10     -2110.2003515934  0.00E+00
     8 GXTB-FDIIS  0.10E+01    0.0     1.4406E-11     -2110.2003515934  0.00E+00

  *** SCF run converged in     8 steps ***


  Core Hamiltonian energy:                                     -9.12659473519351
  Repulsive potential energy:                                   0.19911953934275
  Electrostatic energy:                                         0.01937729362506
  Self-consistent dispersion energy:                           -0.01081697160112
  Non-self consistent dispersion energy:                        0.00035262529955
  Correction for halogen bonding:                               0.00000000000000
  Electronic entropic energy:                                  -0.00000000000000
  Fermi energy:                                                -0.17210458704137

  Total energy:                                             -2110.20035159336385
  Total energy (extrapolated to T->0):                      -2110.20035159336385


 MULLIKEN POPULATION ANALYSIS

  # Atom   Element   Kind        Atomic population                    Net charge
       1     Ar         1                 8.001156                     -0.001156
       2     Ar         1                 7.999076                      0.000924
       3     Ar         1                 7.999749                      0.000251
       4     Ar         1                 8.000019                     -0.000019
 # Total charge                          32.000000                      0.000000


 ENERGY| Total FORCE_EVAL ( QS ) energy [hartree]          -2110.200351593363848


 MODULE DEBUG: ATOMIC COORDINATES IN ANGSTROM

   Atom Kind Element         X             Y             Z       Z(eff)     Mass
      1    1 Ar   18      0.594380      9.018000      0.194620   8.0000  39.9480
      2    1 Ar   18      2.556360      9.414000      0.073640   8.0000  39.9480
      3    1 Ar   18      2.719420      9.576000      2.582660   8.0000  39.9480
      4    1 Ar   18      0.152540      8.424000      2.871907   8.0000  39.9480


 Parameters for the always stable predictor-corrector (ASPC) method:
  ASPC order: 3
  B(1) =   3.000000
  B(2) =  -3.428571
  B(3) =   1.928571
  B(4) =  -0.571429
  B(5) =   0.071429

 Extrapolation method: ASPC

 Number of electrons:                                                         32
 Number of occupied orbitals:                                                 16
 Number of molecular orbitals:                                                36

 Number of orbital functions:                                                 36
 Number of independent orbital functions:                                     36


 SCF WAVEFUNCTION OPTIMIZATION

  Step     Update method      Time    Convergence         Total energy    Change
  ------------------------------------------------------------------------------
 GXTB-QUALIFICATION_ONLY STREAM-ORACLE iter=1 dE=  1.776357E-15 dVsh=  6.938894E-18 dFfold=  2.220446E-16 hermFull=  0.000000E+00 covOracleFull=  0.000000E+00 covOracleFold=  0.000000E+00 dualOracleFold=  0.000000E+00 covStream=  2.220446E-16 dualStream=  1.464377E-16
 GXTB-QUALIFICATION_ONLY STREAM-ORACLE iter=1 dE=  3.552714E-15 dVsh=  6.938894E-18 dFfold=  2.775558E-16 hermFull=  0.000000E+00 covOracleFull=  0.000000E+00 covOracleFold=  0.000000E+00 dualOracleFold=  0.000000E+00 covStream=  2.775558E-16 dualStream=  2.928753E-16
     1 GXTB-Raw    0.10E+01    0.0     0.00000910     -2110.2003524364 -2.11E+03
     2 GXTB-Simple 0.20E+00    0.0     0.00000044     -2110.2003524364 -3.64E-12
     3 GXTB-Simple 0.20E+00    0.0     0.00000037     -2110.2003524364 -1.36E-12
     4 GXTB-FDIIS  0.10E+01    0.0     0.00000208     -2110.2003524364 -5.91E-12
     5 GXTB-FDIIS  0.10E+01    0.0     7.7296E-09     -2110.2003524364  4.55E-13
     6 GXTB-FDIIS  0.10E+01    0.0     1.0658E-09     -2110.2003524364 -4.55E-13
     7 GXTB-FDIIS  0.10E+01    0.0     6.1144E-11     -2110.2003524364  0.00E+00

  *** SCF run converged in     7 steps ***


  Core Hamiltonian energy:                                     -9.12659537554936
  Repulsive potential energy:                                   0.19911862124739
  Electrostatic energy:                                         0.01937742652352
  Self-consistent dispersion energy:                           -0.01081696074469
  Non-self consistent dispersion energy:                        0.00035262274383
  Correction for halogen bonding:                               0.00000000000000
  Electronic entropic energy:                                  -0.00000000000000
  Fermi energy:                                                -0.17210463020039

  Total energy:                                             -2110.20035243638358
  Total energy (extrapolated to T->0):                      -2110.20035243638358


 MULLIKEN POPULATION ANALYSIS

  # Atom   Element   Kind        Atomic population                    Net charge
       1     Ar         1                 8.001157                     -0.001157
       2     Ar         1                 7.999076                      0.000924
       3     Ar         1                 7.999749                      0.000251
       4     Ar         1                 8.000019                     -0.000019
 # Total charge                          32.000000                     -0.000000


 ENERGY| Total FORCE_EVAL ( QS ) energy [hartree]          -2110.200352436383582

 DEBUG| Atom    E(z + 0.0001)    E(z - 0.0001)     f(numerical)    f(analytical)
 DEBUG|    4   -2110.20035159   -2110.20035244      -0.00421510      -0.00421510

 DEBUG| Atom  Coordinate   f(numerical)   f(analytical)   Difference   Error [%]
 DEBUG|    4      x         -0.01517428     -0.01517428  -0.00000000       -0.00
 DEBUG|    4      y         -0.02477927     -0.02477927   0.00000000        0.00
 DEBUG|    4      z         -0.00421510     -0.00421510   0.00000000        0.00

 DEBUG|======================== BEGIN OF SUMMARY ===============================
 DEBUG| Atom  Coordinate   f(numerical)   f(analytical)   Difference   Error [%]
 DEBUG|    1      x         -0.21035040     -0.21035040   0.00000000        0.00
 DEBUG|    1      y         -0.03327327     -0.03327327   0.00000000        0.00
 DEBUG|    1      z          0.01930882      0.01930882  -0.00000000        0.00
 DEBUG|    2      x          0.21295780      0.21295780   0.00000000       -0.00
 DEBUG|    2      y          0.04011451      0.04011451  -0.00000000        0.00
 DEBUG|    2      z         -0.04024680     -0.04024680  -0.00000000       -0.00
 DEBUG|    3      x          0.01256688      0.01256689   0.00000000       -0.00
 DEBUG|    3      y          0.01793803      0.01793803   0.00000000       -0.00
 DEBUG|    3      z          0.02515307      0.02515307  -0.00000000        0.00
 DEBUG|    4      x         -0.01517428     -0.01517428  -0.00000000       -0.00
 DEBUG|    4      y         -0.02477927     -0.02477927   0.00000000        0.00
 DEBUG|    4      z         -0.00421510     -0.00421510   0.00000000        0.00
 DEBUG| Sum of differences:                               0.00000001        0.00
 DEBUG|======================== END OF SUMMARY =================================

 -------------------------------------------------------------------------------
 -                                                                             -
 -                                DBCSR STATISTICS                             -
 -                                                                             -
 -------------------------------------------------------------------------------
 COUNTER                                    TOTAL       BLAS       SMM       ACC
 flops inhomo. stacks                           0       0.0%      0.0%      0.0%
 flops total                         0.000000E+00       0.0%      0.0%      0.0%
 flops max/rank                      0.000000E+00       0.0%      0.0%      0.0%
 matmuls inhomo. stacks                         0       0.0%      0.0%      0.0%
 matmuls total                                  0       0.0%      0.0%      0.0%
 number of processed stacks                     0       0.0%      0.0%      0.0%
 average stack size                                     0.0       0.0       0.0
 marketing flops                     0.000000E+00
 -------------------------------------------------------------------------------
 -                                                                             -
 -                      DBCSR MESSAGE PASSING PERFORMANCE                      -
 -                                                                             -
 -------------------------------------------------------------------------------
 ROUTINE             CALLS      AVE VOLUME [Bytes]
 MP_Bcast                1                     12.
 MP_Allreduce           19                     21.
 MP_Alltoall        128280                   6852.
 -------------------------------------------------------------------------------

 -------------------------------------------------------------------------------
 -                                                                             -
 -                          OFFLOAD MEMPOOL STATISTICS                         -
 -                                                                             -
 -------------------------------------------------------------------------------
 Memory consumption                Number of allocations  Used [MiB]  Size [MiB]
 Host                                                  1           0           0
 -------------------------------------------------------------------------------

 MEMORY| Estimated peak process memory [MiB]                                   0

 -------------------------------------------------------------------------------
 ----                             MULTIGRID INFO                            ----
 -------------------------------------------------------------------------------
 total grid count     :           156              cutoff [a.u.]            1.00

 -------------------------------------------------------------------------------
 -                                                                             -
 -                         MESSAGE PASSING PERFORMANCE                         -
 -                                                                             -
 -------------------------------------------------------------------------------

 ROUTINE             CALLS      AVE VOLUME [Bytes]
 MP_Group               20
 MP_Bcast           127690                      7.
 MP_Allreduce       666812                   1026.
 MP_Sync                20
 MP_Wait            106120
 MP_ISend           148568                   1487.
 MP_IRecv           148568                   1487.
 -------------------------------------------------------------------------------


 -------------------------------------------------------------------------------
 -                                                                             -
 -                           R E F E R E N C E S                               -
 -                                                                             -
 -------------------------------------------------------------------------------
 
 CP2K version 2026.1 (Development Version), the CP2K developers group (2026).
 CP2K is freely available from https://www.cp2k.org/ .
 
 M. Iannuzzi, J. Wilhelm, F. Stein, A. Bussy, H. Elgabarty, D. Golze, A. Hehn, 
 M. Graml, S. Marek, B. Sertcan Gökmen, C. Schran, H. Forbert, R. Z. 
 Khaliullin, A. Kozhevnikov, M. Taillefumier, R. Meli, V. V. Rybkin, M. Brehm, 
 R. Schade, O. Schütt, J. V. Pototschnig, H. Mirhosseini, A. Knüpfer, D. Marx, 
 M. Krack, J. Hutter, T. D. Kühne.
 J. Phys. Chem. B 130, 1237-1310 (2026).
 The CP2K Program Package Made Simple.
 https://doi.org/10.1021/acs.jpcb.5c05851

 A. Katbashev, M. Stahn, T. Rose, V. Alizadeh, M. Friede, C. Plett, P. 
 Steinbach, S. Ehlert.
 J. Phys. Chem. A 129, 2667-2682 (2025).
 Overview on Building Blocks and Applications of Efficient and Robust Extended 
 Tight Binding.
 https://doi.org/10.1021/acs.jpca.4c08263

 T. D. Kühne, M. Iannuzzi, M. Del Ben, V. V. Rybkin, P. Seewald, F. Stein, T. 
 Laino, R. Z. Khaliullin, O. Schütt, F. Schiffmann, D. Golze, J. Wilhelm, S. 
 Chulkov, M. H. Bani-Hashemian, V. Weber, U. Borstnik, M. Taillefumier, A. S. 
 Jakobovits, A. Lazzaro, H. Pabst, T. Müller, R. Schade, M. Guidon, S. 
 Andermatt, N. Holmberg, G. K. Schenter, A. Hehn, A. Bussy, F. Belleflamme, G. 
 Tabacchi, A. Glöß, M. Lass, I. Bethune, C. J. Mundy, C. Plessl, M. Watkins, 
 J. VandeVondele, M. Krack, J. Hutter.
 J. Chem. Phys. 152, 194103 (2020).
 CP2K: An electronic structure and molecular dynamics software package - 
 Quickstep: Efficient and accurate electronic structure calculations.
 https://doi.org/10.1063/5.0007045

 P. Pracht, E. Caldeweyher, S. Ehlert, S. Grimme.
 ChemRxiv, (2019).
 A Robust Non-Self-Consistent Tight-Binding Quantum Chemistry Method for large 
 Molecules.
 https://doi.org/10.26434/chemrxiv.8326202.v1

 S. Grimme, C. Bannwarth, P. Shushkov.
 J. Chem. Theory Comput. 13, 1989 (2017).
 A Robust and Accurate Tight-Binding Quantum Chemical Method for Structures, 
 Vibrational Frequencies, and Noncovalent Interactions of Large Molecular 
 Systems Parametrized for All spd-Block Elements (Z = 1-86).
 https://doi.org/10.1021/acs.jctc.7b00118

 O. Schuett, P. Messmer, J. Hutter, J. VandeVondele.
 Electronic Structure Calculations on Graphics Processing Units, 173-190 (2016).
 GPU-Accelerated Sparse Matrix-Matrix Multiplication for Linear Scaling Density 
 Functional Theory.
 https://doi.org/10.1002/9781118670712.ch8

 U. Borstnik, J. VandeVondele, V. Weber, J. Hutter.
 Parallel Comput. 40, 47-58 (2014).
 Sparse matrix multiplication: The distributed block-compressed sparse row 
 library.
 https://doi.org/10.1016/j.parco.2014.03.012

 T. D. Kühne, M. Krack, F. R. Mohamed, M. Parrinello.
 Phys. Rev. Lett. 98, 066401 (2007).
 Efficient and accurate Car-Parrinello-like approach to Born-Oppenheimer 
 molecular dynamics.
 https://doi.org/10.1103/PhysRevLett.98.066401

 M. Frigo, S. G. Johnson.
 Proc. IEEE 93, 216-231 (2005).
 The design and implementation of FFTW3.
 https://doi.org/10.1109/JPROC.2004.840301

 J. Kolafa.
 J. Comput. Chem. 25, 335-342 (2004).
 Time-reversible always stable predictor-corrector method for molecular dynamics 
 of polarizable molecules.
 https://doi.org/10.1002/jcc.10385

 N. D. Mermin.
 Phys. Rev. 137, A1441-A1443 (1965).
 Thermal Properties of the Inhomogeneous Electron Gas.
 https://doi.org/10.1103/PhysRev.137.A1441


 -------------------------------------------------------------------------------
 -                                                                             -
 -                                T I M I N G                                  -
 -                                                                             -
 -------------------------------------------------------------------------------
 SUBROUTINE                       CALLS  ASD         SELF TIME        TOTAL TIME
                                MAXIMUM       AVERAGE  MAXIMUM  AVERAGE  MAXIMUM
 CP2K                                 1  1.0    0.003    0.003   12.135   12.135
 qs_energies                         45  2.0    0.004    0.004   11.883   11.883
 scf_env_do_scf                      45  3.0    0.000    0.000    9.143    9.143
 scf_env_do_scf_inner_loop          346  4.0    1.451    1.451    9.142    9.142
 rebuild_ks_matrix                  391  5.8    0.000    0.000    4.268    4.268
 build_tblite_ks_matrix             391  6.8    2.176    2.176    4.268    4.268
 qs_ks_update_qs_env                389  4.8    0.001    0.001    4.224    4.224
 rskp_transform                   28464  6.6    3.555    3.555    3.555    3.555
 build_tblite_matrices               47  4.0    1.327    1.327    2.020    2.020
 qs_energies_init_hamiltonians       45  3.0    0.012    0.012    1.991    1.991
 qs_scf_new_mos_kp                  346  5.0    0.001    0.001    1.894    1.894
 do_general_diag_kp                 346  6.0    0.078    0.078    1.894    1.894
 qs_forces                            2  2.0    0.001    0.001    0.746    0.746
 cp_dbcsr_alloc_block_from_nbl    80295  5.1    0.494    0.494    0.662    0.662
 kpoint_density_transform           394  7.1    0.012    0.012    0.429    0.429
 copy_dbcsr_to_fm                  6248  6.9    0.021    0.021    0.410    0.410
 dbcsr_iterator_start            713678  6.9    0.289    0.289    0.377    0.377
 dbcsr_iterator_stop             713678  6.9    0.258    0.258    0.338    0.338
 cp_cfm_geeig                      1384  7.0    0.003    0.003    0.297    0.297
 dbcsr_complete_redistribute       9400  8.3    0.113    0.113    0.282    0.282
 cp_fm_start_copy_general         21224  6.9    0.182    0.182    0.280    0.280
 -------------------------------------------------------------------------------

 The number of warnings for this run is : 1
 
 -------------------------------------------------------------------------------
  **** **** ******  **  PROGRAM ENDED AT                 2026-07-16 17:47:05.895
 ***** ** ***  *** **   PROGRAM RAN ON            MacBook-Pro-von-Thomas-3.local
 **    ****   ******    PROGRAM RAN BY                                   tkuehne
 ***** **    ** ** **   PROGRAM PROCESS ID                                 93548
  **** **  *******  **  PROGRAM STOPPED IN /private/tmp/gxtb_batch_runtime/pbc_2
                                           d_full_b1
