 DBCSR| CPU Multiplication driver                                           XSMM (U)
 DBCSR| Multrec recursion limit                                              512 (U)
 DBCSR| Multiplication stack size                                           1000 (D)
 DBCSR| Maximum elements for images                                    UNLIMITED (U)
 DBCSR| Multiplicative factor virtual images                                   1 (U)
 DBCSR| Use multiplication densification                                       T (D)
 DBCSR| Multiplication size stacks                                             3 (U)
 DBCSR| Use memory pool for CPU allocation                                     F (U)
 DBCSR| Number of 3D layers                                               SINGLE (U)
 DBCSR| Use MPI memory allocation                                              F (U)
 DBCSR| Use RMA algorithm                                                      F (U)
 DBCSR| Use Communication thread                                               T (U)
 DBCSR| Communication thread load                                             87 (D)
 DBCSR| MPI: My process id                                                     0
 DBCSR| MPI: Number of processes                                               1
 DBCSR| OMP: Current number of threads                                         1
 DBCSR| OMP: Max number of threads                                             1
 DBCSR| Split modifier for TAS multiplication algorithm                  1.0E+00 (U)


  **** **** ******  **  PROGRAM STARTED AT               2026-05-23 22:46:18.299
 ***** ** ***  *** **   PROGRAM STARTED ON                            spark-c86c
 **    ****   ******    PROGRAM STARTED BY                              kuehne88
 ***** **    ** ** **   PROGRAM PROCESS ID                               2222441
  **** **  *******  **  PROGRAM STARTED IN /home/kuehne88/periodic-gfn2-benchmar
                                           ks/X23b/runs/molecule_geoopt/GFN1/pyr
                                           azole_GFN1_mol_geoopt

 CP2K| version string:                 CP2K version 2026.1 (Development Version)
 CP2K| source code revision number:                                   0622d442e4
 CP2K| cp2kflags: omp fftw3 libxc parallel scalapack mpi_f08 xsmm spglib libdftd
 CP2K|            4 dftd4_v3 mctc-lib tblite
 CP2K| is freely available from                            https://www.cp2k.org/
 CP2K| Program compiled at                                   2026-05-23 22:05:08
 CP2K| Program compiled on                                            spark-c86c
 CP2K| Program compiled for                                              aarch64
 CP2K| Data directory path    /home/kuehne88/cp2k-master-tblite-20260523/install
 CP2K| Input file name                              pyrazole_GFN1_mol_geoopt.inp

 GLOBAL| Force Environment number                                              1
 GLOBAL| Basis set file name                                           BASIS_SET
 GLOBAL| Potential file name                                           POTENTIAL
 GLOBAL| MM Potential file name                                     MM_POTENTIAL
 GLOBAL| Coordinate file name                                      __STD_INPUT__
 GLOBAL| Method name                                                        CP2K
 GLOBAL| Project name                                   pyrazole_GFN1_mol_geoopt
 GLOBAL| Run type                                                        GEO_OPT
 GLOBAL| FFT library                                                       FFTW3
 GLOBAL| Diagonalization library                                       ScaLAPACK
 GLOBAL| Cholesky decomposition library                                ScaLAPACK
 GLOBAL| DGEMM library                                                      BLAS
 GLOBAL| Direct generalized diagonalization requested                          F
 GLOBAL| Orthonormality check for eigenvectors                          DISABLED
 GLOBAL| Matrix multiplication library                                 ScaLAPACK
 GLOBAL| All-to-all communication in single precision                          F
 GLOBAL| FFTs using library dependent lengths                                  F
 GLOBAL| Grid backend                                                       AUTO
 GLOBAL| Global print level                                                  LOW
 GLOBAL| MPI I/O enabled                                                       T
 GLOBAL| Total number of message passing processes                             1
 GLOBAL| Number of distributed systems (nodes)                                 1
 GLOBAL| Number of threads for this process                                    1
 GLOBAL| This output is from process                                           0
 GLOBAL| OpenMP stack size per thread (OMP_STACKSIZE)                    default
 GLOBAL| CPU model name                                                  UNKNOWN
 GLOBAL| CPUID                                                              2200
 GLOBAL| Compiled for CPUID                                                 2000

 *** HINT in environment.F:970 :: The compiler target flags (arm_arch64)   ***
 *** used to build this binary cannot exploit all extensions of this CPU   ***
 *** model (arm_sve256). Consider compiler target flags as part of FCFLAGS ***
 *** and CFLAGS (ARCH file).                                               ***


 MEMORY| system memory details [Kb]
 MEMORY|                        rank 0           min           max       average
 MEMORY| MemTotal            125508532     125508532     125508532     125508532
 MEMORY| MemFree             105647384     105647384     105647384     105647384
 MEMORY| Buffers                865972        865972        865972        865972
 MEMORY| Cached               13214812      13214812      13214812      13214812
 MEMORY| Slab                  1565168       1565168       1565168       1565168
 MEMORY| SReclaimable           888300        888300        888300        888300
 MEMORY| MemLikelyFree       120616468     120616468     120616468     120616468


 GENERATE|  Preliminary Number of Bonds generated:                             0
 GENERATE|  Achieved consistency in connectivity generation.


                  #####   #####        #     #   #     #       #          
                 #     # #     #      #    ##### #     #   # #####  ####  
                 #     # #           #       #   ###   #       #   #    # 
                 #     #  #####     #        #   #  #  #   #   #   ###### 
                 #   # #       #   #         #   #   # #   #   #   #      
                 #    #  #     #  #          #   #  #  # # #   #    #   # 
                  #### #  #####  #           #   ###   ##  #   #     ###  

                                   GFN1-xTB  
                                 Version 0.0                       
                            Johann V. Pototschnig                  



 TOTAL NUMBERS AND MAXIMUM NUMBERS

  Total number of            - Atomic kinds:                                   3
                             - Atoms:                                          9
                             - Shell sets:                                    18
                             - Shells:                                        18
                             - Primitive Cartesian functions:                104
                             - Cartesian basis functions:                     28
                             - Spherical basis functions:                     28

  Maximum angular momentum of the orbital basis functions:                     1


 SCF PARAMETERS         Density guess:                                     MOPAC
                        --------------------------------------------------------
                        max_scf:                                             300
                        max_scf_history:                                       0
                        max_diis:                                              4
                        --------------------------------------------------------
                        eps_scf:                                        1.00E-09
                        eps_scf_history:                                0.00E+00
                        eps_diis:                                       1.00E-01
                        eps_eigval:                                     1.00E-05
                        --------------------------------------------------------
                        level_shift [a.u.]:                             0.000000
                        added MOs                                        15    0
                        --------------------------------------------------------
                        Mixing method:                           DIRECT_P_MIXING
                        --------------------------------------------------------
                        Smear method:                                FERMI_DIRAC
                        Electronic temperature [K]:                        300.0
                        Electronic temperature [a.u.]:                  9.50E-04
                        Accuracy threshold:                             1.00E-06
                        --------------------------------------------------------
                        No outer SCF

 BFGS| Use rational function optimization for step estimation:                NO
 BFGS| Use model Hessian for initial guess:                                  YES
 BFGS| Restart Hessian:                                                       NO
 BFGS| Trust radius:                                                       0.472

 *******************************************************************************
 ***                     STARTING GEOMETRY OPTIMIZATION                      ***
 ***                                   BFGS                                  ***
 *******************************************************************************

 Extrapolation method: initial_guess

 Number of electrons:                                                         26
 Number of occupied orbitals:                                                 13
 Number of molecular orbitals:                                                28

 Number of orbital functions:                                                 28
 Number of independent orbital functions:                                     28


 SCF WAVEFUNCTION OPTIMIZATION

  Step     Update method      Time    Convergence         Total energy    Change
  ------------------------------------------------------------------------------
     1 TBLite/Diag 0.40E+00    0.0     1.37284408       -14.7803055068 -1.48E+01
     2 TBLite/Diag 0.40E+00    0.0     0.40319681       -14.8426155727 -6.23E-02
     3 TBLite/Diag 0.40E+00    0.0     0.18018341       -14.8411673470  1.45E-03
     4 TBLite/Diag 0.40E+00    0.0     0.11127068       -14.8484686760 -7.30E-03
     5 TBLite/Diag 0.40E+00    0.0     0.01230691       -14.8485670560 -9.84E-05
     6 TBLite/Diag 0.40E+00    0.0     0.00209239       -14.8485715818 -4.53E-06
     7 TBLite/Diag 0.40E+00    0.0     0.00057047       -14.8485721359 -5.54E-07
     8 TBLite/Diag 0.40E+00    0.0     0.00015791       -14.8485721667 -3.08E-08
     9 TBLite/Diag 0.40E+00    0.0     0.00002480       -14.8485721681 -1.40E-09
    10 TBLite/Diag 0.40E+00    0.0     0.00000284       -14.8485721681 -6.55E-12
    11 TBLite/Diag 0.40E+00    0.0     0.00000013       -14.8485721681  5.33E-15
    12 TBLite/Diag 0.40E+00    0.0     0.00000003       -14.8485721681 -8.88E-15
    13 TBLite/Diag 0.40E+00    0.0     0.00000001       -14.8485721681  5.33E-15
    14 TBLite/Diag 0.40E+00    0.0     1.4295E-09       -14.8485721681 -1.07E-14
    15 TBLite/Diag 0.40E+00    0.0     2.6101E-12       -14.8485721681  3.55E-15

  *** SCF run converged in    15 steps ***


  Core Hamiltonian energy:                                    -15.05086667412249
  Repulsive potential energy:                                   0.18875758853137
  Electrostatic energy:                                         0.01626631647142
  Self-consistent dispersion energy:                            0.00000000000000
  Non-self consistent dispersion energy:                       -0.00272939894307
  Correction for halogen bonding:                               0.00000000000000
  Electronic entropic energy:                                  -0.00000000000000
  Fermi energy:                                                -0.27924072753164

  Total energy:                                               -14.84857216806278
  Total energy (extrapolated to T->0):                        -14.84857216806278

 ENERGY| Total FORCE_EVAL ( QS ) energy [hartree]            -14.848572168062775

 OPT| **************************************************************************
 OPT| Step number                                                              0
 OPT| Optimization method                                                   BFGS
 OPT| Total energy [hartree]                                      -14.8485721681
 OPT| Used time [s]                                                        0.012
 OPT| **************************************************************************
 OPT| Estimated peak process memory [MiB]                                    166

 --------------------------
 OPTIMIZATION STEP:      1
 --------------------------

 Extrapolation method: ASPC

 Number of electrons:                                                         26
 Number of occupied orbitals:                                                 13
 Number of molecular orbitals:                                                28

 Number of orbital functions:                                                 28
 Number of independent orbital functions:                                     28


 SCF WAVEFUNCTION OPTIMIZATION

  Step     Update method      Time    Convergence         Total energy    Change
  ------------------------------------------------------------------------------
     1 TBLite/Diag 0.40E+00    0.0     0.04109423       -14.8493437279 -1.48E+01
     2 TBLite/Diag 0.40E+00    0.0     0.00538082       -14.8493684583 -2.47E-05
     3 TBLite/Diag 0.40E+00    0.0     0.00194825       -14.8493691713 -7.13E-07
     4 TBLite/Diag 0.40E+00    0.0     0.00084950       -14.8493695353 -3.64E-07
     5 TBLite/Diag 0.40E+00    0.0     0.00015944       -14.8493695600 -2.47E-08
     6 TBLite/Diag 0.40E+00    0.0     0.00003428       -14.8493695613 -1.28E-09
     7 TBLite/Diag 0.40E+00    0.0     0.00000847       -14.8493695613 -5.75E-11
     8 TBLite/Diag 0.40E+00    0.0     0.00000120       -14.8493695613 -1.95E-12
     9 TBLite/Diag 0.40E+00    0.0     0.00000027       -14.8493695613 -1.12E-13
    10 TBLite/Diag 0.40E+00    0.0     0.00000007       -14.8493695613 -1.24E-14
    11 TBLite/Diag 0.40E+00    0.0     1.3645E-09       -14.8493695613  8.88E-15
    12 TBLite/Diag 0.40E+00    0.0     3.7706E-10       -14.8493695613 -7.11E-15

  *** SCF run converged in    12 steps ***


  Core Hamiltonian energy:                                    -15.05997407139369
  Repulsive potential energy:                                   0.19682362240632
  Electrostatic energy:                                         0.01650726490141
  Self-consistent dispersion energy:                            0.00000000000000
  Non-self consistent dispersion energy:                       -0.00272637726092
  Correction for halogen bonding:                               0.00000000000000
  Electronic entropic energy:                                  -0.00000000000000
  Fermi energy:                                                -0.27515891833096

  Total energy:                                               -14.84936956134689
  Total energy (extrapolated to T->0):                        -14.84936956134689

 ENERGY| Total FORCE_EVAL ( QS ) energy [hartree]            -14.849369561346887

 OPT| **************************************************************************
 OPT| Step number                                                              1
 OPT| Optimization method                                                   BFGS
 OPT| Total energy [hartree]                                      -14.8493695613
 OPT| Effective energy change [hartree]                            -0.0007973933
 OPT| Predicted energy change [hartree]                            -0.0010695490
 OPT| Scaling factor                                                0.0000000000
 OPT| Step size                                                     0.0651658620
 OPT| Trust radius                                                  0.4724315332
 OPT| Decrease in energy                                                     YES
 OPT| Used time [s]                                                        0.010
 OPT|
 OPT| Maximum step size                                             0.0651658620
 OPT| Convergence limit for maximum step size                       0.0030000000
 OPT| Maximum step size is converged                                          NO
 OPT|
 OPT| RMS step size                                                 0.0173151637
 OPT| Convergence limit for RMS step size                           0.0015000000
 OPT| RMS step size is converged                                              NO
 OPT|
 OPT| Maximum gradient                                              0.0119733421
 OPT| Convergence limit for maximum gradient                        0.0004500000
 OPT| Maximum gradient is converged                                           NO
 OPT|
 OPT| RMS gradient                                                  0.0032176815
 OPT| Convergence limit for RMS gradient                            0.0003000000
 OPT| RMS gradient is converged                                               NO
 OPT| **************************************************************************
 OPT| Estimated peak process memory after this step [MiB]                    166

 --------------------------
 OPTIMIZATION STEP:      2
 --------------------------

 Extrapolation method: ASPC

 Number of electrons:                                                         26
 Number of occupied orbitals:                                                 13
 Number of molecular orbitals:                                                28

 Number of orbital functions:                                                 28
 Number of independent orbital functions:                                     28


 SCF WAVEFUNCTION OPTIMIZATION

  Step     Update method      Time    Convergence         Total energy    Change
  ------------------------------------------------------------------------------
     1 TBLite/Diag 0.40E+00    0.0     0.01045103       -14.8496730303 -1.48E+01
     2 TBLite/Diag 0.40E+00    0.0     0.00220575       -14.8496768879 -3.86E-06
     3 TBLite/Diag 0.40E+00    0.0     0.00054819       -14.8496771313 -2.43E-07
     4 TBLite/Diag 0.40E+00    0.0     0.00017388       -14.8496771616 -3.03E-08
     5 TBLite/Diag 0.40E+00    0.0     0.00002155       -14.8496771616 -6.08E-11
     6 TBLite/Diag 0.40E+00    0.0     0.00001843       -14.8496771619 -2.46E-10
     7 TBLite/Diag 0.40E+00    0.0     0.00000324       -14.8496771619 -1.43E-11
     8 TBLite/Diag 0.40E+00    0.0     0.00000112       -14.8496771619 -1.43E-12
     9 TBLite/Diag 0.40E+00    0.0     0.00000013       -14.8496771619 -2.13E-14
    10 TBLite/Diag 0.40E+00    0.0     0.00000002       -14.8496771619  1.78E-15
    11 TBLite/Diag 0.40E+00    0.0     7.3212E-10       -14.8496771619 -7.11E-15

  *** SCF run converged in    11 steps ***


  Core Hamiltonian energy:                                    -15.06423841644639
  Repulsive potential energy:                                   0.20094464125783
  Electrostatic energy:                                         0.01633604553292
  Self-consistent dispersion energy:                            0.00000000000000
  Non-self consistent dispersion energy:                       -0.00271943222004
  Correction for halogen bonding:                               0.00000000000000
  Electronic entropic energy:                                  -0.00000000000000
  Fermi energy:                                                -0.27379021966782

  Total energy:                                               -14.84967716187568
  Total energy (extrapolated to T->0):                        -14.84967716187568

 ENERGY| Total FORCE_EVAL ( QS ) energy [hartree]            -14.849677161875682

 OPT| **************************************************************************
 OPT| Step number                                                              2
 OPT| Optimization method                                                   BFGS
 OPT| Total energy [hartree]                                      -14.8496771619
 OPT| Effective energy change [hartree]                            -0.0003076005
 OPT| Predicted energy change [hartree]                            -0.0003053356
 OPT| Scaling factor                                                0.0000000000
 OPT| Step size                                                     0.0249312594
 OPT| Trust radius                                                  0.4724315332
 OPT| Decrease in energy                                                     YES
 OPT| Used time [s]                                                        0.010
 OPT|
 OPT| Maximum step size                                             0.0249312594
 OPT| Convergence limit for maximum step size                       0.0030000000
 OPT| Maximum step size is converged                                          NO
 OPT|
 OPT| RMS step size                                                 0.0095751605
 OPT| Convergence limit for RMS step size                           0.0015000000
 OPT| RMS step size is converged                                              NO
 OPT|
 OPT| Maximum gradient                                              0.0019376293
 OPT| Convergence limit for maximum gradient                        0.0004500000
 OPT| Maximum gradient is converged                                           NO
 OPT|
 OPT| RMS gradient                                                  0.0006827056
 OPT| Convergence limit for RMS gradient                            0.0003000000
 OPT| RMS gradient is converged                                               NO
 OPT| **************************************************************************
 OPT| Estimated peak process memory after this step [MiB]                    167

 --------------------------
 OPTIMIZATION STEP:      3
 --------------------------

 Extrapolation method: ASPC

 Number of electrons:                                                         26
 Number of occupied orbitals:                                                 13
 Number of molecular orbitals:                                                28

 Number of orbital functions:                                                 28
 Number of independent orbital functions:                                     28


 SCF WAVEFUNCTION OPTIMIZATION

  Step     Update method      Time    Convergence         Total energy    Change
  ------------------------------------------------------------------------------
     1 TBLite/Diag 0.40E+00    0.0     0.00225472       -14.8496850401 -1.48E+01
     2 TBLite/Diag 0.40E+00    0.0     0.00102164       -14.8496857093 -6.69E-07
     3 TBLite/Diag 0.40E+00    0.0     0.00025904       -14.8496857577 -4.84E-08
     4 TBLite/Diag 0.40E+00    0.0     0.00003492       -14.8496857581 -4.15E-10
     5 TBLite/Diag 0.40E+00    0.0     0.00001219       -14.8496857582 -1.33E-10
     6 TBLite/Diag 0.40E+00    0.0     0.00000174       -14.8496857583 -5.92E-12
     7 TBLite/Diag 0.40E+00    0.0     0.00000075       -14.8496857583 -7.35E-13
     8 TBLite/Diag 0.40E+00    0.0     0.00000014       -14.8496857583 -2.66E-14
     9 TBLite/Diag 0.40E+00    0.0     0.00000002       -14.8496857583  5.33E-15
    10 TBLite/Diag 0.40E+00    0.0     8.7212E-10       -14.8496857583 -7.11E-15

  *** SCF run converged in    10 steps ***


  Core Hamiltonian energy:                                    -15.06401176206719
  Repulsive potential energy:                                   0.20073692096057
  Electrostatic energy:                                         0.01630858819865
  Self-consistent dispersion energy:                            0.00000000000000
  Non-self consistent dispersion energy:                       -0.00271950534868
  Correction for halogen bonding:                               0.00000000000000
  Electronic entropic energy:                                  -0.00000000000000
  Fermi energy:                                                -0.27365570789958

  Total energy:                                               -14.84968575825664
  Total energy (extrapolated to T->0):                        -14.84968575825664

 ENERGY| Total FORCE_EVAL ( QS ) energy [hartree]            -14.849685758256641

 OPT| **************************************************************************
 OPT| Step number                                                              3
 OPT| Optimization method                                                   BFGS
 OPT| Total energy [hartree]                                      -14.8496857583
 OPT| Effective energy change [hartree]                            -0.0000085964
 OPT| Predicted energy change [hartree]                            -0.0000076418
 OPT| Scaling factor                                                0.0000000000
 OPT| Step size                                                     0.0041800559
 OPT| Trust radius                                                  0.4724315332
 OPT| Decrease in energy                                                     YES
 OPT| Used time [s]                                                        0.009
 OPT|
 OPT| Maximum step size                                             0.0041800559
 OPT| Convergence limit for maximum step size                       0.0030000000
 OPT| Maximum step size is converged                                          NO
 OPT|
 OPT| RMS step size                                                 0.0015244867
 OPT| Convergence limit for RMS step size                           0.0015000000
 OPT| RMS step size is converged                                              NO
 OPT|
 OPT| Maximum gradient                                              0.0010524564
 OPT| Convergence limit for maximum gradient                        0.0004500000
 OPT| Maximum gradient is converged                                           NO
 OPT|
 OPT| RMS gradient                                                  0.0003109093
 OPT| Convergence limit for RMS gradient                            0.0003000000
 OPT| RMS gradient is converged                                               NO
 OPT| **************************************************************************
 OPT| Estimated peak process memory after this step [MiB]                    167

 --------------------------
 OPTIMIZATION STEP:      4
 --------------------------

 Extrapolation method: ASPC

 Number of electrons:                                                         26
 Number of occupied orbitals:                                                 13
 Number of molecular orbitals:                                                28

 Number of orbital functions:                                                 28
 Number of independent orbital functions:                                     28


 SCF WAVEFUNCTION OPTIMIZATION

  Step     Update method      Time    Convergence         Total energy    Change
  ------------------------------------------------------------------------------
     1 TBLite/Diag 0.40E+00    0.0     0.00137530       -14.8496871439 -1.48E+01
     2 TBLite/Diag 0.40E+00    0.0     0.00066403       -14.8496873964 -2.52E-07
     3 TBLite/Diag 0.40E+00    0.0     0.00013401       -14.8496874107 -1.44E-08
     4 TBLite/Diag 0.40E+00    0.0     0.00002516       -14.8496874110 -2.31E-10
     5 TBLite/Diag 0.40E+00    0.0     0.00000945       -14.8496874110 -7.58E-11
     6 TBLite/Diag 0.40E+00    0.0     0.00000148       -14.8496874110 -2.53E-12
     7 TBLite/Diag 0.40E+00    0.0     0.00000064       -14.8496874110 -3.69E-13
     8 TBLite/Diag 0.40E+00    0.0     0.00000010       -14.8496874110 -1.78E-15
     9 TBLite/Diag 0.40E+00    0.0     6.6292E-09       -14.8496874110  0.00E+00
    10 TBLite/Diag 0.40E+00    0.0     9.8737E-10       -14.8496874110 -3.55E-15

  *** SCF run converged in    10 steps ***


  Core Hamiltonian energy:                                    -15.06383592516810
  Repulsive potential energy:                                   0.20057053082437
  Electrostatic energy:                                         0.01629718355099
  Self-consistent dispersion energy:                            0.00000000000000
  Non-self consistent dispersion energy:                       -0.00271920024078
  Correction for halogen bonding:                               0.00000000000000
  Electronic entropic energy:                                  -0.00000000000000
  Fermi energy:                                                -0.27357584186693

  Total energy:                                               -14.84968741103352
  Total energy (extrapolated to T->0):                        -14.84968741103352

 ENERGY| Total FORCE_EVAL ( QS ) energy [hartree]            -14.849687411033520

 OPT| **************************************************************************
 OPT| Step number                                                              4
 OPT| Optimization method                                                   BFGS
 OPT| Total energy [hartree]                                      -14.8496874110
 OPT| Effective energy change [hartree]                            -0.0000016528
 OPT| Predicted energy change [hartree]                            -0.0000016126
 OPT| Scaling factor                                                0.0000000000
 OPT| Step size                                                     0.0015605364
 OPT| Trust radius                                                  0.4724315332
 OPT| Decrease in energy                                                     YES
 OPT| Used time [s]                                                        0.009
 OPT|
 OPT| Maximum step size                                             0.0015605364
 OPT| Convergence limit for maximum step size                       0.0030000000
 OPT| Maximum step size is converged                                         YES
 OPT|
 OPT| RMS step size                                                 0.0006212676
 OPT| Convergence limit for RMS step size                           0.0015000000
 OPT| RMS step size is converged                                             YES
 OPT|
 OPT| Maximum gradient                                              0.0003001525
 OPT| Convergence limit for maximum gradient                        0.0004500000
 OPT| Maximum gradient is converged                                          YES
 OPT|
 OPT| RMS gradient                                                  0.0001130786
 OPT| Convergence limit for RMS gradient                            0.0003000000
 OPT| RMS gradient is converged                                              YES
 OPT| **************************************************************************
 OPT| Estimated peak process memory after this step [MiB]                    167

 *******************************************************************************
 ***                    GEOMETRY OPTIMIZATION COMPLETED                      ***
 *******************************************************************************

 write_final_structure: Optimization converged, writing XYZ file gladly:
  pyrazole_GFN1_mol_geoopt-FINAL-1_4.xyz

 write_final_structure: Optimization converged, writing CIF file gladly:
  pyrazole_GFN1_mol_geoopt-FINAL-1_4.cif

 write_final_structure: Done!

                    Reevaluating energy at the minimum

 Extrapolation method: ASPC

 Number of electrons:                                                         26
 Number of occupied orbitals:                                                 13
 Number of molecular orbitals:                                                28

 Number of orbital functions:                                                 28
 Number of independent orbital functions:                                     28


 SCF WAVEFUNCTION OPTIMIZATION

  Step     Update method      Time    Convergence         Total energy    Change
  ------------------------------------------------------------------------------
     1 TBLite/Diag 0.40E+00    0.0     6.4857E-11       -14.8496874110 -1.48E+01

  *** SCF run converged in     1 steps ***


  Core Hamiltonian energy:                                    -15.06383592517638
  Repulsive potential energy:                                   0.20057053082437
  Electrostatic energy:                                         0.01629718355927
  Self-consistent dispersion energy:                            0.00000000000000
  Non-self consistent dispersion energy:                       -0.00271920024078
  Correction for halogen bonding:                               0.00000000000000
  Electronic entropic energy:                                  -0.00000000000000
  Fermi energy:                                                -0.27357584186951

  Total energy:                                               -14.84968741103352
  Total energy (extrapolated to T->0):                        -14.84968741103352

 ENERGY| Total FORCE_EVAL ( QS ) energy [hartree]            -14.849687411033520

 -------------------------------------------------------------------------------
 -                                                                             -
 -                                DBCSR STATISTICS                             -
 -                                                                             -
 -------------------------------------------------------------------------------
 COUNTER                                    TOTAL       BLAS       SMM       ACC
 flops     2 x    28 x     2                53760       0.0%    100.0%      0.0%     
 flops     2 x    28 x     4               134400       0.0%    100.0%      0.0%     
 flops     4 x    28 x     2               134400       0.0%    100.0%      0.0%     
 flops     2 x     2 x    28               154560       0.0%    100.0%      0.0%     
 flops     2 x     4 x    28               309120       0.0%    100.0%      0.0%     
 flops     4 x     2 x    28               309120       0.0%    100.0%      0.0%     
 flops     4 x    28 x     4               336000       0.0%    100.0%      0.0%     
 flops     4 x     4 x    28               927360       0.0%    100.0%      0.0%     
 flops inhomo. stacks                           0       0.0%      0.0%      0.0%
 flops total                         2.358720E+06       0.0%    100.0%      0.0%
 flops max/rank                      2.358720E+06       0.0%    100.0%      0.0%
 matmuls inhomo. stacks                         0       0.0%      0.0%      0.0%
 matmuls total                               4320       0.0%    100.0%      0.0%
 number of processed stacks                   336       0.0%    100.0%      0.0%
 average stack size                                     0.0      12.9       0.0
 marketing flops                     2.065056E+06
 -------------------------------------------------------------------------------
 # multiplications                             84
 max memory usage/rank              13.671137E+09
 # max total images/rank                        1
 # max 3D layers                                1
 # MPI messages exchanged                       0
 -------------------------------------------------------------------------------
 -                                                                             -
 -                      DBCSR MESSAGE PASSING PERFORMANCE                      -
 -                                                                             -
 -------------------------------------------------------------------------------
 ROUTINE             CALLS      AVE VOLUME [Bytes]
 MP_Bcast                9                     12.
 MP_Allreduce          425                      9.
 MP_Alltoall          2835                   4231.
 MP_ISend              336                    309.
 MP_IRecv              336                    309.
 -------------------------------------------------------------------------------

 -------------------------------------------------------------------------------
 -                                                                             -
 -                          OFFLOAD MEMPOOL STATISTICS                         -
 -                                                                             -
 -------------------------------------------------------------------------------
 Memory consumption                Number of allocations  Used [MiB]  Size [MiB]
 Device                                                1           0           0
 Host                                                  1           0           0
 -------------------------------------------------------------------------------

 MEMORY| Estimated peak process memory [MiB]                                 167

 -------------------------------------------------------------------------------
 -                                                                             -
 -                         MESSAGE PASSING PERFORMANCE                         -
 -                                                                             -
 -------------------------------------------------------------------------------

 ROUTINE             CALLS      AVE VOLUME [Bytes]
 MP_Group                1
 MP_Bcast              132                    119.
 MP_Allreduce         1010                     67.
 MP_Sync                70
 MP_comm_split          69
 -------------------------------------------------------------------------------


 -------------------------------------------------------------------------------
 -                                                                             -
 -                           R E F E R E N C E S                               -
 -                                                                             -
 -------------------------------------------------------------------------------
 
 CP2K version 2026.1 (Development Version), the CP2K developers group (2026).
 CP2K is freely available from https://www.cp2k.org/ .
 
 M. Iannuzzi, J. Wilhelm, F. Stein, A. Bussy, H. Elgabarty, D. Golze, A. Hehn, 
 M. Graml, S. Marek, B. Sertcan Gökmen, C. Schran, H. Forbert, R. Z. 
 Khaliullin, A. Kozhevnikov, M. Taillefumier, R. Meli, V. V. Rybkin, M. Brehm, 
 R. Schade, O. Schütt, J. V. Pototschnig, H. Mirhosseini, A. Knüpfer, D. Marx, 
 M. Krack, J. Hutter, T. D. Kühne.
 J. Phys. Chem. B 130, 1237-1310 (2026).
 The CP2K Program Package Made Simple.
 https://doi.org/10.1021/acs.jpcb.5c05851

 A. Katbashev, M. Stahn, T. Rose, V. Alizadeh, M. Friede, C. Plett, P. 
 Steinbach, S. Ehlert.
 J. Phys. Chem. A 129, 2667-2682 (2025).
 Overview on Building Blocks and Applications of Efficient and Robust Extended 
 Tight Binding.
 https://doi.org/10.1021/acs.jpca.4c08263

 T. D. Kühne, M. Iannuzzi, M. Del Ben, V. V. Rybkin, P. Seewald, F. Stein, T. 
 Laino, R. Z. Khaliullin, O. Schütt, F. Schiffmann, D. Golze, J. Wilhelm, S. 
 Chulkov, M. H. Bani-Hashemian, V. Weber, U. Borstnik, M. Taillefumier, A. S. 
 Jakobovits, A. Lazzaro, H. Pabst, T. Müller, R. Schade, M. Guidon, S. 
 Andermatt, N. Holmberg, G. K. Schenter, A. Hehn, A. Bussy, F. Belleflamme, G. 
 Tabacchi, A. Glöß, M. Lass, I. Bethune, C. J. Mundy, C. Plessl, M. Watkins, 
 J. VandeVondele, M. Krack, J. Hutter.
 J. Chem. Phys. 152, 194103 (2020).
 CP2K: An electronic structure and molecular dynamics software package - 
 Quickstep: Efficient and accurate electronic structure calculations.
 https://doi.org/10.1063/5.0007045

 P. Pracht, E. Caldeweyher, S. Ehlert, S. Grimme.
 ChemRxiv, (2019).
 A Robust Non-Self-Consistent Tight-Binding Quantum Chemistry Method for large 
 Molecules.
 https://doi.org/10.26434/chemrxiv.8326202.v1

 S. Grimme, C. Bannwarth, P. Shushkov.
 J. Chem. Theory Comput. 13, 1989 (2017).
 A Robust and Accurate Tight-Binding Quantum Chemical Method for Structures, 
 Vibrational Frequencies, and Noncovalent Interactions of Large Molecular 
 Systems Parametrized for All spd-Block Elements (Z = 1-86).
 https://doi.org/10.1021/acs.jctc.7b00118

 O. Schuett, P. Messmer, J. Hutter, J. VandeVondele.
 Electronic Structure Calculations on Graphics Processing Units, 173-190 (2016).
 GPU-Accelerated Sparse Matrix-Matrix Multiplication for Linear Scaling Density 
 Functional Theory.
 https://doi.org/10.1002/9781118670712.ch8

 A. Heinecke, G. Henry, M. Hutchinson, H. Pabst.
 Proceedings of Intl. Supercomputing Conference, 981-991 (2016).
 LIBXSMM: Accelerating Small Matrix Multiplications by Runtime Code Generation.
 https://doi.org/10.1109/SC.2016.83

 U. Borstnik, J. VandeVondele, V. Weber, J. Hutter.
 Parallel Comput. 40, 47-58 (2014).
 Sparse matrix multiplication: The distributed block-compressed sparse row 
 library.
 https://doi.org/10.1016/j.parco.2014.03.012

 T. D. Kühne, M. Krack, F. R. Mohamed, M. Parrinello.
 Phys. Rev. Lett. 98, 066401 (2007).
 Efficient and accurate Car-Parrinello-like approach to Born-Oppenheimer 
 molecular dynamics.
 https://doi.org/10.1103/PhysRevLett.98.066401

 M. Frigo, S. G. Johnson.
 Proc. IEEE 93, 216-231 (2005).
 The design and implementation of FFTW3.
 https://doi.org/10.1109/JPROC.2004.840301

 J. Kolafa.
 J. Comput. Chem. 25, 335-342 (2004).
 Time-reversible always stable predictor-corrector method for molecular dynamics 
 of polarizable molecules.
 https://doi.org/10.1002/jcc.10385

 N. D. Mermin.
 Phys. Rev. 137, A1441-A1443 (1965).
 Thermal Properties of the Inhomogeneous Electron Gas.
 https://doi.org/10.1103/PhysRev.137.A1441


 -------------------------------------------------------------------------------
 -                                                                             -
 -                                T I M I N G                                  -
 -                                                                             -
 -------------------------------------------------------------------------------
 SUBROUTINE                       CALLS  ASD         SELF TIME        TOTAL TIME
                                MAXIMUM       AVERAGE  MAXIMUM  AVERAGE  MAXIMUM
 CP2K                                 1  1.0    0.001    0.001    0.060    0.060
 cp_geo_opt                           1  2.0    0.000    0.000    0.054    0.054
 geoopt_bfgs                          1  3.0    0.000    0.000    0.054    0.054
 cp_eval_at                           6  4.0    0.000    0.000    0.051    0.051
 qs_forces                            5  5.0    0.000    0.000    0.048    0.048
 qs_energies                          6  5.8    0.000    0.000    0.044    0.044
 scf_env_do_scf                       6  6.8    0.000    0.000    0.034    0.034
 scf_env_do_scf_inner_loop           59  8.0    0.001    0.001    0.034    0.034
 qs_scf_new_mos                      59  9.0    0.000    0.000    0.030    0.030
 cp_dbcsr_plus_fm_fm_t               69 10.8    0.000    0.000    0.016    0.016
 calculate_dm_sparse                 64 10.0    0.000    0.000    0.015    0.015
 dbcsr_multiply_generic              84 11.9    0.001    0.001    0.014    0.014
 copy_dbcsr_to_fm                   133 10.4    0.000    0.000    0.008    0.008
 make_m2s                           168 12.9    0.000    0.000    0.008    0.008
 dbcsr_complete_redistribute        286 12.2    0.004    0.004    0.007    0.007
 init_scf_run                         6  6.8    0.000    0.000    0.006    0.006
 eigensolver                         59 10.0    0.000    0.000    0.006    0.006
 cp_fm_syevd                         69 10.6    0.000    0.000    0.006    0.006
 scf_env_initial_rho_setup            6  7.8    0.000    0.000    0.005    0.005
 wfi_extrapolate                      6  8.8    0.000    0.000    0.005    0.005
 rebuild_ks_matrix                   64  9.8    0.000    0.000    0.005    0.005
 build_tblite_ks_matrix              64 10.8    0.005    0.005    0.005    0.005
 qs_diis_b_step                      53 10.0    0.000    0.000    0.005    0.005
 build_tblite_matrices               11  7.0    0.004    0.004    0.004    0.004
 copy_fm_to_dbcsr                   153 11.8    0.000    0.000    0.004    0.004
 qs_ks_update_qs_env_forces           5  6.0    0.000    0.000    0.004    0.004
 cp_fm_syevd_base                    69 11.6    0.004    0.004    0.004    0.004
 qs_init_subsys                       1  2.0    0.001    0.001    0.003    0.003
 make_images                        168 13.9    0.001    0.001    0.003    0.003
 cp_dbcsr_sm_fm_multiply             15 10.3    0.000    0.000    0.003    0.003
 dbcsr_finalize                    1064 13.3    0.001    0.001    0.003    0.003
 multiply_cannon                     84 12.9    0.001    0.001    0.003    0.003
 qs_energies_init_hamiltonians        6  6.8    0.000    0.000    0.003    0.003
 dbcsr_create_new                  2035 13.4    0.002    0.002    0.002    0.002
 dbcsr_crop_matrix                  138 13.8    0.000    0.000    0.002    0.002
 dbcsr_desymmetrize_deep            133 11.4    0.001    0.001    0.002    0.002
 cp_dbcsr_sm_fm_multiply_core        15 11.3    0.000    0.000    0.002    0.002
 reorthogonalize_vectors              5  9.8    0.000    0.000    0.002    0.002
 make_basis_lowdin                    5 10.8    0.000    0.000    0.002    0.002
 dbcsr_copy_submatrix               138 14.8    0.000    0.000    0.002    0.002
 qs_ks_update_qs_env                 59  9.0    0.000    0.000    0.002    0.002
 qs_env_setup                         1  3.0    0.000    0.000    0.002    0.002
 qs_env_rebuild_pw_env               12  6.2    0.000    0.000    0.002    0.002
 pw_env_rebuild                       1  5.0    0.000    0.000    0.002    0.002
 dbcsr_merge_all                    493 14.9    0.001    0.001    0.001    0.001
 cp_fm_redistribute_start            69 11.6    0.001    0.001    0.001    0.001
 parallel_gemm_fm_gemm              141 10.6    0.000    0.000    0.001    0.001
 cp_fm_gemm                         141 11.6    0.001    0.001    0.001    0.001
 make_images_data                   168 14.9    0.000    0.000    0.001    0.001
 compute_matrix_w                     6  6.8    0.000    0.000    0.001    0.001
 dbcsr_make_images_dense            138 13.8    0.000    0.000    0.001    0.001
 calculate_w_matrix_1                 5  8.0    0.000    0.000    0.001    0.001
 dbcsr_destroy                     1912 12.8    0.001    0.001    0.001    0.001
 -------------------------------------------------------------------------------

 The number of warnings for this run is : 0
 
 -------------------------------------------------------------------------------
  **** **** ******  **  PROGRAM ENDED AT                 2026-05-23 22:46:19.650
 ***** ** ***  *** **   PROGRAM RAN ON                                spark-c86c
 **    ****   ******    PROGRAM RAN BY                                  kuehne88
 ***** **    ** ** **   PROGRAM PROCESS ID                               2222441
  **** **  *******  **  PROGRAM STOPPED IN /home/kuehne88/periodic-gfn2-benchmar
                                           ks/X23b/runs/molecule_geoopt/GFN1/pyr
                                           azole_GFN1_mol_geoopt
