 DBCSR| CPU Multiplication driver                                           XSMM (U)
 DBCSR| Multrec recursion limit                                              512 (U)
 DBCSR| Multiplication stack size                                           1000 (D)
 DBCSR| Maximum elements for images                                    UNLIMITED (U)
 DBCSR| Multiplicative factor virtual images                                   1 (U)
 DBCSR| Use multiplication densification                                       T (D)
 DBCSR| Multiplication size stacks                                             3 (U)
 DBCSR| Use memory pool for CPU allocation                                     F (U)
 DBCSR| Number of 3D layers                                               SINGLE (U)
 DBCSR| Use MPI memory allocation                                              F (U)
 DBCSR| Use RMA algorithm                                                      F (U)
 DBCSR| Use Communication thread                                               T (U)
 DBCSR| Communication thread load                                             87 (D)
 DBCSR| MPI: My process id                                                     0
 DBCSR| MPI: Number of processes                                               1
 DBCSR| OMP: Current number of threads                                         1
 DBCSR| OMP: Max number of threads                                             1
 DBCSR| Split modifier for TAS multiplication algorithm                  1.0E+00 (U)


  **** **** ******  **  PROGRAM STARTED AT               2026-05-23 22:46:21.899
 ***** ** ***  *** **   PROGRAM STARTED ON                            spark-c86c
 **    ****   ******    PROGRAM STARTED BY                              kuehne88
 ***** **    ** ** **   PROGRAM PROCESS ID                               2233752
  **** **  *******  **  PROGRAM STARTED IN /home/kuehne88/periodic-gfn2-benchmar
                                           ks/X23b/runs/crystal_sp/gamma/GFN1/ur
                                           acil_GFN1_gamma_sp

 CP2K| version string:                 CP2K version 2026.1 (Development Version)
 CP2K| source code revision number:                                   0622d442e4
 CP2K| cp2kflags: omp fftw3 libxc parallel scalapack mpi_f08 xsmm spglib libdftd
 CP2K|            4 dftd4_v3 mctc-lib tblite
 CP2K| is freely available from                            https://www.cp2k.org/
 CP2K| Program compiled at                                   2026-05-23 22:05:08
 CP2K| Program compiled on                                            spark-c86c
 CP2K| Program compiled for                                              aarch64
 CP2K| Data directory path    /home/kuehne88/cp2k-master-tblite-20260523/install
 CP2K| Input file name                                  uracil_GFN1_gamma_sp.inp

 GLOBAL| Force Environment number                                              1
 GLOBAL| Basis set file name                                           BASIS_SET
 GLOBAL| Potential file name                                           POTENTIAL
 GLOBAL| MM Potential file name                                     MM_POTENTIAL
 GLOBAL| Coordinate file name                                      __STD_INPUT__
 GLOBAL| Method name                                                        CP2K
 GLOBAL| Project name                                   uracil_GFN1_gamma_energy
 GLOBAL| Run type                                                         ENERGY
 GLOBAL| FFT library                                                       FFTW3
 GLOBAL| Diagonalization library                                       ScaLAPACK
 GLOBAL| Cholesky decomposition library                                ScaLAPACK
 GLOBAL| DGEMM library                                                      BLAS
 GLOBAL| Direct generalized diagonalization requested                          F
 GLOBAL| Orthonormality check for eigenvectors                          DISABLED
 GLOBAL| Matrix multiplication library                                 ScaLAPACK
 GLOBAL| All-to-all communication in single precision                          F
 GLOBAL| FFTs using library dependent lengths                                  F
 GLOBAL| Grid backend                                                       AUTO
 GLOBAL| Global print level                                                  LOW
 GLOBAL| MPI I/O enabled                                                       T
 GLOBAL| Total number of message passing processes                             1
 GLOBAL| Number of distributed systems (nodes)                                 1
 GLOBAL| Number of threads for this process                                    1
 GLOBAL| This output is from process                                           0
 GLOBAL| OpenMP stack size per thread (OMP_STACKSIZE)                    default
 GLOBAL| CPU model name                                                  UNKNOWN
 GLOBAL| CPUID                                                              2200
 GLOBAL| Compiled for CPUID                                                 2000

 *** HINT in environment.F:970 :: The compiler target flags (arm_arch64)   ***
 *** used to build this binary cannot exploit all extensions of this CPU   ***
 *** model (arm_sve256). Consider compiler target flags as part of FCFLAGS ***
 *** and CFLAGS (ARCH file).                                               ***


 MEMORY| system memory details [Kb]
 MEMORY|                        rank 0           min           max       average
 MEMORY| MemTotal            125508532     125508532     125508532     125508532
 MEMORY| MemFree             105722844     105722844     105722844     105722844
 MEMORY| Buffers                866548        866548        866548        866548
 MEMORY| Cached               13222096      13222096      13222096      13222096
 MEMORY| Slab                  1565224       1565224       1565224       1565224
 MEMORY| SReclaimable           889376        889376        889376        889376
 MEMORY| MemLikelyFree       120700864     120700864     120700864     120700864


 GENERATE|  Preliminary Number of Bonds generated:                             0
 GENERATE|  Achieved consistency in connectivity generation.


                  #####   #####        #     #   #     #       #          
                 #     # #     #      #    ##### #     #   # #####  ####  
                 #     # #           #       #   ###   #       #   #    # 
                 #     #  #####     #        #   #  #  #   #   #   ###### 
                 #   # #       #   #         #   #   # #   #   #   #      
                 #    #  #     #  #          #   #  #  # # #   #    #   # 
                  #### #  #####  #           #   ###   ##  #   #     ###  

                                   GFN1-xTB  
                                 Version 0.0                       
                            Johann V. Pototschnig                  



 TOTAL NUMBERS AND MAXIMUM NUMBERS

  Total number of            - Atomic kinds:                                   4
                             - Atoms:                                         48
                             - Shell sets:                                    96
                             - Shells:                                        96
                             - Primitive Cartesian functions:                560
                             - Cartesian basis functions:                    160
                             - Spherical basis functions:                    160

  Maximum angular momentum of the orbital basis functions:                     1


 SCF PARAMETERS         Density guess:                                     MOPAC
                        --------------------------------------------------------
                        max_scf:                                             300
                        max_scf_history:                                       0
                        max_diis:                                              4
                        --------------------------------------------------------
                        eps_scf:                                        1.00E-09
                        eps_scf_history:                                0.00E+00
                        eps_diis:                                       1.00E-01
                        eps_eigval:                                     1.00E-05
                        --------------------------------------------------------
                        level_shift [a.u.]:                             0.000000
                        added MOs                                        76    0
                        --------------------------------------------------------
                        Mixing method:                           DIRECT_P_MIXING
                        --------------------------------------------------------
                        Smear method:                                FERMI_DIRAC
                        Electronic temperature [K]:                        300.0
                        Electronic temperature [a.u.]:                  9.50E-04
                        Accuracy threshold:                             1.00E-06
                        --------------------------------------------------------
                        No outer SCF

 Extrapolation method: initial_guess

 Number of electrons:                                                        168
 Number of occupied orbitals:                                                 84
 Number of molecular orbitals:                                               160

 Number of orbital functions:                                                160
 Number of independent orbital functions:                                    160


 SCF WAVEFUNCTION OPTIMIZATION

  Step     Update method      Time    Convergence         Total energy    Change
  ------------------------------------------------------------------------------
     1 TBLite/Diag 0.40E+00    0.0     1.60528358      -103.5298760787 -1.04E+02
     2 TBLite/Diag 0.40E+00    0.0     0.31150912      -105.4233773028 -1.89E+00
     3 TBLite/Diag 0.40E+00    0.0     0.05498608      -105.4395854167 -1.62E-02
     4 TBLite/Diag 0.40E+00    0.0     0.02681936      -105.4419771187 -2.39E-03
     5 TBLite/Diag 0.40E+00    0.0     0.01456693      -105.4437227815 -1.75E-03
     6 TBLite/Diag 0.40E+00    0.0     0.00240507      -105.4438006112 -7.78E-05
     7 TBLite/Diag 0.40E+00    0.0     0.00127750      -105.4438080663 -7.46E-06
     8 TBLite/Diag 0.40E+00    0.0     0.00043797      -105.4438088666 -8.00E-07
     9 TBLite/Diag 0.40E+00    0.0     0.00010033      -105.4438089094 -4.28E-08
    10 TBLite/Diag 0.40E+00    0.0     0.00003411      -105.4438089196 -1.03E-08
    11 TBLite/Diag 0.40E+00    0.0     0.00000199      -105.4438089196  1.28E-12
    12 TBLite/Diag 0.40E+00    0.0     0.00000204      -105.4438089196 -7.49E-12
    13 TBLite/Diag 0.40E+00    0.0     0.00000100      -105.4438089196 -5.87E-12
    14 TBLite/Diag 0.40E+00    0.0     0.00000031      -105.4438089196 -2.56E-13
    15 TBLite/Diag 0.40E+00    0.0     0.00000013      -105.4438089196 -2.70E-13
    16 TBLite/Diag 0.40E+00    0.0     1.0553E-09      -105.4438089196  2.13E-13
    17 TBLite/Diag 0.40E+00    0.0     6.8279E-10      -105.4438089196 -1.14E-13

  *** SCF run converged in    17 steps ***


  Core Hamiltonian energy:                                   -107.68474786232682
  Repulsive potential energy:                                   1.80516584168275
  Electrostatic energy:                                         0.53160224999784
  Self-consistent dispersion energy:                            0.00000000000000
  Non-self consistent dispersion energy:                       -0.09582914899992
  Correction for halogen bonding:                               0.00000000000000
  Electronic entropic energy:                                  -0.00000000000000
  Fermi energy:                                                -0.33078055468914

  Total energy:                                              -105.44380891964614
  Total energy (extrapolated to T->0):                       -105.44380891964614

 ENERGY| Total FORCE_EVAL ( QS ) energy [hartree]           -105.443808919646145

 -------------------------------------------------------------------------------
 -                                                                             -
 -                                DBCSR STATISTICS                             -
 -                                                                             -
 -------------------------------------------------------------------------------
 COUNTER                                    TOTAL       BLAS       SMM       ACC
 flops     2 x     2 x   160              2959360       0.0%    100.0%      0.0%     
 flops     2 x     4 x   160             11141120       0.0%    100.0%      0.0%     
 flops     4 x     2 x   160             11141120       0.0%    100.0%      0.0%     
 flops     4 x     4 x   160             45957120       0.0%    100.0%      0.0%     
 flops inhomo. stacks                           0       0.0%      0.0%      0.0%
 flops total                        71.198720E+06       0.0%    100.0%      0.0%
 flops max/rank                     71.198720E+06       0.0%    100.0%      0.0%
 matmuls inhomo. stacks                         0       0.0%      0.0%      0.0%
 matmuls total                              19992       0.0%    100.0%      0.0%
 number of processed stacks                    68       0.0%    100.0%      0.0%
 average stack size                                     0.0     294.0       0.0
 marketing flops                    73.113600E+06
 -------------------------------------------------------------------------------
 # multiplications                             17
 max memory usage/rank              13.676610E+09
 # max total images/rank                        1
 # max 3D layers                                1
 # MPI messages exchanged                       0
 -------------------------------------------------------------------------------
 -                                                                             -
 -                      DBCSR MESSAGE PASSING PERFORMANCE                      -
 -                                                                             -
 -------------------------------------------------------------------------------
 ROUTINE             CALLS      AVE VOLUME [Bytes]
 MP_Bcast                5                     12.
 MP_Allreduce          112                     12.
 MP_Alltoall           680                 139894.
 MP_ISend               68                   4800.
 MP_IRecv               68                   4800.
 -------------------------------------------------------------------------------

 -------------------------------------------------------------------------------
 -                                                                             -
 -                          OFFLOAD MEMPOOL STATISTICS                         -
 -                                                                             -
 -------------------------------------------------------------------------------
 Memory consumption                Number of allocations  Used [MiB]  Size [MiB]
 Device                                                1           0           0
 Host                                                  1           0           0
 -------------------------------------------------------------------------------

 MEMORY| Estimated peak process memory [MiB]                                 171

 -------------------------------------------------------------------------------
 -                                                                             -
 -                         MESSAGE PASSING PERFORMANCE                         -
 -                                                                             -
 -------------------------------------------------------------------------------

 ROUTINE             CALLS      AVE VOLUME [Bytes]
 MP_Group                1
 MP_Bcast               34                    642.
 MP_Allreduce          190                    289.
 MP_Sync                18
 MP_comm_split          17
 -------------------------------------------------------------------------------


 -------------------------------------------------------------------------------
 -                                                                             -
 -                           R E F E R E N C E S                               -
 -                                                                             -
 -------------------------------------------------------------------------------
 
 CP2K version 2026.1 (Development Version), the CP2K developers group (2026).
 CP2K is freely available from https://www.cp2k.org/ .
 
 M. Iannuzzi, J. Wilhelm, F. Stein, A. Bussy, H. Elgabarty, D. Golze, A. Hehn, 
 M. Graml, S. Marek, B. Sertcan Gökmen, C. Schran, H. Forbert, R. Z. 
 Khaliullin, A. Kozhevnikov, M. Taillefumier, R. Meli, V. V. Rybkin, M. Brehm, 
 R. Schade, O. Schütt, J. V. Pototschnig, H. Mirhosseini, A. Knüpfer, D. Marx, 
 M. Krack, J. Hutter, T. D. Kühne.
 J. Phys. Chem. B 130, 1237-1310 (2026).
 The CP2K Program Package Made Simple.
 https://doi.org/10.1021/acs.jpcb.5c05851

 A. Katbashev, M. Stahn, T. Rose, V. Alizadeh, M. Friede, C. Plett, P. 
 Steinbach, S. Ehlert.
 J. Phys. Chem. A 129, 2667-2682 (2025).
 Overview on Building Blocks and Applications of Efficient and Robust Extended 
 Tight Binding.
 https://doi.org/10.1021/acs.jpca.4c08263

 T. D. Kühne, M. Iannuzzi, M. Del Ben, V. V. Rybkin, P. Seewald, F. Stein, T. 
 Laino, R. Z. Khaliullin, O. Schütt, F. Schiffmann, D. Golze, J. Wilhelm, S. 
 Chulkov, M. H. Bani-Hashemian, V. Weber, U. Borstnik, M. Taillefumier, A. S. 
 Jakobovits, A. Lazzaro, H. Pabst, T. Müller, R. Schade, M. Guidon, S. 
 Andermatt, N. Holmberg, G. K. Schenter, A. Hehn, A. Bussy, F. Belleflamme, G. 
 Tabacchi, A. Glöß, M. Lass, I. Bethune, C. J. Mundy, C. Plessl, M. Watkins, 
 J. VandeVondele, M. Krack, J. Hutter.
 J. Chem. Phys. 152, 194103 (2020).
 CP2K: An electronic structure and molecular dynamics software package - 
 Quickstep: Efficient and accurate electronic structure calculations.
 https://doi.org/10.1063/5.0007045

 P. Pracht, E. Caldeweyher, S. Ehlert, S. Grimme.
 ChemRxiv, (2019).
 A Robust Non-Self-Consistent Tight-Binding Quantum Chemistry Method for large 
 Molecules.
 https://doi.org/10.26434/chemrxiv.8326202.v1

 S. Grimme, C. Bannwarth, P. Shushkov.
 J. Chem. Theory Comput. 13, 1989 (2017).
 A Robust and Accurate Tight-Binding Quantum Chemical Method for Structures, 
 Vibrational Frequencies, and Noncovalent Interactions of Large Molecular 
 Systems Parametrized for All spd-Block Elements (Z = 1-86).
 https://doi.org/10.1021/acs.jctc.7b00118

 O. Schuett, P. Messmer, J. Hutter, J. VandeVondele.
 Electronic Structure Calculations on Graphics Processing Units, 173-190 (2016).
 GPU-Accelerated Sparse Matrix-Matrix Multiplication for Linear Scaling Density 
 Functional Theory.
 https://doi.org/10.1002/9781118670712.ch8

 A. Heinecke, G. Henry, M. Hutchinson, H. Pabst.
 Proceedings of Intl. Supercomputing Conference, 981-991 (2016).
 LIBXSMM: Accelerating Small Matrix Multiplications by Runtime Code Generation.
 https://doi.org/10.1109/SC.2016.83

 U. Borstnik, J. VandeVondele, V. Weber, J. Hutter.
 Parallel Comput. 40, 47-58 (2014).
 Sparse matrix multiplication: The distributed block-compressed sparse row 
 library.
 https://doi.org/10.1016/j.parco.2014.03.012

 M. Frigo, S. G. Johnson.
 Proc. IEEE 93, 216-231 (2005).
 The design and implementation of FFTW3.
 https://doi.org/10.1109/JPROC.2004.840301

 N. D. Mermin.
 Phys. Rev. 137, A1441-A1443 (1965).
 Thermal Properties of the Inhomogeneous Electron Gas.
 https://doi.org/10.1103/PhysRev.137.A1441


 -------------------------------------------------------------------------------
 -                                                                             -
 -                                T I M I N G                                  -
 -                                                                             -
 -------------------------------------------------------------------------------
 SUBROUTINE                       CALLS  ASD         SELF TIME        TOTAL TIME
                                MAXIMUM       AVERAGE  MAXIMUM  AVERAGE  MAXIMUM
 CP2K                                 1  1.0    0.002    0.002    0.156    0.156
 qs_energies                          1  2.0    0.000    0.000    0.150    0.150
 scf_env_do_scf                       1  3.0    0.000    0.000    0.090    0.090
 scf_env_do_scf_inner_loop           17  4.0    0.002    0.002    0.089    0.089
 qs_scf_new_mos                      17  5.0    0.000    0.000    0.078    0.078
 qs_energies_init_hamiltonians        1  3.0    0.000    0.000    0.059    0.059
 build_tblite_matrices                1  4.0    0.057    0.057    0.057    0.057
 eigensolver                         17  6.0    0.000    0.000    0.034    0.034
 cp_fm_syevd                         17  7.0    0.000    0.000    0.027    0.027
 cp_fm_syevd_base                    17  8.0    0.026    0.026    0.026    0.026
 calculate_dm_sparse                 17  6.0    0.000    0.000    0.020    0.020
 cp_dbcsr_plus_fm_fm_t               17  7.0    0.000    0.000    0.019    0.019
 copy_dbcsr_to_fm                    34  6.4    0.000    0.000    0.017    0.017
 dbcsr_complete_redistribute         68  8.2    0.013    0.013    0.016    0.016
 qs_diis_b_step                      16  6.0    0.000    0.000    0.015    0.015
 dbcsr_multiply_generic              17  8.0    0.000    0.000    0.013    0.013
 qs_ks_update_qs_env                 17  5.0    0.000    0.000    0.007    0.007
 copy_fm_to_dbcsr                    34  8.0    0.000    0.000    0.006    0.006
 cp_fm_cholesky_restore              51  7.0    0.006    0.006    0.006    0.006
 rebuild_ks_matrix                   17  6.0    0.000    0.000    0.006    0.006
 build_tblite_ks_matrix              17  7.0    0.006    0.006    0.006    0.006
 make_m2s                            34  9.0    0.000    0.000    0.005    0.005
 dbcsr_desymmetrize_deep             34  7.4    0.003    0.003    0.005    0.005
 multiply_cannon                     17  9.0    0.000    0.000    0.004    0.004
 cp_fm_symm                          32  7.0    0.003    0.003    0.003    0.003
 multiply_cannon_loop                17 10.0    0.000    0.000    0.003    0.003
 multiply_cannon_multrec             17 11.0    0.003    0.003    0.003    0.003
 parallel_gemm_fm_gemm               32  7.0    0.000    0.000    0.003    0.003
 cp_fm_gemm                          32  8.0    0.003    0.003    0.003    0.003
 dbcsr_finalize                     233 10.0    0.000    0.000    0.003    0.003
 -------------------------------------------------------------------------------

 The number of warnings for this run is : 0
 
 -------------------------------------------------------------------------------
  **** **** ******  **  PROGRAM ENDED AT                 2026-05-23 22:46:22.639
 ***** ** ***  *** **   PROGRAM RAN ON                                spark-c86c
 **    ****   ******    PROGRAM RAN BY                                  kuehne88
 ***** **    ** ** **   PROGRAM PROCESS ID                               2233752
  **** **  *******  **  PROGRAM STOPPED IN /home/kuehne88/periodic-gfn2-benchmar
                                           ks/X23b/runs/crystal_sp/gamma/GFN1/ur
                                           acil_GFN1_gamma_sp
