 DBCSR| CPU Multiplication driver                                           XSMM (U)
 DBCSR| Multrec recursion limit                                              512 (U)
 DBCSR| Multiplication stack size                                           1000 (D)
 DBCSR| Maximum elements for images                                    UNLIMITED (U)
 DBCSR| Multiplicative factor virtual images                                   1 (U)
 DBCSR| Use multiplication densification                                       T (D)
 DBCSR| Multiplication size stacks                                             3 (U)
 DBCSR| Use memory pool for CPU allocation                                     F (U)
 DBCSR| Number of 3D layers                                               SINGLE (U)
 DBCSR| Use MPI memory allocation                                              F (U)
 DBCSR| Use RMA algorithm                                                      F (U)
 DBCSR| Use Communication thread                                               T (U)
 DBCSR| Communication thread load                                             87 (D)
 DBCSR| MPI: My process id                                                     0
 DBCSR| MPI: Number of processes                                               1
 DBCSR| OMP: Current number of threads                                         1
 DBCSR| OMP: Max number of threads                                             1
 DBCSR| Split modifier for TAS multiplication algorithm                  1.0E+00 (U)


  **** **** ******  **  PROGRAM STARTED AT               2026-05-23 22:46:20.001
 ***** ** ***  *** **   PROGRAM STARTED ON                            spark-c86c
 **    ****   ******    PROGRAM STARTED BY                              kuehne88
 ***** **    ** ** **   PROGRAM PROCESS ID                               2227914
  **** **  *******  **  PROGRAM STARTED IN /home/kuehne88/periodic-gfn2-benchmar
                                           ks/X23b/runs/molecule_geoopt/GFN2/oxa
                                           lic_acid_alpha_GFN2_mol_geoopt

 CP2K| version string:                 CP2K version 2026.1 (Development Version)
 CP2K| source code revision number:                                   0622d442e4
 CP2K| cp2kflags: omp fftw3 libxc parallel scalapack mpi_f08 xsmm spglib libdftd
 CP2K|            4 dftd4_v3 mctc-lib tblite
 CP2K| is freely available from                            https://www.cp2k.org/
 CP2K| Program compiled at                                   2026-05-23 22:05:08
 CP2K| Program compiled on                                            spark-c86c
 CP2K| Program compiled for                                              aarch64
 CP2K| Data directory path    /home/kuehne88/cp2k-master-tblite-20260523/install
 CP2K| Input file name                     oxalic_acid_alpha_GFN2_mol_geoopt.inp

 GLOBAL| Force Environment number                                              1
 GLOBAL| Basis set file name                                           BASIS_SET
 GLOBAL| Potential file name                                           POTENTIAL
 GLOBAL| MM Potential file name                                     MM_POTENTIAL
 GLOBAL| Coordinate file name                                      __STD_INPUT__
 GLOBAL| Method name                                                        CP2K
 GLOBAL| Project name                          oxalic_acid_alpha_GFN2_mol_geoopt
 GLOBAL| Run type                                                        GEO_OPT
 GLOBAL| FFT library                                                       FFTW3
 GLOBAL| Diagonalization library                                       ScaLAPACK
 GLOBAL| Cholesky decomposition library                                ScaLAPACK
 GLOBAL| DGEMM library                                                      BLAS
 GLOBAL| Direct generalized diagonalization requested                          F
 GLOBAL| Orthonormality check for eigenvectors                          DISABLED
 GLOBAL| Matrix multiplication library                                 ScaLAPACK
 GLOBAL| All-to-all communication in single precision                          F
 GLOBAL| FFTs using library dependent lengths                                  F
 GLOBAL| Grid backend                                                       AUTO
 GLOBAL| Global print level                                                  LOW
 GLOBAL| MPI I/O enabled                                                       T
 GLOBAL| Total number of message passing processes                             1
 GLOBAL| Number of distributed systems (nodes)                                 1
 GLOBAL| Number of threads for this process                                    1
 GLOBAL| This output is from process                                           0
 GLOBAL| OpenMP stack size per thread (OMP_STACKSIZE)                    default
 GLOBAL| CPU model name                                                  UNKNOWN
 GLOBAL| CPUID                                                              2200
 GLOBAL| Compiled for CPUID                                                 2000

 *** HINT in environment.F:970 :: The compiler target flags (arm_arch64)   ***
 *** used to build this binary cannot exploit all extensions of this CPU   ***
 *** model (arm_sve256). Consider compiler target flags as part of FCFLAGS ***
 *** and CFLAGS (ARCH file).                                               ***


 MEMORY| system memory details [Kb]
 MEMORY|                        rank 0           min           max       average
 MEMORY| MemTotal            125508532     125508532     125508532     125508532
 MEMORY| MemFree             105846536     105846536     105846536     105846536
 MEMORY| Buffers                866144        866144        866144        866144
 MEMORY| Cached               13217052      13217052      13217052      13217052
 MEMORY| Slab                  1564704       1564704       1564704       1564704
 MEMORY| SReclaimable           888664        888664        888664        888664
 MEMORY| MemLikelyFree       120818396     120818396     120818396     120818396


 GENERATE|  Preliminary Number of Bonds generated:                             0
 GENERATE|  Achieved consistency in connectivity generation.


                  #####   #####        #     #   #     #       #          
                 #     # #     #      #    ##### #     #   # #####  ####  
                 #     # #           #       #   ###   #       #   #    # 
                 #     #  #####     #        #   #  #  #   #   #   ###### 
                 #   # #       #   #         #   #   # #   #   #   #      
                 #    #  #     #  #          #   #  #  # # #   #    #   # 
                  #### #  #####  #           #   ###   ##  #   #     ###  

                                   GFN2-xTB  
                                 Version 0.0                       
                            Johann V. Pototschnig                  



 TOTAL NUMBERS AND MAXIMUM NUMBERS

  Total number of            - Atomic kinds:                                   3
                             - Atoms:                                          8
                             - Shell sets:                                    14
                             - Shells:                                        14
                             - Primitive Cartesian functions:                 54
                             - Cartesian basis functions:                     26
                             - Spherical basis functions:                     26

  Maximum angular momentum of the orbital basis functions:                     1


 SCF PARAMETERS         Density guess:                                     MOPAC
                        --------------------------------------------------------
                        max_scf:                                             300
                        max_scf_history:                                       0
                        max_diis:                                              4
                        --------------------------------------------------------
                        eps_scf:                                        1.00E-09
                        eps_scf_history:                                0.00E+00
                        eps_diis:                                       1.00E-01
                        eps_eigval:                                     1.00E-05
                        --------------------------------------------------------
                        level_shift [a.u.]:                             0.000000
                        added MOs                                         9    0
                        --------------------------------------------------------
                        Mixing method:                           DIRECT_P_MIXING
                        --------------------------------------------------------
                        Smear method:                                FERMI_DIRAC
                        Electronic temperature [K]:                        300.0
                        Electronic temperature [a.u.]:                  9.50E-04
                        Accuracy threshold:                             1.00E-06
                        --------------------------------------------------------
                        No outer SCF

 BFGS| Use rational function optimization for step estimation:                NO
 BFGS| Use model Hessian for initial guess:                                  YES
 BFGS| Restart Hessian:                                                       NO
 BFGS| Trust radius:                                                       0.472

 *******************************************************************************
 ***                     STARTING GEOMETRY OPTIMIZATION                      ***
 ***                                   BFGS                                  ***
 *******************************************************************************

 Extrapolation method: initial_guess

 Number of electrons:                                                         34
 Number of occupied orbitals:                                                 17
 Number of molecular orbitals:                                                26

 Number of orbital functions:                                                 26
 Number of independent orbital functions:                                     26


 SCF WAVEFUNCTION OPTIMIZATION

  Step     Update method      Time    Convergence         Total energy    Change
  ------------------------------------------------------------------------------
     1 TBLite/Diag 0.40E+00    0.0     0.72883057       -21.1177312974 -2.11E+01
     2 TBLite/Diag 0.40E+00    0.0     0.47355233       -21.5281673229 -4.10E-01
     3 TBLite/Diag 0.40E+00    0.0     0.15138096       -21.5531091159 -2.49E-02
     4 TBLite/Diag 0.40E+00    0.0     0.07570483       -21.5567705426 -3.66E-03
     5 TBLite/Diag 0.40E+00    0.0     0.02730208       -21.5579218409 -1.15E-03
     6 TBLite/Diag 0.40E+00    0.0     0.00401318       -21.5579363327 -1.45E-05
     7 TBLite/Diag 0.40E+00    0.0     0.00233233       -21.5579453157 -8.98E-06
     8 TBLite/Diag 0.40E+00    0.0     0.00049785       -21.5579456612 -3.46E-07
     9 TBLite/Diag 0.40E+00    0.0     0.00013523       -21.5579456691 -7.85E-09
    10 TBLite/Diag 0.40E+00    0.0     0.00005884       -21.5579456723 -3.26E-09
    11 TBLite/Diag 0.40E+00    0.0     0.00000428       -21.5579456724 -7.75E-11
    12 TBLite/Diag 0.40E+00    0.0     0.00000107       -21.5579456724 -2.83E-12
    13 TBLite/Diag 0.40E+00    0.0     0.00000012       -21.5579456724 -4.97E-14
    14 TBLite/Diag 0.40E+00    0.0     0.00000012       -21.5579456724 -2.49E-14
    15 TBLite/Diag 0.40E+00    0.0     0.00000001       -21.5579456724  7.11E-15
    16 TBLite/Diag 0.40E+00    0.0     1.5858E-09       -21.5579456724  3.55E-15
    17 TBLite/Diag 0.40E+00    0.0     1.1227E-10       -21.5579456724 -1.42E-14

  *** SCF run converged in    17 steps ***


  Core Hamiltonian energy:                                    -21.77949812801257
  Repulsive potential energy:                                   0.14832674879792
  Electrostatic energy:                                         0.07716140150116
  Self-consistent dispersion energy:                           -0.00393655712371
  Non-self consistent dispersion energy:                        0.00000086242568
  Correction for halogen bonding:                               0.00000000000000
  Electronic entropic energy:                                  -0.00000000000000
  Fermi energy:                                                -0.36415211433622

  Total energy:                                               -21.55794567241151
  Total energy (extrapolated to T->0):                        -21.55794567241151

 ENERGY| Total FORCE_EVAL ( QS ) energy [hartree]            -21.557945672411513

 OPT| **************************************************************************
 OPT| Step number                                                              0
 OPT| Optimization method                                                   BFGS
 OPT| Total energy [hartree]                                      -21.5579456724
 OPT| Used time [s]                                                        0.015
 OPT| **************************************************************************
 OPT| Estimated peak process memory [MiB]                                    162

 --------------------------
 OPTIMIZATION STEP:      1
 --------------------------

 Extrapolation method: ASPC

 Number of electrons:                                                         34
 Number of occupied orbitals:                                                 17
 Number of molecular orbitals:                                                26

 Number of orbital functions:                                                 26
 Number of independent orbital functions:                                     26


 SCF WAVEFUNCTION OPTIMIZATION

  Step     Update method      Time    Convergence         Total energy    Change
  ------------------------------------------------------------------------------
     1 TBLite/Diag 0.40E+00    0.0     0.03508404       -21.5585126723 -2.16E+01
     2 TBLite/Diag 0.40E+00    0.0     0.00644585       -21.5585398619 -2.72E-05
     3 TBLite/Diag 0.40E+00    0.0     0.00294359       -21.5585414585 -1.60E-06
     4 TBLite/Diag 0.40E+00    0.0     0.00152692       -21.5585455673 -4.11E-06
     5 TBLite/Diag 0.40E+00    0.0     0.00008987       -21.5585455811 -1.38E-08
     6 TBLite/Diag 0.40E+00    0.0     0.00003561       -21.5585455830 -1.84E-09
     7 TBLite/Diag 0.40E+00    0.0     0.00000707       -21.5585455831 -9.63E-11
     8 TBLite/Diag 0.40E+00    0.0     0.00000049       -21.5585455831 -6.36E-13
     9 TBLite/Diag 0.40E+00    0.0     0.00000027       -21.5585455831 -1.31E-13
    10 TBLite/Diag 0.40E+00    0.0     0.00000003       -21.5585455831  7.11E-15
    11 TBLite/Diag 0.40E+00    0.0     2.5946E-09       -21.5585455831  7.11E-15
    12 TBLite/Diag 0.40E+00    0.0     1.6585E-09       -21.5585455831 -7.11E-15
    13 TBLite/Diag 0.40E+00    0.0     9.9197E-10       -21.5585455831 -3.55E-15

  *** SCF run converged in    13 steps ***


  Core Hamiltonian energy:                                    -21.77954065528609
  Repulsive potential energy:                                   0.14848636103307
  Electrostatic energy:                                         0.07645070610147
  Self-consistent dispersion energy:                           -0.00394284336412
  Non-self consistent dispersion energy:                        0.00000084845147
  Correction for halogen bonding:                               0.00000000000000
  Electronic entropic energy:                                  -0.00000000000000
  Fermi energy:                                                -0.36093578244212

  Total energy:                                               -21.55854558306420
  Total energy (extrapolated to T->0):                        -21.55854558306420

 ENERGY| Total FORCE_EVAL ( QS ) energy [hartree]            -21.558545583064202

 OPT| **************************************************************************
 OPT| Step number                                                              1
 OPT| Optimization method                                                   BFGS
 OPT| Total energy [hartree]                                      -21.5585455831
 OPT| Effective energy change [hartree]                            -0.0005999107
 OPT| Predicted energy change [hartree]                            -0.0006100322
 OPT| Scaling factor                                                0.0000000000
 OPT| Step size                                                     0.0421829464
 OPT| Trust radius                                                  0.4724315332
 OPT| Decrease in energy                                                     YES
 OPT| Used time [s]                                                        0.012
 OPT|
 OPT| Maximum step size                                             0.0421829464
 OPT| Convergence limit for maximum step size                       0.0030000000
 OPT| Maximum step size is converged                                          NO
 OPT|
 OPT| RMS step size                                                 0.0193271334
 OPT| Convergence limit for RMS step size                           0.0015000000
 OPT| RMS step size is converged                                              NO
 OPT|
 OPT| Maximum gradient                                              0.0063441151
 OPT| Convergence limit for maximum gradient                        0.0004500000
 OPT| Maximum gradient is converged                                           NO
 OPT|
 OPT| RMS gradient                                                  0.0027410679
 OPT| Convergence limit for RMS gradient                            0.0003000000
 OPT| RMS gradient is converged                                               NO
 OPT| **************************************************************************
 OPT| Estimated peak process memory after this step [MiB]                    163

 --------------------------
 OPTIMIZATION STEP:      2
 --------------------------

 Extrapolation method: ASPC

 Number of electrons:                                                         34
 Number of occupied orbitals:                                                 17
 Number of molecular orbitals:                                                26

 Number of orbital functions:                                                 26
 Number of independent orbital functions:                                     26


 SCF WAVEFUNCTION OPTIMIZATION

  Step     Update method      Time    Convergence         Total energy    Change
  ------------------------------------------------------------------------------
     1 TBLite/Diag 0.40E+00    0.0     0.00493565       -21.5586217428 -2.16E+01
     2 TBLite/Diag 0.40E+00    0.0     0.00320327       -21.5586319998 -1.03E-05
     3 TBLite/Diag 0.40E+00    0.0     0.00063366       -21.5586322499 -2.50E-07
     4 TBLite/Diag 0.40E+00    0.0     0.00038170       -21.5586322905 -4.06E-08
     5 TBLite/Diag 0.40E+00    0.0     0.00020156       -21.5586323597 -6.92E-08
     6 TBLite/Diag 0.40E+00    0.0     0.00000735       -21.5586323599 -1.51E-10
     7 TBLite/Diag 0.40E+00    0.0     0.00000160       -21.5586323599 -5.05E-12
     8 TBLite/Diag 0.40E+00    0.0     0.00000025       -21.5586323599 -1.31E-13
     9 TBLite/Diag 0.40E+00    0.0     0.00000015       -21.5586323599 -1.42E-14
    10 TBLite/Diag 0.40E+00    0.0     7.9139E-09       -21.5586323599 -3.55E-15
    11 TBLite/Diag 0.40E+00    0.0     1.1060E-09       -21.5586323599  3.55E-15
    12 TBLite/Diag 0.40E+00    0.0     5.4369E-10       -21.5586323599 -3.55E-15

  *** SCF run converged in    12 steps ***


  Core Hamiltonian energy:                                    -21.77972937716013
  Repulsive potential energy:                                   0.14845757614726
  Electrostatic energy:                                         0.07658150660139
  Self-consistent dispersion energy:                           -0.00394291342830
  Non-self consistent dispersion energy:                        0.00000084797437
  Correction for halogen bonding:                               0.00000000000000
  Electronic entropic energy:                                  -0.00000000000000
  Fermi energy:                                                -0.35974999803981

  Total energy:                                               -21.55863235986541
  Total energy (extrapolated to T->0):                        -21.55863235986541

 ENERGY| Total FORCE_EVAL ( QS ) energy [hartree]            -21.558632359865410

 OPT| **************************************************************************
 OPT| Step number                                                              2
 OPT| Optimization method                                                   BFGS
 OPT| Total energy [hartree]                                      -21.5586323599
 OPT| Effective energy change [hartree]                            -0.0000867768
 OPT| Predicted energy change [hartree]                            -0.0000663261
 OPT| Scaling factor                                                0.0000000000
 OPT| Step size                                                     0.0059170445
 OPT| Trust radius                                                  0.4724315332
 OPT| Decrease in energy                                                     YES
 OPT| Used time [s]                                                        0.011
 OPT|
 OPT| Maximum step size                                             0.0059170445
 OPT| Convergence limit for maximum step size                       0.0030000000
 OPT| Maximum step size is converged                                          NO
 OPT|
 OPT| RMS step size                                                 0.0029714445
 OPT| Convergence limit for RMS step size                           0.0015000000
 OPT| RMS step size is converged                                              NO
 OPT|
 OPT| Maximum gradient                                              0.0027901019
 OPT| Convergence limit for maximum gradient                        0.0004500000
 OPT| Maximum gradient is converged                                           NO
 OPT|
 OPT| RMS gradient                                                  0.0012383051
 OPT| Convergence limit for RMS gradient                            0.0003000000
 OPT| RMS gradient is converged                                               NO
 OPT| **************************************************************************
 OPT| Estimated peak process memory after this step [MiB]                    163

 --------------------------
 OPTIMIZATION STEP:      3
 --------------------------

 Extrapolation method: ASPC

 Number of electrons:                                                         34
 Number of occupied orbitals:                                                 17
 Number of molecular orbitals:                                                26

 Number of orbital functions:                                                 26
 Number of independent orbital functions:                                     26


 SCF WAVEFUNCTION OPTIMIZATION

  Step     Update method      Time    Convergence         Total energy    Change
  ------------------------------------------------------------------------------
     1 TBLite/Diag 0.40E+00    0.0     0.00422148       -21.5586506638 -2.16E+01
     2 TBLite/Diag 0.40E+00    0.0     0.00209994       -21.5586553576 -4.69E-06
     3 TBLite/Diag 0.40E+00    0.0     0.00031693       -21.5586554756 -1.18E-07
     4 TBLite/Diag 0.40E+00    0.0     0.00022101       -21.5586554713  4.34E-09
     5 TBLite/Diag 0.40E+00    0.0     0.00012184       -21.5586555023 -3.10E-08
     6 TBLite/Diag 0.40E+00    0.0     0.00001769       -21.5586555026 -3.58E-10
     7 TBLite/Diag 0.40E+00    0.0     0.00000214       -21.5586555026 -8.82E-12
     8 TBLite/Diag 0.40E+00    0.0     0.00000010       -21.5586555026 -7.46E-14
     9 TBLite/Diag 0.40E+00    0.0     0.00000007       -21.5586555026 -1.78E-14
    10 TBLite/Diag 0.40E+00    0.0     5.3963E-09       -21.5586555026 -1.78E-14
    11 TBLite/Diag 0.40E+00    0.0     5.1671E-10       -21.5586555026  1.78E-14

  *** SCF run converged in    11 steps ***


  Core Hamiltonian energy:                                    -21.77963911012127
  Repulsive potential energy:                                   0.14819149892358
  Electrostatic energy:                                         0.07673399021181
  Self-consistent dispersion energy:                           -0.00394273354533
  Non-self consistent dispersion energy:                        0.00000085189873
  Correction for halogen bonding:                               0.00000000000000
  Electronic entropic energy:                                  -0.00000000000000
  Fermi energy:                                                -0.35875474982732

  Total energy:                                               -21.55865550263248
  Total energy (extrapolated to T->0):                        -21.55865550263248

 ENERGY| Total FORCE_EVAL ( QS ) energy [hartree]            -21.558655502632480

 OPT| **************************************************************************
 OPT| Step number                                                              3
 OPT| Optimization method                                                   BFGS
 OPT| Total energy [hartree]                                      -21.5586555026
 OPT| Effective energy change [hartree]                            -0.0000231428
 OPT| Predicted energy change [hartree]                            -0.0000290365
 OPT| Scaling factor                                                0.0000000000
 OPT| Step size                                                     0.0066059501
 OPT| Trust radius                                                  0.4724315332
 OPT| Decrease in energy                                                     YES
 OPT| Used time [s]                                                        0.011
 OPT|
 OPT| Maximum step size                                             0.0066059501
 OPT| Convergence limit for maximum step size                       0.0030000000
 OPT| Maximum step size is converged                                          NO
 OPT|
 OPT| RMS step size                                                 0.0029638040
 OPT| Convergence limit for RMS step size                           0.0015000000
 OPT| RMS step size is converged                                              NO
 OPT|
 OPT| Maximum gradient                                              0.0007394742
 OPT| Convergence limit for maximum gradient                        0.0004500000
 OPT| Maximum gradient is converged                                           NO
 OPT|
 OPT| RMS gradient                                                  0.0002940323
 OPT| Convergence limit for RMS gradient                            0.0003000000
 OPT| RMS gradient is converged                                              YES
 OPT| **************************************************************************
 OPT| Estimated peak process memory after this step [MiB]                    163

 --------------------------
 OPTIMIZATION STEP:      4
 --------------------------

 Extrapolation method: ASPC

 Number of electrons:                                                         34
 Number of occupied orbitals:                                                 17
 Number of molecular orbitals:                                                26

 Number of orbital functions:                                                 26
 Number of independent orbital functions:                                     26


 SCF WAVEFUNCTION OPTIMIZATION

  Step     Update method      Time    Convergence         Total energy    Change
  ------------------------------------------------------------------------------
     1 TBLite/Diag 0.40E+00    0.0     0.00215397       -21.5586586470 -2.16E+01
     2 TBLite/Diag 0.40E+00    0.0     0.00006833       -21.5586586654 -1.84E-08
     3 TBLite/Diag 0.40E+00    0.0     0.00006760       -21.5586586644  1.01E-09
     4 TBLite/Diag 0.40E+00    0.0     0.00005374       -21.5586586682 -3.88E-09
     5 TBLite/Diag 0.40E+00    0.0     0.00000808       -21.5586586684 -1.48E-10
     6 TBLite/Diag 0.40E+00    0.0     0.00000378       -21.5586586684 -2.35E-11
     7 TBLite/Diag 0.40E+00    0.0     0.00000016       -21.5586586684 -9.24E-14
     8 TBLite/Diag 0.40E+00    0.0     0.00000003       -21.5586586684  0.00E+00
     9 TBLite/Diag 0.40E+00    0.0     5.9443E-10       -21.5586586684  0.00E+00

  *** SCF run converged in     9 steps ***


  Core Hamiltonian energy:                                    -21.77958633153244
  Repulsive potential energy:                                   0.14816945837338
  Electrostatic energy:                                         0.07670024929887
  Self-consistent dispersion energy:                           -0.00394289503609
  Non-self consistent dispersion energy:                        0.00000085048807
  Correction for halogen bonding:                               0.00000000000000
  Electronic entropic energy:                                  -0.00000000000000
  Fermi energy:                                                -0.35883619121742

  Total energy:                                               -21.55865866840821
  Total energy (extrapolated to T->0):                        -21.55865866840821

 ENERGY| Total FORCE_EVAL ( QS ) energy [hartree]            -21.558658668408210

 OPT| **************************************************************************
 OPT| Step number                                                              4
 OPT| Optimization method                                                   BFGS
 OPT| Total energy [hartree]                                      -21.5586586684
 OPT| Effective energy change [hartree]                            -0.0000031658
 OPT| Predicted energy change [hartree]                            -0.0000027110
 OPT| Scaling factor                                                0.0000000000
 OPT| Step size                                                     0.0025357816
 OPT| Trust radius                                                  0.4724315332
 OPT| Decrease in energy                                                     YES
 OPT| Used time [s]                                                        0.010
 OPT|
 OPT| Maximum step size                                             0.0025357816
 OPT| Convergence limit for maximum step size                       0.0030000000
 OPT| Maximum step size is converged                                         YES
 OPT|
 OPT| RMS step size                                                 0.0010439515
 OPT| Convergence limit for RMS step size                           0.0015000000
 OPT| RMS step size is converged                                             YES
 OPT|
 OPT| Maximum gradient                                              0.0001661007
 OPT| Convergence limit for maximum gradient                        0.0004500000
 OPT| Maximum gradient is converged                                          YES
 OPT|
 OPT| RMS gradient                                                  0.0000885807
 OPT| Convergence limit for RMS gradient                            0.0003000000
 OPT| RMS gradient is converged                                              YES
 OPT| **************************************************************************
 OPT| Estimated peak process memory after this step [MiB]                    163

 *******************************************************************************
 ***                    GEOMETRY OPTIMIZATION COMPLETED                      ***
 *******************************************************************************

 write_final_structure: Optimization converged, writing XYZ file gladly:
  oxalic_acid_alpha_GFN2_mol_geoopt-FINAL-1_4.xyz

 write_final_structure: Optimization converged, writing CIF file gladly:
  oxalic_acid_alpha_GFN2_mol_geoopt-FINAL-1_4.cif

 write_final_structure: Done!

                    Reevaluating energy at the minimum

 Extrapolation method: ASPC

 Number of electrons:                                                         34
 Number of occupied orbitals:                                                 17
 Number of molecular orbitals:                                                26

 Number of orbital functions:                                                 26
 Number of independent orbital functions:                                     26


 SCF WAVEFUNCTION OPTIMIZATION

  Step     Update method      Time    Convergence         Total energy    Change
  ------------------------------------------------------------------------------
     1 TBLite/Diag 0.40E+00    0.0     1.2002E-09       -21.5586586684 -2.16E+01
     2 TBLite/Diag 0.40E+00    0.0     1.1362E-09       -21.5586586684 -1.07E-14
     3 TBLite/Diag 0.40E+00    0.0     3.2310E-10       -21.5586586684  3.55E-15

  *** SCF run converged in     3 steps ***


  Core Hamiltonian energy:                                    -21.77958633126275
  Repulsive potential energy:                                   0.14816945837338
  Electrostatic energy:                                         0.07670024902905
  Self-consistent dispersion energy:                           -0.00394289503596
  Non-self consistent dispersion energy:                        0.00000085048807
  Correction for halogen bonding:                               0.00000000000000
  Electronic entropic energy:                                  -0.00000000000000
  Fermi energy:                                                -0.35883619104373

  Total energy:                                               -21.55865866840821
  Total energy (extrapolated to T->0):                        -21.55865866840821

 ENERGY| Total FORCE_EVAL ( QS ) energy [hartree]            -21.558658668408214

 -------------------------------------------------------------------------------
 -                                                                             -
 -                                DBCSR STATISTICS                             -
 -                                                                             -
 -------------------------------------------------------------------------------
 COUNTER                                    TOTAL       BLAS       SMM       ACC
 flops     1 x    26 x     1                 3120       0.0%    100.0%      0.0%     
 flops     1 x     1 x    26                11700       0.0%    100.0%      0.0%     
 flops     1 x    26 x     4                37440       0.0%    100.0%      0.0%     
 flops     4 x    26 x     1                37440       0.0%    100.0%      0.0%     
 flops     1 x     4 x    26                93600       0.0%    100.0%      0.0%     
 flops     4 x     1 x    26                93600       0.0%    100.0%      0.0%     
 flops     4 x    26 x     4               449280       0.0%    100.0%      0.0%     
 flops     4 x     4 x    26              1310400       0.0%    100.0%      0.0%     
 flops inhomo. stacks                           0       0.0%      0.0%      0.0%
 flops total                         2.036580E+06       0.0%    100.0%      0.0%
 flops max/rank                      2.036580E+06       0.0%    100.0%      0.0%
 matmuls inhomo. stacks                         0       0.0%      0.0%      0.0%
 matmuls total                               3660       0.0%    100.0%      0.0%
 number of processed stacks                   360       0.0%    100.0%      0.0%
 average stack size                                     0.0      10.2       0.0
 marketing flops                     2.251080E+06
 -------------------------------------------------------------------------------
 # multiplications                             90
 max memory usage/rank              13.670023E+09
 # max total images/rank                        1
 # max 3D layers                                1
 # MPI messages exchanged                       0
 -------------------------------------------------------------------------------
 -                                                                             -
 -                      DBCSR MESSAGE PASSING PERFORMANCE                      -
 -                                                                             -
 -------------------------------------------------------------------------------
 ROUTINE             CALLS      AVE VOLUME [Bytes]
 MP_Bcast                9                     12.
 MP_Allreduce          455                      9.
 MP_Alltoall          3075                   3678.
 MP_ISend              360                    253.
 MP_IRecv              360                    253.
 -------------------------------------------------------------------------------

 -------------------------------------------------------------------------------
 -                                                                             -
 -                          OFFLOAD MEMPOOL STATISTICS                         -
 -                                                                             -
 -------------------------------------------------------------------------------
 Memory consumption                Number of allocations  Used [MiB]  Size [MiB]
 Device                                                1           0           0
 Host                                                  1           0           0
 -------------------------------------------------------------------------------

 MEMORY| Estimated peak process memory [MiB]                                 163

 -------------------------------------------------------------------------------
 -                                                                             -
 -                         MESSAGE PASSING PERFORMANCE                         -
 -                                                                             -
 -------------------------------------------------------------------------------

 ROUTINE             CALLS      AVE VOLUME [Bytes]
 MP_Group                1
 MP_Bcast              144                    110.
 MP_Allreduce         2279                     62.
 MP_Sync                76
 MP_comm_split          75
 -------------------------------------------------------------------------------


 -------------------------------------------------------------------------------
 -                                                                             -
 -                           R E F E R E N C E S                               -
 -                                                                             -
 -------------------------------------------------------------------------------
 
 CP2K version 2026.1 (Development Version), the CP2K developers group (2026).
 CP2K is freely available from https://www.cp2k.org/ .
 
 M. Iannuzzi, J. Wilhelm, F. Stein, A. Bussy, H. Elgabarty, D. Golze, A. Hehn, 
 M. Graml, S. Marek, B. Sertcan Gökmen, C. Schran, H. Forbert, R. Z. 
 Khaliullin, A. Kozhevnikov, M. Taillefumier, R. Meli, V. V. Rybkin, M. Brehm, 
 R. Schade, O. Schütt, J. V. Pototschnig, H. Mirhosseini, A. Knüpfer, D. Marx, 
 M. Krack, J. Hutter, T. D. Kühne.
 J. Phys. Chem. B 130, 1237-1310 (2026).
 The CP2K Program Package Made Simple.
 https://doi.org/10.1021/acs.jpcb.5c05851

 A. Katbashev, M. Stahn, T. Rose, V. Alizadeh, M. Friede, C. Plett, P. 
 Steinbach, S. Ehlert.
 J. Phys. Chem. A 129, 2667-2682 (2025).
 Overview on Building Blocks and Applications of Efficient and Robust Extended 
 Tight Binding.
 https://doi.org/10.1021/acs.jpca.4c08263

 T. D. Kühne, M. Iannuzzi, M. Del Ben, V. V. Rybkin, P. Seewald, F. Stein, T. 
 Laino, R. Z. Khaliullin, O. Schütt, F. Schiffmann, D. Golze, J. Wilhelm, S. 
 Chulkov, M. H. Bani-Hashemian, V. Weber, U. Borstnik, M. Taillefumier, A. S. 
 Jakobovits, A. Lazzaro, H. Pabst, T. Müller, R. Schade, M. Guidon, S. 
 Andermatt, N. Holmberg, G. K. Schenter, A. Hehn, A. Bussy, F. Belleflamme, G. 
 Tabacchi, A. Glöß, M. Lass, I. Bethune, C. J. Mundy, C. Plessl, M. Watkins, 
 J. VandeVondele, M. Krack, J. Hutter.
 J. Chem. Phys. 152, 194103 (2020).
 CP2K: An electronic structure and molecular dynamics software package - 
 Quickstep: Efficient and accurate electronic structure calculations.
 https://doi.org/10.1063/5.0007045

 P. Pracht, E. Caldeweyher, S. Ehlert, S. Grimme.
 ChemRxiv, (2019).
 A Robust Non-Self-Consistent Tight-Binding Quantum Chemistry Method for large 
 Molecules.
 https://doi.org/10.26434/chemrxiv.8326202.v1

 S. Grimme, C. Bannwarth, P. Shushkov.
 J. Chem. Theory Comput. 13, 1989 (2017).
 A Robust and Accurate Tight-Binding Quantum Chemical Method for Structures, 
 Vibrational Frequencies, and Noncovalent Interactions of Large Molecular 
 Systems Parametrized for All spd-Block Elements (Z = 1-86).
 https://doi.org/10.1021/acs.jctc.7b00118

 O. Schuett, P. Messmer, J. Hutter, J. VandeVondele.
 Electronic Structure Calculations on Graphics Processing Units, 173-190 (2016).
 GPU-Accelerated Sparse Matrix-Matrix Multiplication for Linear Scaling Density 
 Functional Theory.
 https://doi.org/10.1002/9781118670712.ch8

 A. Heinecke, G. Henry, M. Hutchinson, H. Pabst.
 Proceedings of Intl. Supercomputing Conference, 981-991 (2016).
 LIBXSMM: Accelerating Small Matrix Multiplications by Runtime Code Generation.
 https://doi.org/10.1109/SC.2016.83

 U. Borstnik, J. VandeVondele, V. Weber, J. Hutter.
 Parallel Comput. 40, 47-58 (2014).
 Sparse matrix multiplication: The distributed block-compressed sparse row 
 library.
 https://doi.org/10.1016/j.parco.2014.03.012

 T. D. Kühne, M. Krack, F. R. Mohamed, M. Parrinello.
 Phys. Rev. Lett. 98, 066401 (2007).
 Efficient and accurate Car-Parrinello-like approach to Born-Oppenheimer 
 molecular dynamics.
 https://doi.org/10.1103/PhysRevLett.98.066401

 M. Frigo, S. G. Johnson.
 Proc. IEEE 93, 216-231 (2005).
 The design and implementation of FFTW3.
 https://doi.org/10.1109/JPROC.2004.840301

 J. Kolafa.
 J. Comput. Chem. 25, 335-342 (2004).
 Time-reversible always stable predictor-corrector method for molecular dynamics 
 of polarizable molecules.
 https://doi.org/10.1002/jcc.10385

 N. D. Mermin.
 Phys. Rev. 137, A1441-A1443 (1965).
 Thermal Properties of the Inhomogeneous Electron Gas.
 https://doi.org/10.1103/PhysRev.137.A1441


 -------------------------------------------------------------------------------
 -                                                                             -
 -                                T I M I N G                                  -
 -                                                                             -
 -------------------------------------------------------------------------------
 SUBROUTINE                       CALLS  ASD         SELF TIME        TOTAL TIME
                                MAXIMUM       AVERAGE  MAXIMUM  AVERAGE  MAXIMUM
 CP2K                                 1  1.0    0.002    0.002    0.069    0.069
 cp_geo_opt                           1  2.0    0.000    0.000    0.064    0.064
 geoopt_bfgs                          1  3.0    0.000    0.000    0.064    0.064
 cp_eval_at                           6  4.0    0.000    0.000    0.061    0.061
 qs_forces                            5  5.0    0.000    0.000    0.057    0.057
 qs_energies                          6  5.8    0.000    0.000    0.056    0.056
 scf_env_do_scf                       6  6.8    0.000    0.000    0.045    0.045
 scf_env_do_scf_inner_loop           65  8.0    0.003    0.003    0.044    0.044
 qs_scf_new_mos                      65  9.0    0.000    0.000    0.033    0.033
 cp_dbcsr_plus_fm_fm_t               75 10.8    0.000    0.000    0.018    0.018
 calculate_dm_sparse                 70  9.9    0.000    0.000    0.017    0.017
 dbcsr_multiply_generic              90 11.9    0.001    0.001    0.015    0.015
 copy_dbcsr_to_fm                   145 10.4    0.000    0.000    0.009    0.009
 make_m2s                           180 12.9    0.000    0.000    0.009    0.009
 dbcsr_complete_redistribute        310 12.1    0.004    0.004    0.008    0.008
 rebuild_ks_matrix                   70  9.7    0.000    0.000    0.008    0.008
 build_tblite_ks_matrix              70 10.7    0.007    0.007    0.008    0.008
 eigensolver                         65 10.0    0.001    0.001    0.006    0.006
 cp_fm_syevd                         75 10.6    0.000    0.000    0.006    0.006
 qs_ks_update_qs_env                 65  9.0    0.000    0.000    0.006    0.006
 init_scf_run                         6  6.8    0.000    0.000    0.006    0.006
 build_tblite_matrices               11  7.0    0.002    0.002    0.006    0.006
 qs_diis_b_step                      59 10.0    0.000    0.000    0.005    0.005
 scf_env_initial_rho_setup            6  7.8    0.000    0.000    0.005    0.005
 wfi_extrapolate                      6  8.8    0.000    0.000    0.005    0.005
 copy_fm_to_dbcsr                   165 11.8    0.000    0.000    0.004    0.004
 cp_fm_syevd_base                    75 11.6    0.004    0.004    0.004    0.004
 make_images                        180 13.9    0.001    0.001    0.004    0.004
 qs_energies_init_hamiltonians        6  6.8    0.000    0.000    0.003    0.003
 dbcsr_finalize                    1736 12.1    0.001    0.001    0.003    0.003
 tb_get_multipole                    11  8.0    0.002    0.002    0.003    0.003
 cp_dbcsr_sm_fm_multiply             15 10.3    0.000    0.000    0.003    0.003
 multiply_cannon                     90 12.9    0.001    0.001    0.003    0.003
 qs_init_subsys                       1  2.0    0.000    0.000    0.003    0.003
 dbcsr_create_new                  2395 13.0    0.002    0.002    0.003    0.003
 dbcsr_crop_matrix                  150 13.8    0.000    0.000    0.002    0.002
 dbcsr_desymmetrize_deep            145 11.4    0.001    0.001    0.002    0.002
 qs_ks_update_qs_env_forces           5  6.0    0.000    0.000    0.002    0.002
 dbcsr_copy_submatrix               150 14.8    0.001    0.001    0.002    0.002
 reorthogonalize_vectors              5  9.8    0.000    0.000    0.002    0.002
 make_basis_lowdin                    5 10.8    0.000    0.000    0.002    0.002
 dbcsr_iterator_start              4038 12.6    0.001    0.001    0.002    0.002
 cp_dbcsr_sm_fm_multiply_core        15 11.3    0.000    0.000    0.002    0.002
 dbcsr_merge_all                    535 14.8    0.001    0.001    0.002    0.002
 parallel_gemm_fm_gemm              153 10.6    0.000    0.000    0.002    0.002
 cp_fm_redistribute_start            75 11.6    0.001    0.001    0.002    0.002
 cp_fm_gemm                         153 11.6    0.001    0.001    0.001    0.001
 dbcsr_iterator_stop               4038 12.6    0.001    0.001    0.001    0.001
 dbcsr_destroy                     2260 12.4    0.001    0.001    0.001    0.001
 -------------------------------------------------------------------------------

 The number of warnings for this run is : 0
 
 -------------------------------------------------------------------------------
  **** **** ******  **  PROGRAM ENDED AT                 2026-05-23 22:46:20.858
 ***** ** ***  *** **   PROGRAM RAN ON                                spark-c86c
 **    ****   ******    PROGRAM RAN BY                                  kuehne88
 ***** **    ** ** **   PROGRAM PROCESS ID                               2227914
  **** **  *******  **  PROGRAM STOPPED IN /home/kuehne88/periodic-gfn2-benchmar
                                           ks/X23b/runs/molecule_geoopt/GFN2/oxa
                                           lic_acid_alpha_GFN2_mol_geoopt
