 DBCSR| CPU Multiplication driver                                           BLAS (U)
 DBCSR| Multrec recursion limit                                              512 (U)
 DBCSR| Multiplication stack size                                           1000 (D)
 DBCSR| Maximum elements for images                                    UNLIMITED (U)
 DBCSR| Multiplicative factor virtual images                                   1 (U)
 DBCSR| Use multiplication densification                                       T (D)
 DBCSR| Multiplication size stacks                                             3 (U)
 DBCSR| Use memory pool for CPU allocation                                     F (U)
 DBCSR| Number of 3D layers                                               SINGLE (U)
 DBCSR| Use MPI memory allocation                                              F (U)
 DBCSR| Use RMA algorithm                                                      F (U)
 DBCSR| Use Communication thread                                               T (U)
 DBCSR| Communication thread load                                             87 (D)
 DBCSR| MPI: My process id                                                     0
 DBCSR| MPI: Number of processes                                               1
 DBCSR| OMP: Current number of threads                                         1
 DBCSR| OMP: Max number of threads                                             1
 DBCSR| Split modifier for TAS multiplication algorithm                  1.0E+00 (U)


  **** **** ******  **  PROGRAM STARTED AT               2026-07-21 12:47:53.322
 ***** ** ***  *** **   PROGRAM STARTED ON                                 terok
 **    ****   ******    PROGRAM STARTED BY                              kuehne88
 ***** **    ** ** **   PROGRAM PROCESS ID                                526152
  **** **  *******  **  PROGRAM STARTED IN /home/kuehne88/work/gxtb-lowk-rerun-2
                                           0260721/results/derivative/CH4_gxtb_k
                                           p_spglib_111_force_stress

 CP2K| version string:                 CP2K version 2026.2 (Development Version)
 CP2K| source code revision number:                                    8520b2e59
 CP2K| cp2kflags: omp parallel scalapack spglib s_dftd3 mctc-lib tblite tblite_g
 CP2K|            xtb
 CP2K| is freely available from                            https://www.cp2k.org/
 CP2K| Program compiled at                                   2026-07-18 23:48:15
 CP2K| Program compiled on                                                 terok
 CP2K| Program compiled for                                               x86_64
 CP2K| Data directory path                            /usr/local/share/cp2k/data
 CP2K| Input file name        /home/kuehne88/work/gxtb-lowk-rerun-20260721/input

 GLOBAL| Force Environment number                                              1
 GLOBAL| Basis set file name                                           BASIS_SET
 GLOBAL| Potential file name                                           POTENTIAL
 GLOBAL| MM Potential file name                                     MM_POTENTIAL
 GLOBAL| Coordinate file name                                      __STD_INPUT__
 GLOBAL| Method name                                                        CP2K
 GLOBAL| Project name                        CH4_gxtb_kp_spglib_111_force_stress
 GLOBAL| Run type                                                          DEBUG
 GLOBAL| FFT library                                                       FFTW3
 GLOBAL| Diagonalization library                                       ScaLAPACK
 GLOBAL| Cholesky decomposition library                                ScaLAPACK
 GLOBAL| DGEMM library                                                      BLAS
 GLOBAL| Direct generalized diagonalization requested                          F
 GLOBAL| Orthonormality check for eigenvectors                          DISABLED
 GLOBAL| Matrix multiplication library                                 ScaLAPACK
 GLOBAL| All-to-all communication in single precision                          F
 GLOBAL| FFTs using library dependent lengths                                  F
 GLOBAL| Grid backend                                                       AUTO
 GLOBAL| Global print level                                               MEDIUM
 GLOBAL| MPI I/O enabled                                                       T
 GLOBAL| Total number of message passing processes                             1
 GLOBAL| Number of distributed systems (nodes)                                 1
 GLOBAL| Number of threads for this process                                    1
 GLOBAL| This output is from process                                           0
 GLOBAL| OpenMP stack size per thread (OMP_STACKSIZE)                    default
 GLOBAL| CPU model name                                       AMD EPYC Processor
 GLOBAL| CPUID                                                              1002

 MEMORY| system memory details [Kb]
 MEMORY|                        rank 0           min           max       average
 MEMORY| MemTotal            528104804     528104804     528104804     528104804
 MEMORY| MemFree             511500612     511500612     511500612     511500612
 MEMORY| Buffers                    20            20            20            20
 MEMORY| Cached               12076976      12076976      12076976      12076976
 MEMORY| Slab                  2342600       2342600       2342600       2342600
 MEMORY| SReclaimable           994088        994088        994088        994088
 MEMORY| MemLikelyFree       524571696     524571696     524571696     524571696


 *** WARNING in environment.F:1098 :: FFT library FFTW3 is not available. ***
 *** Trying FFT library FFTSG.                                            ***


 *** Fundamental physical constants (SI units) ***

 *** Literature: B. J. Mohr and B. N. Taylor,
 ***             CODATA recommended values of the fundamental physical
 ***             constants: 2006, Web Version 5.1
 ***             http://physics.nist.gov/constants

 Speed of light in vacuum [m/s]                             2.99792458000000E+08
 Magnetic constant or permeability of vacuum [N/A**2]       1.25663706143592E-06
 Electric constant or permittivity of vacuum [F/m]          8.85418781762039E-12
 Planck constant (h) [J*s]                                  6.62606896000000E-34
 Planck constant (h-bar) [J*s]                              1.05457162825177E-34
 Elementary charge [C]                                      1.60217648700000E-19
 Electron mass [kg]                                         9.10938215000000E-31
 Electron g factor [ ]                                     -2.00231930436220E+00
 Proton mass [kg]                                           1.67262163700000E-27
 Fine-structure constant                                    7.29735253760000E-03
 Rydberg constant [1/m]                                     1.09737315685270E+07
 Avogadro constant [1/mol]                                  6.02214179000000E+23
 Boltzmann constant [J/K]                                   1.38065040000000E-23
 Atomic mass unit [kg]                                      1.66053878200000E-27
 Bohr radius [m]                                            5.29177208590000E-11

 *** Conversion factors ***

 [u] -> [a.u.]                                              1.82288848426455E+03
 [Angstrom] -> [Bohr] = [a.u.]                              1.88972613288564E+00
 [a.u.] = [Bohr] -> [Angstrom]                              5.29177208590000E-01
 [a.u.] -> [s]                                              2.41888432650478E-17
 [a.u.] -> [fs]                                             2.41888432650478E-02
 [a.u.] -> [J]                                              4.35974393937059E-18
 [a.u.] -> [N]                                              8.23872205491840E-08
 [a.u.] -> [K]                                              3.15774647902944E+05
 [a.u.] -> [kJ/mol]                                         2.62549961709828E+03
 [a.u.] -> [kcal/mol]                                       6.27509468713739E+02
 [a.u.] -> [Pa]                                             2.94210107994716E+13
 [a.u.] -> [bar]                                            2.94210107994716E+08
 [a.u.] -> [atm]                                            2.90362800883016E+08
 [a.u.] -> [eV]                                             2.72113838565563E+01
 [a.u.] -> [Hz]                                             6.57968392072181E+15
 [a.u.] -> [1/cm] (wave numbers)                            2.19474631370540E+05
 [a.u./Bohr**2] -> [1/cm]                                   5.14048714338585E+03
 

 CELL| Volume [angstrom^3]:                                           512.000000
 CELL| Vector a [angstrom]:       8.000     0.000     0.000   |a| =     8.000000
 CELL| Vector b [angstrom]:       0.000     8.000     0.000   |b| =     8.000000
 CELL| Vector c [angstrom]:       0.000     0.000     8.000   |c| =     8.000000
 CELL| Angle (b,c), alpha [degree]:                                    90.000000
 CELL| Angle (a,c), beta  [degree]:                                    90.000000
 CELL| Angle (a,b), gamma [degree]:                                    90.000000
 CELL| Requested initial symmetry:                                         CUBIC
 CELL| Numerically orthorhombic:                                             YES
 CELL| Periodicity                                                           XYZ

 CELL_REF| Volume [angstrom^3]:                                       512.000000
 CELL_REF| Vector a [angstrom     8.000     0.000     0.000   |a| =     8.000000
 CELL_REF| Vector b [angstrom     0.000     8.000     0.000   |b| =     8.000000
 CELL_REF| Vector c [angstrom     0.000     0.000     8.000   |c| =     8.000000
 CELL_REF| Angle (b,c), alpha [degree]:                                90.000000
 CELL_REF| Angle (a,c), beta  [degree]:                                90.000000
 CELL_REF| Angle (a,b), gamma [degree]:                                90.000000
 CELL_REF| Requested initial symmetry:                                     CUBIC
 CELL_REF| Numerically orthorhombic:                                         YES
 CELL_REF| Periodicity                                                       XYZ

 GENERATE|  Preliminary Number of Bonds generated:                             0
 GENERATE|  Achieved consistency in connectivity generation.


                  #####   #####        #     #   #     #       #          
                 #     # #     #      #    ##### #     #   # #####  ####  
                 #     # #           #       #   ###   #       #   #    # 
                 #     #  #####     #        #   #  #  #   #   #   ###### 
                 #   # #       #   #         #   #   # #   #   #   #      
                 #    #  #     #  #          #   #  #  # # #   #    #   # 
                  #### #  #####  #           #   ###   ##  #   #     ###  

                                     g-xTB   
                                 Version 0.0                       
                            Johann V. Pototschnig                  

                tblite provider: SAVE
                tblite source revision: 15915c9435644eb257178ca8f8bf7220c38b1a84
                g-xTB support: enabled

 xTB| Parameter file                                             xTB1_parameters
 xTB| Basis expansion STO-NG                                                   6
 xTB| Basis expansion STO-NG for Hydrogen                                      4
 xTB| Repulsive pair potential accuracy                               0.1000E-09
 xTB| Repulsive enhancement factor                                      0.000000
 xTB| Halogen interaction potential                                            T
 xTB| Halogen interaction potential cutoff radius                         20.000
 xTB| Nonbonded interactions                                                   F
 xTB| vdW potential type:                                              DFTD3(BJ)
 xTB| D3 Dispersion: Parameter                                         dftd3.dat
 xTB| Huckel constants ks kp kd                        1.850     2.250     2.000
 xTB| Huckel constants ksp k2sh                                  2.080     2.850
 xTB| Mataga-Nishimoto exponent                                            2.000
 xTB| Repulsion potential exponent                                         1.500
 xTB| Coordination number scaling kcn(s) kcn(p) kc     0.006    -0.003    -0.005
 xTB| Electronegativity scaling                                           -0.007
 xTB| Halogen potential scaling kxr kx2                          1.300     0.440
 xTB| SCC mixer:                                                       AUTO
 xTB| tblite accuracy:                                                 1.000E+00
 xTB| tblite SCC mixer damping:                                            0.400
 xTB| tblite SCC mixer iterations:                                           250
 xTB| tblite SCC mixer memory:                                               250
 xTB| tblite SCC mixer solver:                                         GVD
 xTB| tblite SCC mixer omega0:                                         1.000E-02
 xTB| tblite SCC mixer min weight:                                     1.000E+00
 xTB| tblite SCC mixer max weight:                                     1.000E+05
 xTB| tblite SCC mixer weight factor:                                  1.000E-02




 ATOMIC KIND INFORMATION

  1. Atomic kind: C                                     Number of atoms:       1

     Orbital Basis Set                                                 C _STO-6G

       Number of orbital shell sets:                                           2
       Number of orbital shells:                                               2
       Number of primitive Cartesian functions:                               12
       Number of Cartesian basis functions:                                    4
       Number of spherical basis functions:                                    4
       Norm type:                                                              3

       Normalised Cartesian orbitals:

                        Set   Shell   Orbital            Exponent    Coefficient

                          1       1    1s                2.208628      -1.157490
                                                         1.917959       0.886555
                                                         0.497153       0.232010
                                                         0.192182       0.116485
                                                         0.150531      -0.033296
                                                         0.078189       0.019361

                          2       1    2px              24.597336       0.464082
                                                         6.488161       0.691437
                                                         2.226359       0.612655
                                                         0.776897       0.415112
                                                         0.283425       0.113030
                                                         0.098628       0.020433
                          2       1    2py              24.597336       0.464082
                                                         6.488161       0.691437
                                                         2.226359       0.612655
                                                         0.776897       0.415112
                                                         0.283425       0.113030
                                                         0.098628       0.020433
                          2       1    2pz              24.597336       0.464082
                                                         6.488161       0.691437
                                                         2.226359       0.612655
                                                         0.776897       0.415112
                                                         0.283425       0.113030
                                                         0.098628       0.020433

     AE Potential information for                                         Carbon

       Description:                                       Bare Coulomb Potential
                                                             Valence charge only

       Gaussian exponent of the core charge distribution:               3.373250
       Electronic configuration (s p d ...):                       2   2   0   0

  2. Atomic kind: H                                     Number of atoms:       4

     Orbital Basis Set                                                 H _STO-8G

       Number of orbital shell sets:                                           1
       Number of orbital shells:                                               1
       Number of primitive Cartesian functions:                                8
       Number of Cartesian basis functions:                                    1
       Number of spherical basis functions:                                    1
       Norm type:                                                              3

       Normalised Cartesian orbitals:

                        Set   Shell   Orbital            Exponent    Coefficient

                          1       1    1s              337.005012       0.032613
                                                        53.310531       0.058991
                                                        12.208253       0.102844
                                                         3.418827       0.159923
                                                         1.108790       0.193518
                                                         0.478718       0.121328
                                                         0.212137       0.085046
                                                         0.069058       0.011171

     AE Potential information for                                       Hydrogen

       Description:                                       Bare Coulomb Potential
                                                              Full atomic charge

       Gaussian exponent of the core charge distribution:              12.500000
       Electronic configuration (s p d ...):                       1   0   0   0


 MOLECULE KIND INFORMATION


 All atoms are their own molecule, skipping detailed information


 TOTAL NUMBERS AND MAXIMUM NUMBERS

  Total number of            - Atomic kinds:                                   2
                             - Atoms:                                          5
                             - Shell sets:                                     6
                             - Shells:                                         6
                             - Primitive Cartesian functions:                 44
                             - Cartesian basis functions:                      8
                             - Spherical basis functions:                      8

  Maximum angular momentum of the orbital basis functions:                     1


 MODULE QUICKSTEP: ATOMIC COORDINATES IN ANGSTROM

   Atom Kind Element         X             Y             Z       Z(eff)     Mass
      1    1 C     6      4.000000      4.000000      4.000000   4.0000  12.0107
      2    2 H     1      4.692820      4.692820      4.692820   1.0000   1.0079
      3    2 H     1      4.692820      3.307180      3.307180   1.0000   1.0079
      4    2 H     1      3.307180      4.692820      3.307180   1.0000   1.0079
      5    2 H     1      3.307180      3.307180      4.692820   1.0000   1.0079



 SCF PARAMETERS         Density guess:                                     MOPAC
                        --------------------------------------------------------
                        max_scf:                                             300
                        max_scf_history:                                       0
                        max_diis:                                              4
                        --------------------------------------------------------
                        eps_scf:                                        1.00E-10
                        eps_scf_history:                                0.00E+00
                        eps_diis:                                       1.00E-01
                        eps_eigval:                                     1.00E-05
                        --------------------------------------------------------
                        level_shift [a.u.]:                             0.000000
                        added MOs                                         4    0
                        --------------------------------------------------------
                        Mixing method:                           DIRECT_P_MIXING
                        --------------------------------------------------------
                        No outer SCF

 PW_GRID| Information for grid number                                          1
 PW_GRID| Cutoff [a.u.]                                                      1.0
 PW_GRID| spherical cutoff:                                                   NO
 PW_GRID|   Bounds   1             -4       3                Points:           8
 PW_GRID|   Bounds   2             -4       3                Points:           8
 PW_GRID|   Bounds   3             -4       3                Points:           8
 PW_GRID| Volume element (a.u.^3)   6.748         Volume (a.u.^3)      3455.1473
 PW_GRID| Grid span                                                    FULLSPACE

 POISSON| Solver                                                        PERIODIC
 POISSON| Periodicity                                                        XYZ

 RS_GRID| Information for grid number                                          1
 RS_GRID|   Bounds   1             -4       3                Points:           8
 RS_GRID|   Bounds   2             -4       3                Points:           8
 RS_GRID|   Bounds   3             -4       3                Points:           8

 *******************************************************************************
  **                     Special K-Point Generation by SPGLIB                 **
 *******************************************************************************
 *******************************************************************************
  **                              Finished SPGLIB                             **
 *******************************************************************************

 Crystal Symmetry Information
       International Symbol:                                               P-43m
       Point Group Symbol:                                                  -43m
       Schoenflies Symbol:                                                  Td^1
       Number of Symmetry Operations:                                         24

 K-point Symmetry Information
       Number of Special K-points:                                             1
                   Wavevector Basis                                       Weight
          1   0.00000   0.00000   0.00000                                      1

       K-point Mesh:                                               1     1     1
                   Wavevector Basis                   Special Points    Rotation
          1   0.00000   0.00000   0.00000              1           1           1

       Atom Transformation Table
          Rot=    1     1    2    3    4    5
          Rot=    2     1    3    5    2    4
          Rot=    3     1    5    4    3    2
          Rot=    4     1    4    2    5    3
          Rot=    5     1    3    2    5    4
          Rot=    6     1    2    4    3    5
          Rot=    7     1    4    5    2    3
          Rot=    8     1    5    3    4    2
          Rot=    9     1    2    4    5    3
          Rot=   10     1    4    3    2    5
          Rot=   11     1    3    5    4    2
          Rot=   12     1    5    2    3    4
          Rot=   13     1    4    2    3    5
          Rot=   14     1    2    5    4    3
          Rot=   15     1    5    3    2    4
          Rot=   16     1    3    4    5    2
          Rot=   17     1    2    5    3    4
          Rot=   18     1    5    4    2    3
          Rot=   19     1    4    3    5    2
          Rot=   20     1    3    2    4    5
          Rot=   21     1    5    2    4    3
          Rot=   22     1    2    3    5    4
          Rot=   23     1    3    4    2    5
          Rot=   24     1    4    5    3    2

 *******************************************************************************
                                    Kpoints
 *******************************************************************************
 BRILLOUIN| K-point scheme                                        Monkhorst-Pack
 BRILLOUIN| K-Point grid                                             1    1    1
 BRILLOUIN| K-point symmetry accuracy                               0.100000E-07
 BRILLOUIN| K-Point point group symmetrization                                ON
 BRILLOUIN| Symmetry backend                                             SPGLIB
 BRILLOUIN| Symmetry reduction method                                    SPGLIB
 BRILLOUIN| Wavefunction type                                            COMPLEX
 BRILLOUIN| List of Kpoints [2 Pi/Bohr]                                        1
 BRILLOUIN| Number           Weight            X              Y              Z
 BRILLOUIN|     1           1.00000        0.00000        0.00000        0.00000
 *******************************************************************************

 *******************************************************************************
  **                     Special K-Point Generation by SPGLIB                 **
 *******************************************************************************
 *******************************************************************************
  **                              Finished SPGLIB                             **
 *******************************************************************************

 Crystal Symmetry Information
       International Symbol:                                               P-43m
       Point Group Symbol:                                                  -43m
       Schoenflies Symbol:                                                  Td^1
       Number of Symmetry Operations:                                         24

 K-point Symmetry Information
       Number of Special K-points:                                             1
                   Wavevector Basis                                       Weight
          1   0.00000   0.00000   0.00000                                      1

       K-point Mesh:                                               1     1     1
                   Wavevector Basis                   Special Points    Rotation
          1   0.00000   0.00000   0.00000              1           1           1

       Atom Transformation Table
          Rot=    1     1    2    3    4    5
          Rot=    2     1    3    5    2    4
          Rot=    3     1    5    4    3    2
          Rot=    4     1    4    2    5    3
          Rot=    5     1    3    2    5    4
          Rot=    6     1    2    4    3    5
          Rot=    7     1    4    5    2    3
          Rot=    8     1    5    3    4    2
          Rot=    9     1    2    4    5    3
          Rot=   10     1    4    3    2    5
          Rot=   11     1    3    5    4    2
          Rot=   12     1    5    2    3    4
          Rot=   13     1    4    2    3    5
          Rot=   14     1    2    5    4    3
          Rot=   15     1    5    3    2    4
          Rot=   16     1    3    4    5    2
          Rot=   17     1    2    5    3    4
          Rot=   18     1    5    4    2    3
          Rot=   19     1    4    3    5    2
          Rot=   20     1    3    2    4    5
          Rot=   21     1    5    2    4    3
          Rot=   22     1    2    3    5    4
          Rot=   23     1    3    4    2    5
          Rot=   24     1    4    5    3    2

 Extrapolation method: initial_guess

 Number of electrons:                                                          8
 Number of occupied orbitals:                                                  4
 Number of molecular orbitals:                                                 8

 Number of orbital functions:                                                  8
 Number of independent orbital functions:                                      8


 SCF WAVEFUNCTION OPTIMIZATION

  Step     Update method      Time    Convergence         Total energy    Change
  ------------------------------------------------------------------------------
 GXTB-EXCHANGE-TRANSFORM stage=FORWARD backend=DENSE fallback=0 iter=1
 GXTB-EXCHANGE-TRANSFORM stage=FORWARD backend=DENSE fallback=0 iter=1
     1 GXTB-Raw    0.10E+01    0.1     0.83009846       -40.5084577517 -4.05E+01
 GXTB-EXCHANGE-TRANSFORM stage=FORWARD backend=DENSE fallback=0 iter=2
 GXTB-EXCHANGE-TRANSFORM stage=FORWARD backend=DENSE fallback=0 iter=2
     2 GXTB-Simple 0.20E+00    0.1     0.03665997       -40.5158494536 -7.39E-03
 GXTB-EXCHANGE-TRANSFORM stage=FORWARD backend=DENSE fallback=0 iter=3
 GXTB-EXCHANGE-TRANSFORM stage=FORWARD backend=DENSE fallback=0 iter=3
     3 GXTB-Simple 0.20E+00    0.1     0.02595767       -40.5196549778 -3.81E-03
 GXTB-EXCHANGE-TRANSFORM stage=FORWARD backend=DENSE fallback=0 iter=4
 GXTB-EXCHANGE-TRANSFORM stage=FORWARD backend=DENSE fallback=0 iter=4
     4 GXTB-FDIIS  0.10E+01    0.1     0.04963484       -40.5233864831 -3.73E-03
 GXTB-EXCHANGE-TRANSFORM stage=FORWARD backend=DENSE fallback=0 iter=5
 GXTB-EXCHANGE-TRANSFORM stage=FORWARD backend=DENSE fallback=0 iter=5
     5 GXTB-FDIIS  0.10E+01    0.1     0.02201593       -40.5238502369 -4.64E-04
 GXTB-EXCHANGE-TRANSFORM stage=FORWARD backend=DENSE fallback=0 iter=6
 GXTB-EXCHANGE-TRANSFORM stage=FORWARD backend=DENSE fallback=0 iter=6
     6 GXTB-FDIIS  0.10E+01    0.1     0.00101656       -40.5238501124  1.25E-07
 GXTB-EXCHANGE-TRANSFORM stage=FORWARD backend=DENSE fallback=0 iter=7
 GXTB-EXCHANGE-TRANSFORM stage=FORWARD backend=DENSE fallback=0 iter=7
     7 GXTB-FDIIS  0.10E+01    0.1     0.00054641       -40.5238504181 -3.06E-07
 GXTB-EXCHANGE-TRANSFORM stage=FORWARD backend=DENSE fallback=0 iter=8
 GXTB-EXCHANGE-TRANSFORM stage=FORWARD backend=DENSE fallback=0 iter=8
     8 GXTB-FDIIS  0.10E+01    0.1     0.00002548       -40.5238504190 -8.57E-10
 GXTB-EXCHANGE-TRANSFORM stage=FORWARD backend=DENSE fallback=0 iter=9
 GXTB-EXCHANGE-TRANSFORM stage=FORWARD backend=DENSE fallback=0 iter=9
     9 GXTB-FDIIS  0.10E+01    0.1     0.00000354       -40.5238504190 -1.37E-11
 GXTB-EXCHANGE-TRANSFORM stage=FORWARD backend=DENSE fallback=0 iter=10
 GXTB-EXCHANGE-TRANSFORM stage=FORWARD backend=DENSE fallback=0 iter=10
    10 GXTB-FDIIS  0.10E+01    0.1     0.00000010       -40.5238504190 -1.42E-14
 GXTB-EXCHANGE-TRANSFORM stage=FORWARD backend=DENSE fallback=0 iter=11
 GXTB-EXCHANGE-TRANSFORM stage=FORWARD backend=DENSE fallback=0 iter=11
    11 GXTB-FDIIS  0.10E+01    0.1     8.4206E-11       -40.5238504190 -7.11E-15

  *** SCF run converged in    11 steps ***


  Core Hamiltonian energy:                                     -3.09226386833143
  Repulsive potential energy:                                   0.37466270247116
  Electrostatic energy:                                         0.04082775452186
  Self-consistent dispersion energy:                           -0.00099727883910
  Non-self consistent dispersion energy:                        0.00003895111946
  Correction for halogen bonding:                               0.00000000000000

  Total energy:                                               -40.52385041897622


 MULLIKEN POPULATION ANALYSIS

  # Atom   Element   Kind        Atomic population                    Net charge
       1     C          1                 4.379449                     -0.379449
       2     H          2                 0.905138                      0.094862
       3     H          2                 0.905138                      0.094862
       4     H          2                 0.905138                      0.094862
       5     H          2                 0.905138                      0.094862
 # Total charge                           8.000000                     -0.000000

 GXTB-EXCHANGE-TRANSFORM stage=FORWARD backend=DENSE fallback=0 iter=11

 ENERGY| Total FORCE_EVAL ( QS ) energy [hartree]            -40.523850418976224

 *******************************************************************************
  **                     Special K-Point Generation by SPGLIB                 **
 *******************************************************************************
 *******************************************************************************
  **                              Finished SPGLIB                             **
 *******************************************************************************

 Crystal Symmetry Information
       International Symbol:                                               P-42m
       Point Group Symbol:                                                  -42m
       Schoenflies Symbol:                                                 D2d^1
       Number of Symmetry Operations:                                          8

 K-point Symmetry Information
       Number of Special K-points:                                             1
                   Wavevector Basis                                       Weight
          1   0.00000   0.00000   0.00000                                      1

       K-point Mesh:                                               1     1     1
                   Wavevector Basis                   Special Points    Rotation
          1   0.00000   0.00000   0.00000              1           1           1

       Atom Transformation Table
          Rot=    1     1    2    3    4    5
          Rot=    2     1    4    5    3    2
          Rot=    3     1    3    2    5    4
          Rot=    4     1    5    4    2    3
          Rot=    5     1    5    4    3    2
          Rot=    6     1    3    2    4    5
          Rot=    7     1    4    5    2    3
          Rot=    8     1    2    3    5    4

 -------------------------------------------------------------------------------
 ----                             MULTIGRID INFO                            ----
 -------------------------------------------------------------------------------
 total grid count     :           420              cutoff [a.u.]            1.00

 PW_GRID| Information for grid number                                          2
 PW_GRID| Cutoff [a.u.]                                                      1.0
 PW_GRID| spherical cutoff:                                                   NO
 PW_GRID|   Bounds   1             -4       3                Points:           8
 PW_GRID|   Bounds   2             -4       3                Points:           8
 PW_GRID|   Bounds   3             -4       3                Points:           8
 PW_GRID| Volume element (a.u.^3)   6.748         Volume (a.u.^3)      3455.1702
 PW_GRID| Grid span                                                    FULLSPACE

 POISSON| Solver                                                        PERIODIC
 POISSON| Periodicity                                                        XYZ

 RS_GRID| Information for grid number                                          2
 RS_GRID|   Bounds   1             -4       3                Points:           8
 RS_GRID|   Bounds   2             -4       3                Points:           8
 RS_GRID|   Bounds   3             -4       3                Points:           8

 Extrapolation method: initial_guess

 Number of electrons:                                                          8
 Number of occupied orbitals:                                                  4
 Number of molecular orbitals:                                                 8

 Number of orbital functions:                                                  8
 Number of independent orbital functions:                                      8


 SCF WAVEFUNCTION OPTIMIZATION

  Step     Update method      Time    Convergence         Total energy    Change
  ------------------------------------------------------------------------------
 GXTB-EXCHANGE-TRANSFORM stage=FORWARD backend=DENSE fallback=0 iter=1
 GXTB-EXCHANGE-TRANSFORM stage=FORWARD backend=DENSE fallback=0 iter=1
     1 GXTB-Raw    0.10E+01    0.1     0.83009893       -40.5084561800 -4.05E+01
 GXTB-EXCHANGE-TRANSFORM stage=FORWARD backend=DENSE fallback=0 iter=2
 GXTB-EXCHANGE-TRANSFORM stage=FORWARD backend=DENSE fallback=0 iter=2
     2 GXTB-Simple 0.20E+00    0.1     0.03665996       -40.5158478553 -7.39E-03
 GXTB-EXCHANGE-TRANSFORM stage=FORWARD backend=DENSE fallback=0 iter=3
 GXTB-EXCHANGE-TRANSFORM stage=FORWARD backend=DENSE fallback=0 iter=3
     3 GXTB-Simple 0.20E+00    0.1     0.02595768       -40.5196533683 -3.81E-03
 GXTB-EXCHANGE-TRANSFORM stage=FORWARD backend=DENSE fallback=0 iter=4
 GXTB-EXCHANGE-TRANSFORM stage=FORWARD backend=DENSE fallback=0 iter=4
     4 GXTB-FDIIS  0.10E+01    0.1     0.04963518       -40.5233848742 -3.73E-03
 GXTB-EXCHANGE-TRANSFORM stage=FORWARD backend=DENSE fallback=0 iter=5
 GXTB-EXCHANGE-TRANSFORM stage=FORWARD backend=DENSE fallback=0 iter=5
     5 GXTB-FDIIS  0.10E+01    0.1     0.02201586       -40.5238486212 -4.64E-04
 GXTB-EXCHANGE-TRANSFORM stage=FORWARD backend=DENSE fallback=0 iter=6
 GXTB-EXCHANGE-TRANSFORM stage=FORWARD backend=DENSE fallback=0 iter=6
     6 GXTB-FDIIS  0.10E+01    0.1     0.00101652       -40.5238484967  1.25E-07
 GXTB-EXCHANGE-TRANSFORM stage=FORWARD backend=DENSE fallback=0 iter=7
 GXTB-EXCHANGE-TRANSFORM stage=FORWARD backend=DENSE fallback=0 iter=7
     7 GXTB-FDIIS  0.10E+01    0.1     0.00054638       -40.5238488024 -3.06E-07
 GXTB-EXCHANGE-TRANSFORM stage=FORWARD backend=DENSE fallback=0 iter=8
 GXTB-EXCHANGE-TRANSFORM stage=FORWARD backend=DENSE fallback=0 iter=8
     8 GXTB-FDIIS  0.10E+01    0.1     0.00002548       -40.5238488033 -8.57E-10
 GXTB-EXCHANGE-TRANSFORM stage=FORWARD backend=DENSE fallback=0 iter=9
 GXTB-EXCHANGE-TRANSFORM stage=FORWARD backend=DENSE fallback=0 iter=9
     9 GXTB-FDIIS  0.10E+01    0.1     0.00000351       -40.5238488033 -1.37E-11
 GXTB-EXCHANGE-TRANSFORM stage=FORWARD backend=DENSE fallback=0 iter=10
 GXTB-EXCHANGE-TRANSFORM stage=FORWARD backend=DENSE fallback=0 iter=10
    10 GXTB-FDIIS  0.10E+01    0.1     0.00000013       -40.5238488033 -2.84E-14
 GXTB-EXCHANGE-TRANSFORM stage=FORWARD backend=DENSE fallback=0 iter=11
 GXTB-EXCHANGE-TRANSFORM stage=FORWARD backend=DENSE fallback=0 iter=11
    11 GXTB-FDIIS  0.10E+01    0.1     3.4551E-11       -40.5238488033  0.00E+00

  *** SCF run converged in    11 steps ***


  Core Hamiltonian energy:                                     -3.09226206163230
  Repulsive potential energy:                                   0.37465869121843
  Electrostatic energy:                                         0.04082718594003
  Self-consistent dispersion energy:                           -0.00099728562750
  Non-self consistent dispersion energy:                        0.00003895138934
  Correction for halogen bonding:                               0.00000000000000

  Total energy:                                               -40.52384880331640


 MULLIKEN POPULATION ANALYSIS

  # Atom   Element   Kind        Atomic population                    Net charge
       1     C          1                 4.379447                     -0.379447
       2     H          2                 0.905138                      0.094862
       3     H          2                 0.905138                      0.094862
       4     H          2                 0.905138                      0.094862
       5     H          2                 0.905138                      0.094862
 # Total charge                           8.000000                     -0.000000

 GXTB-EXCHANGE-TRANSFORM stage=FORWARD backend=DENSE fallback=0 iter=11

 ENERGY| Total FORCE_EVAL ( QS ) energy [hartree]            -40.523848803316405

 *******************************************************************************
  **                     Special K-Point Generation by SPGLIB                 **
 *******************************************************************************
 *******************************************************************************
  **                              Finished SPGLIB                             **
 *******************************************************************************

 Crystal Symmetry Information
       International Symbol:                                               P-42m
       Point Group Symbol:                                                  -42m
       Schoenflies Symbol:                                                 D2d^1
       Number of Symmetry Operations:                                          8

 K-point Symmetry Information
       Number of Special K-points:                                             1
                   Wavevector Basis                                       Weight
          1   0.00000   0.00000   0.00000                                      1

       K-point Mesh:                                               1     1     1
                   Wavevector Basis                   Special Points    Rotation
          1   0.00000   0.00000   0.00000              1           1           1

       Atom Transformation Table
          Rot=    1     1    2    3    4    5
          Rot=    2     1    4    5    3    2
          Rot=    3     1    3    2    5    4
          Rot=    4     1    5    4    2    3
          Rot=    5     1    5    4    3    2
          Rot=    6     1    3    2    4    5
          Rot=    7     1    4    5    2    3
          Rot=    8     1    2    3    5    4

 -------------------------------------------------------------------------------
 ----                             MULTIGRID INFO                            ----
 -------------------------------------------------------------------------------
 total grid count     :           420              cutoff [a.u.]            1.00

 PW_GRID| Information for grid number                                          3
 PW_GRID| Cutoff [a.u.]                                                      1.0
 PW_GRID| spherical cutoff:                                                   NO
 PW_GRID|   Bounds   1             -4       3                Points:           8
 PW_GRID|   Bounds   2             -4       3                Points:           8
 PW_GRID|   Bounds   3             -4       3                Points:           8
 PW_GRID| Volume element (a.u.^3)   6.748         Volume (a.u.^3)      3455.1245
 PW_GRID| Grid span                                                    FULLSPACE

 POISSON| Solver                                                        PERIODIC
 POISSON| Periodicity                                                        XYZ

 RS_GRID| Information for grid number                                          3
 RS_GRID|   Bounds   1             -4       3                Points:           8
 RS_GRID|   Bounds   2             -4       3                Points:           8
 RS_GRID|   Bounds   3             -4       3                Points:           8

 Extrapolation method: initial_guess

 Number of electrons:                                                          8
 Number of occupied orbitals:                                                  4
 Number of molecular orbitals:                                                 8

 Number of orbital functions:                                                  8
 Number of independent orbital functions:                                      8


 SCF WAVEFUNCTION OPTIMIZATION

  Step     Update method      Time    Convergence         Total energy    Change
  ------------------------------------------------------------------------------
 GXTB-EXCHANGE-TRANSFORM stage=FORWARD backend=DENSE fallback=0 iter=1
 GXTB-EXCHANGE-TRANSFORM stage=FORWARD backend=DENSE fallback=0 iter=1
     1 GXTB-Raw    0.10E+01    0.1     0.83010169       -40.5084593233 -4.05E+01
 GXTB-EXCHANGE-TRANSFORM stage=FORWARD backend=DENSE fallback=0 iter=2
 GXTB-EXCHANGE-TRANSFORM stage=FORWARD backend=DENSE fallback=0 iter=2
     2 GXTB-Simple 0.20E+00    0.1     0.03666012       -40.5158510519 -7.39E-03
 GXTB-EXCHANGE-TRANSFORM stage=FORWARD backend=DENSE fallback=0 iter=3
 GXTB-EXCHANGE-TRANSFORM stage=FORWARD backend=DENSE fallback=0 iter=3
     3 GXTB-Simple 0.20E+00    0.1     0.02595778       -40.5196565874 -3.81E-03
 GXTB-EXCHANGE-TRANSFORM stage=FORWARD backend=DENSE fallback=0 iter=4
 GXTB-EXCHANGE-TRANSFORM stage=FORWARD backend=DENSE fallback=0 iter=4
     4 GXTB-FDIIS  0.10E+01    0.1     0.04963500       -40.5233880920 -3.73E-03
 GXTB-EXCHANGE-TRANSFORM stage=FORWARD backend=DENSE fallback=0 iter=5
 GXTB-EXCHANGE-TRANSFORM stage=FORWARD backend=DENSE fallback=0 iter=5
     5 GXTB-FDIIS  0.10E+01    0.1     0.02201599       -40.5238518525 -4.64E-04
 GXTB-EXCHANGE-TRANSFORM stage=FORWARD backend=DENSE fallback=0 iter=6
 GXTB-EXCHANGE-TRANSFORM stage=FORWARD backend=DENSE fallback=0 iter=6
     6 GXTB-FDIIS  0.10E+01    0.1     0.00101661       -40.5238517280  1.25E-07
 GXTB-EXCHANGE-TRANSFORM stage=FORWARD backend=DENSE fallback=0 iter=7
 GXTB-EXCHANGE-TRANSFORM stage=FORWARD backend=DENSE fallback=0 iter=7
     7 GXTB-FDIIS  0.10E+01    0.1     0.00054644       -40.5238520337 -3.06E-07
 GXTB-EXCHANGE-TRANSFORM stage=FORWARD backend=DENSE fallback=0 iter=8
 GXTB-EXCHANGE-TRANSFORM stage=FORWARD backend=DENSE fallback=0 iter=8
     8 GXTB-FDIIS  0.10E+01    0.1     0.00002548       -40.5238520346 -8.57E-10
 GXTB-EXCHANGE-TRANSFORM stage=FORWARD backend=DENSE fallback=0 iter=9
 GXTB-EXCHANGE-TRANSFORM stage=FORWARD backend=DENSE fallback=0 iter=9
     9 GXTB-FDIIS  0.10E+01    0.1     0.00000359       -40.5238520346 -1.37E-11
 GXTB-EXCHANGE-TRANSFORM stage=FORWARD backend=DENSE fallback=0 iter=10
 GXTB-EXCHANGE-TRANSFORM stage=FORWARD backend=DENSE fallback=0 iter=10
    10 GXTB-FDIIS  0.10E+01    0.1     0.00000005       -40.5238520346  7.11E-15
 GXTB-EXCHANGE-TRANSFORM stage=FORWARD backend=DENSE fallback=0 iter=11
 GXTB-EXCHANGE-TRANSFORM stage=FORWARD backend=DENSE fallback=0 iter=11
    11 GXTB-FDIIS  0.10E+01    0.1     8.9774E-11       -40.5238520346 -1.42E-14

  *** SCF run converged in    11 steps ***


  Core Hamiltonian energy:                                     -3.09226567505043
  Repulsive potential energy:                                   0.37466671374660
  Electrostatic energy:                                         0.04082832311607
  Self-consistent dispersion energy:                           -0.00099727205102
  Non-self consistent dispersion energy:                        0.00003895084958
  Correction for halogen bonding:                               0.00000000000000

  Total energy:                                               -40.52385203460946


 MULLIKEN POPULATION ANALYSIS

  # Atom   Element   Kind        Atomic population                    Net charge
       1     C          1                 4.379451                     -0.379451
       2     H          2                 0.905137                      0.094863
       3     H          2                 0.905137                      0.094863
       4     H          2                 0.905137                      0.094863
       5     H          2                 0.905137                      0.094863
 # Total charge                           8.000000                     -0.000000

 GXTB-EXCHANGE-TRANSFORM stage=FORWARD backend=DENSE fallback=0 iter=11

 ENERGY| Total FORCE_EVAL ( QS ) energy [hartree]            -40.523852034609462

 *******************************************************************************
  **                     Special K-Point Generation by SPGLIB                 **
 *******************************************************************************
 *******************************************************************************
  **                              Finished SPGLIB                             **
 *******************************************************************************

 Crystal Symmetry Information
       International Symbol:                                                Cmm2
       Point Group Symbol:                                                   mm2
       Schoenflies Symbol:                                                C2v^11
       Number of Symmetry Operations:                                          4

 K-point Symmetry Information
       Number of Special K-points:                                             1
                   Wavevector Basis                                       Weight
          1   0.00000   0.00000   0.00000                                      1

       K-point Mesh:                                               1     1     1
                   Wavevector Basis                   Special Points    Rotation
          1   0.00000   0.00000   0.00000              1           1           1

       Atom Transformation Table
          Rot=    1     1    2    3    4    5
          Rot=    2     1    5    4    3    2
          Rot=    3     1    2    4    3    5
          Rot=    4     1    5    3    4    2

 -------------------------------------------------------------------------------
 ----                             MULTIGRID INFO                            ----
 -------------------------------------------------------------------------------
 total grid count     :           420              cutoff [a.u.]            1.00

 PW_GRID| Information for grid number                                          4
 PW_GRID| Cutoff [a.u.]                                                      1.0
 PW_GRID| spherical cutoff:                                                   NO
 PW_GRID|   Bounds   1             -4       3                Points:           8
 PW_GRID|   Bounds   2             -4       3                Points:           8
 PW_GRID|   Bounds   3             -4       3                Points:           8
 PW_GRID| Volume element (a.u.^3)   6.748         Volume (a.u.^3)      3455.1473
 PW_GRID| Grid span                                                    FULLSPACE

 POISSON| Solver                                                        PERIODIC
 POISSON| Periodicity                                                        XYZ

 RS_GRID| Information for grid number                                          4
 RS_GRID|   Bounds   1             -4       3                Points:           8
 RS_GRID|   Bounds   2             -4       3                Points:           8
 RS_GRID|   Bounds   3             -4       3                Points:           8

 Extrapolation method: initial_guess

 Number of electrons:                                                          8
 Number of occupied orbitals:                                                  4
 Number of molecular orbitals:                                                 8

 Number of orbital functions:                                                  8
 Number of independent orbital functions:                                      8


 SCF WAVEFUNCTION OPTIMIZATION

  Step     Update method      Time    Convergence         Total energy    Change
  ------------------------------------------------------------------------------
 GXTB-EXCHANGE-TRANSFORM stage=FORWARD backend=DENSE fallback=0 iter=1
 GXTB-EXCHANGE-TRANSFORM stage=FORWARD backend=DENSE fallback=0 iter=1
     1 GXTB-Raw    0.10E+01    0.1     0.83009846       -40.5084577517 -4.05E+01
 GXTB-EXCHANGE-TRANSFORM stage=FORWARD backend=DENSE fallback=0 iter=2
 GXTB-EXCHANGE-TRANSFORM stage=FORWARD backend=DENSE fallback=0 iter=2
     2 GXTB-Simple 0.20E+00    0.1     0.03665997       -40.5158494536 -7.39E-03
 GXTB-EXCHANGE-TRANSFORM stage=FORWARD backend=DENSE fallback=0 iter=3
 GXTB-EXCHANGE-TRANSFORM stage=FORWARD backend=DENSE fallback=0 iter=3
     3 GXTB-Simple 0.20E+00    0.1     0.02595767       -40.5196549778 -3.81E-03
 GXTB-EXCHANGE-TRANSFORM stage=FORWARD backend=DENSE fallback=0 iter=4
 GXTB-EXCHANGE-TRANSFORM stage=FORWARD backend=DENSE fallback=0 iter=4
     4 GXTB-FDIIS  0.10E+01    0.1     0.04963484       -40.5233864831 -3.73E-03
 GXTB-EXCHANGE-TRANSFORM stage=FORWARD backend=DENSE fallback=0 iter=5
 GXTB-EXCHANGE-TRANSFORM stage=FORWARD backend=DENSE fallback=0 iter=5
     5 GXTB-FDIIS  0.10E+01    0.1     0.02201593       -40.5238502369 -4.64E-04
 GXTB-EXCHANGE-TRANSFORM stage=FORWARD backend=DENSE fallback=0 iter=6
 GXTB-EXCHANGE-TRANSFORM stage=FORWARD backend=DENSE fallback=0 iter=6
     6 GXTB-FDIIS  0.10E+01    0.1     0.00101656       -40.5238501123  1.25E-07
 GXTB-EXCHANGE-TRANSFORM stage=FORWARD backend=DENSE fallback=0 iter=7
 GXTB-EXCHANGE-TRANSFORM stage=FORWARD backend=DENSE fallback=0 iter=7
     7 GXTB-FDIIS  0.10E+01    0.1     0.00054641       -40.5238504181 -3.06E-07
 GXTB-EXCHANGE-TRANSFORM stage=FORWARD backend=DENSE fallback=0 iter=8
 GXTB-EXCHANGE-TRANSFORM stage=FORWARD backend=DENSE fallback=0 iter=8
     8 GXTB-FDIIS  0.10E+01    0.1     0.00002548       -40.5238504189 -8.57E-10
 GXTB-EXCHANGE-TRANSFORM stage=FORWARD backend=DENSE fallback=0 iter=9
 GXTB-EXCHANGE-TRANSFORM stage=FORWARD backend=DENSE fallback=0 iter=9
     9 GXTB-FDIIS  0.10E+01    0.1     0.00000354       -40.5238504190 -1.37E-11
 GXTB-EXCHANGE-TRANSFORM stage=FORWARD backend=DENSE fallback=0 iter=10
 GXTB-EXCHANGE-TRANSFORM stage=FORWARD backend=DENSE fallback=0 iter=10
    10 GXTB-FDIIS  0.10E+01    0.1     0.00000011       -40.5238504190 -2.13E-14
 GXTB-EXCHANGE-TRANSFORM stage=FORWARD backend=DENSE fallback=0 iter=11
 GXTB-EXCHANGE-TRANSFORM stage=FORWARD backend=DENSE fallback=0 iter=11
    11 GXTB-FDIIS  0.10E+01    0.1     1.0246E-11       -40.5238504190  0.00E+00

  *** SCF run converged in    11 steps ***


  Core Hamiltonian energy:                                     -3.09226386834630
  Repulsive potential energy:                                   0.37466270248209
  Electrostatic energy:                                         0.04082775452645
  Self-consistent dispersion energy:                           -0.00099727883934
  Non-self consistent dispersion energy:                        0.00003895111946
  Correction for halogen bonding:                               0.00000000000000

  Total energy:                                               -40.52385041896203


 MULLIKEN POPULATION ANALYSIS

  # Atom   Element   Kind        Atomic population                    Net charge
       1     C          1                 4.379449                     -0.379449
       2     H          2                 0.905138                      0.094862
       3     H          2                 0.905137                      0.094863
       4     H          2                 0.905137                      0.094863
       5     H          2                 0.905138                      0.094862
 # Total charge                           8.000000                      0.000000

 GXTB-EXCHANGE-TRANSFORM stage=FORWARD backend=DENSE fallback=0 iter=11

 ENERGY| Total FORCE_EVAL ( QS ) energy [hartree]            -40.523850418962034

 *******************************************************************************
  **                     Special K-Point Generation by SPGLIB                 **
 *******************************************************************************
 *******************************************************************************
  **                              Finished SPGLIB                             **
 *******************************************************************************

 Crystal Symmetry Information
       International Symbol:                                                Cmm2
       Point Group Symbol:                                                   mm2
       Schoenflies Symbol:                                                C2v^11
       Number of Symmetry Operations:                                          4

 K-point Symmetry Information
       Number of Special K-points:                                             1
                   Wavevector Basis                                       Weight
          1   0.00000   0.00000   0.00000                                      1

       K-point Mesh:                                               1     1     1
                   Wavevector Basis                   Special Points    Rotation
          1   0.00000   0.00000   0.00000              1           1           1

       Atom Transformation Table
          Rot=    1     1    2    3    4    5
          Rot=    2     1    5    4    3    2
          Rot=    3     1    5    3    4    2
          Rot=    4     1    2    4    3    5

 -------------------------------------------------------------------------------
 ----                             MULTIGRID INFO                            ----
 -------------------------------------------------------------------------------
 total grid count     :           420              cutoff [a.u.]            1.00

 PW_GRID| Information for grid number                                          5
 PW_GRID| Cutoff [a.u.]                                                      1.0
 PW_GRID| spherical cutoff:                                                   NO
 PW_GRID|   Bounds   1             -4       3                Points:           8
 PW_GRID|   Bounds   2             -4       3                Points:           8
 PW_GRID|   Bounds   3             -4       3                Points:           8
 PW_GRID| Volume element (a.u.^3)   6.748         Volume (a.u.^3)      3455.1473
 PW_GRID| Grid span                                                    FULLSPACE

 POISSON| Solver                                                        PERIODIC
 POISSON| Periodicity                                                        XYZ

 RS_GRID| Information for grid number                                          5
 RS_GRID|   Bounds   1             -4       3                Points:           8
 RS_GRID|   Bounds   2             -4       3                Points:           8
 RS_GRID|   Bounds   3             -4       3                Points:           8

 Extrapolation method: initial_guess

 Number of electrons:                                                          8
 Number of occupied orbitals:                                                  4
 Number of molecular orbitals:                                                 8

 Number of orbital functions:                                                  8
 Number of independent orbital functions:                                      8


 SCF WAVEFUNCTION OPTIMIZATION

  Step     Update method      Time    Convergence         Total energy    Change
  ------------------------------------------------------------------------------
 GXTB-EXCHANGE-TRANSFORM stage=FORWARD backend=DENSE fallback=0 iter=1
 GXTB-EXCHANGE-TRANSFORM stage=FORWARD backend=DENSE fallback=0 iter=1
     1 GXTB-Raw    0.10E+01    0.1     0.83009846       -40.5084577517 -4.05E+01
 GXTB-EXCHANGE-TRANSFORM stage=FORWARD backend=DENSE fallback=0 iter=2
 GXTB-EXCHANGE-TRANSFORM stage=FORWARD backend=DENSE fallback=0 iter=2
     2 GXTB-Simple 0.20E+00    0.1     0.03665997       -40.5158494536 -7.39E-03
 GXTB-EXCHANGE-TRANSFORM stage=FORWARD backend=DENSE fallback=0 iter=3
 GXTB-EXCHANGE-TRANSFORM stage=FORWARD backend=DENSE fallback=0 iter=3
     3 GXTB-Simple 0.20E+00    0.1     0.02595767       -40.5196549778 -3.81E-03
 GXTB-EXCHANGE-TRANSFORM stage=FORWARD backend=DENSE fallback=0 iter=4
 GXTB-EXCHANGE-TRANSFORM stage=FORWARD backend=DENSE fallback=0 iter=4
     4 GXTB-FDIIS  0.10E+01    0.1     0.04963484       -40.5233864831 -3.73E-03
 GXTB-EXCHANGE-TRANSFORM stage=FORWARD backend=DENSE fallback=0 iter=5
 GXTB-EXCHANGE-TRANSFORM stage=FORWARD backend=DENSE fallback=0 iter=5
     5 GXTB-FDIIS  0.10E+01    0.1     0.02201593       -40.5238502369 -4.64E-04
 GXTB-EXCHANGE-TRANSFORM stage=FORWARD backend=DENSE fallback=0 iter=6
 GXTB-EXCHANGE-TRANSFORM stage=FORWARD backend=DENSE fallback=0 iter=6
     6 GXTB-FDIIS  0.10E+01    0.1     0.00101656       -40.5238501123  1.25E-07
 GXTB-EXCHANGE-TRANSFORM stage=FORWARD backend=DENSE fallback=0 iter=7
 GXTB-EXCHANGE-TRANSFORM stage=FORWARD backend=DENSE fallback=0 iter=7
     7 GXTB-FDIIS  0.10E+01    0.1     0.00054641       -40.5238504181 -3.06E-07
 GXTB-EXCHANGE-TRANSFORM stage=FORWARD backend=DENSE fallback=0 iter=8
 GXTB-EXCHANGE-TRANSFORM stage=FORWARD backend=DENSE fallback=0 iter=8
     8 GXTB-FDIIS  0.10E+01    0.1     0.00002548       -40.5238504189 -8.57E-10
 GXTB-EXCHANGE-TRANSFORM stage=FORWARD backend=DENSE fallback=0 iter=9
 GXTB-EXCHANGE-TRANSFORM stage=FORWARD backend=DENSE fallback=0 iter=9
     9 GXTB-FDIIS  0.10E+01    0.1     0.00000358       -40.5238504190 -1.37E-11
 GXTB-EXCHANGE-TRANSFORM stage=FORWARD backend=DENSE fallback=0 iter=10
 GXTB-EXCHANGE-TRANSFORM stage=FORWARD backend=DENSE fallback=0 iter=10
    10 GXTB-FDIIS  0.10E+01    0.1     0.00000007       -40.5238504190  0.00E+00
 GXTB-EXCHANGE-TRANSFORM stage=FORWARD backend=DENSE fallback=0 iter=11
 GXTB-EXCHANGE-TRANSFORM stage=FORWARD backend=DENSE fallback=0 iter=11
    11 GXTB-FDIIS  0.10E+01    0.1     1.2767E-10       -40.5238504190 -7.11E-15
 GXTB-EXCHANGE-TRANSFORM stage=FORWARD backend=DENSE fallback=0 iter=12
 GXTB-EXCHANGE-TRANSFORM stage=FORWARD backend=DENSE fallback=0 iter=12
    12 GXTB-FDIIS  0.10E+01    0.1     1.8378E-10       -40.5238504190  0.00E+00
 GXTB-EXCHANGE-TRANSFORM stage=FORWARD backend=DENSE fallback=0 iter=13
 GXTB-EXCHANGE-TRANSFORM stage=FORWARD backend=DENSE fallback=0 iter=13
    13 GXTB-FDIIS  0.10E+01    0.1     9.6589E-15       -40.5238504190  0.00E+00

  *** SCF run converged in    13 steps ***


  Core Hamiltonian energy:                                     -3.09226386834290
  Repulsive potential energy:                                   0.37466270248216
  Electrostatic energy:                                         0.04082775452481
  Self-consistent dispersion energy:                           -0.00099727883929
  Non-self consistent dispersion energy:                        0.00003895111946
  Correction for halogen bonding:                               0.00000000000000

  Total energy:                                               -40.52385041896203


 MULLIKEN POPULATION ANALYSIS

  # Atom   Element   Kind        Atomic population                    Net charge
       1     C          1                 4.379449                     -0.379449
       2     H          2                 0.905137                      0.094863
       3     H          2                 0.905138                      0.094862
       4     H          2                 0.905138                      0.094862
       5     H          2                 0.905137                      0.094863
 # Total charge                           8.000000                      0.000000

 GXTB-EXCHANGE-TRANSFORM stage=FORWARD backend=DENSE fallback=0 iter=13

 ENERGY| Total FORCE_EVAL ( QS ) energy [hartree]            -40.523850418962034

 *******************************************************************************
  **                     Special K-Point Generation by SPGLIB                 **
 *******************************************************************************
 *******************************************************************************
  **                              Finished SPGLIB                             **
 *******************************************************************************

 Crystal Symmetry Information
       International Symbol:                                                Cmm2
       Point Group Symbol:                                                   mm2
       Schoenflies Symbol:                                                C2v^11
       Number of Symmetry Operations:                                          4

 K-point Symmetry Information
       Number of Special K-points:                                             1
                   Wavevector Basis                                       Weight
          1   0.00000   0.00000   0.00000                                      1

       K-point Mesh:                                               1     1     1
                   Wavevector Basis                   Special Points    Rotation
          1   0.00000   0.00000   0.00000              1           1           1

       Atom Transformation Table
          Rot=    1     1    2    3    4    5
          Rot=    2     1    4    5    2    3
          Rot=    3     1    2    5    4    3
          Rot=    4     1    4    3    2    5

 -------------------------------------------------------------------------------
 ----                             MULTIGRID INFO                            ----
 -------------------------------------------------------------------------------
 total grid count     :           420              cutoff [a.u.]            1.00

 PW_GRID| Information for grid number                                          6
 PW_GRID| Cutoff [a.u.]                                                      1.0
 PW_GRID| spherical cutoff:                                                   NO
 PW_GRID|   Bounds   1             -4       3                Points:           8
 PW_GRID|   Bounds   2             -4       3                Points:           8
 PW_GRID|   Bounds   3             -4       3                Points:           8
 PW_GRID| Volume element (a.u.^3)   6.748         Volume (a.u.^3)      3455.1473
 PW_GRID| Grid span                                                    FULLSPACE

 POISSON| Solver                                                        PERIODIC
 POISSON| Periodicity                                                        XYZ

 RS_GRID| Information for grid number                                          6
 RS_GRID|   Bounds   1             -4       3                Points:           8
 RS_GRID|   Bounds   2             -4       3                Points:           8
 RS_GRID|   Bounds   3             -4       3                Points:           8

 Extrapolation method: initial_guess

 Number of electrons:                                                          8
 Number of occupied orbitals:                                                  4
 Number of molecular orbitals:                                                 8

 Number of orbital functions:                                                  8
 Number of independent orbital functions:                                      8


 SCF WAVEFUNCTION OPTIMIZATION

  Step     Update method      Time    Convergence         Total energy    Change
  ------------------------------------------------------------------------------
 GXTB-EXCHANGE-TRANSFORM stage=FORWARD backend=DENSE fallback=0 iter=1
 GXTB-EXCHANGE-TRANSFORM stage=FORWARD backend=DENSE fallback=0 iter=1
     1 GXTB-Raw    0.10E+01    0.1     0.83009846       -40.5084577517 -4.05E+01
 GXTB-EXCHANGE-TRANSFORM stage=FORWARD backend=DENSE fallback=0 iter=2
 GXTB-EXCHANGE-TRANSFORM stage=FORWARD backend=DENSE fallback=0 iter=2
     2 GXTB-Simple 0.20E+00    0.1     0.03665997       -40.5158494536 -7.39E-03
 GXTB-EXCHANGE-TRANSFORM stage=FORWARD backend=DENSE fallback=0 iter=3
 GXTB-EXCHANGE-TRANSFORM stage=FORWARD backend=DENSE fallback=0 iter=3
     3 GXTB-Simple 0.20E+00    0.1     0.02595767       -40.5196549778 -3.81E-03
 GXTB-EXCHANGE-TRANSFORM stage=FORWARD backend=DENSE fallback=0 iter=4
 GXTB-EXCHANGE-TRANSFORM stage=FORWARD backend=DENSE fallback=0 iter=4
     4 GXTB-FDIIS  0.10E+01    0.1     0.04963484       -40.5233864831 -3.73E-03
 GXTB-EXCHANGE-TRANSFORM stage=FORWARD backend=DENSE fallback=0 iter=5
 GXTB-EXCHANGE-TRANSFORM stage=FORWARD backend=DENSE fallback=0 iter=5
     5 GXTB-FDIIS  0.10E+01    0.1     0.02201593       -40.5238502369 -4.64E-04
 GXTB-EXCHANGE-TRANSFORM stage=FORWARD backend=DENSE fallback=0 iter=6
 GXTB-EXCHANGE-TRANSFORM stage=FORWARD backend=DENSE fallback=0 iter=6
     6 GXTB-FDIIS  0.10E+01    0.1     0.00101656       -40.5238501123  1.25E-07
 GXTB-EXCHANGE-TRANSFORM stage=FORWARD backend=DENSE fallback=0 iter=7
 GXTB-EXCHANGE-TRANSFORM stage=FORWARD backend=DENSE fallback=0 iter=7
     7 GXTB-FDIIS  0.10E+01    0.1     0.00054641       -40.5238504181 -3.06E-07
 GXTB-EXCHANGE-TRANSFORM stage=FORWARD backend=DENSE fallback=0 iter=8
 GXTB-EXCHANGE-TRANSFORM stage=FORWARD backend=DENSE fallback=0 iter=8
     8 GXTB-FDIIS  0.10E+01    0.1     0.00002548       -40.5238504189 -8.57E-10
 GXTB-EXCHANGE-TRANSFORM stage=FORWARD backend=DENSE fallback=0 iter=9
 GXTB-EXCHANGE-TRANSFORM stage=FORWARD backend=DENSE fallback=0 iter=9
     9 GXTB-FDIIS  0.10E+01    0.1     0.00000355       -40.5238504190 -1.37E-11
 GXTB-EXCHANGE-TRANSFORM stage=FORWARD backend=DENSE fallback=0 iter=10
 GXTB-EXCHANGE-TRANSFORM stage=FORWARD backend=DENSE fallback=0 iter=10
    10 GXTB-FDIIS  0.10E+01    0.1     0.00000010       -40.5238504190 -2.13E-14
 GXTB-EXCHANGE-TRANSFORM stage=FORWARD backend=DENSE fallback=0 iter=11
 GXTB-EXCHANGE-TRANSFORM stage=FORWARD backend=DENSE fallback=0 iter=11
    11 GXTB-FDIIS  0.10E+01    0.1     1.9394E-10       -40.5238504190  7.11E-15
 GXTB-EXCHANGE-TRANSFORM stage=FORWARD backend=DENSE fallback=0 iter=12
 GXTB-EXCHANGE-TRANSFORM stage=FORWARD backend=DENSE fallback=0 iter=12
    12 GXTB-FDIIS  0.10E+01    0.1     4.3795E-11       -40.5238504190 -7.11E-15

  *** SCF run converged in    12 steps ***


  Core Hamiltonian energy:                                     -3.09226386834289
  Repulsive potential energy:                                   0.37466270248216
  Electrostatic energy:                                         0.04082775452480
  Self-consistent dispersion energy:                           -0.00099727883929
  Non-self consistent dispersion energy:                        0.00003895111946
  Correction for halogen bonding:                               0.00000000000000

  Total energy:                                               -40.52385041896203


 MULLIKEN POPULATION ANALYSIS

  # Atom   Element   Kind        Atomic population                    Net charge
       1     C          1                 4.379449                     -0.379449
       2     H          2                 0.905138                      0.094862
       3     H          2                 0.905137                      0.094863
       4     H          2                 0.905138                      0.094862
       5     H          2                 0.905137                      0.094863
 # Total charge                           8.000000                      0.000000

 GXTB-EXCHANGE-TRANSFORM stage=FORWARD backend=DENSE fallback=0 iter=12

 ENERGY| Total FORCE_EVAL ( QS ) energy [hartree]            -40.523850418962034

 *******************************************************************************
  **                     Special K-Point Generation by SPGLIB                 **
 *******************************************************************************
 *******************************************************************************
  **                              Finished SPGLIB                             **
 *******************************************************************************

 Crystal Symmetry Information
       International Symbol:                                                Cmm2
       Point Group Symbol:                                                   mm2
       Schoenflies Symbol:                                                C2v^11
       Number of Symmetry Operations:                                          4

 K-point Symmetry Information
       Number of Special K-points:                                             1
                   Wavevector Basis                                       Weight
          1   0.00000   0.00000   0.00000                                      1

       K-point Mesh:                                               1     1     1
                   Wavevector Basis                   Special Points    Rotation
          1   0.00000   0.00000   0.00000              1           1           1

       Atom Transformation Table
          Rot=    1     1    2    3    4    5
          Rot=    2     1    4    5    2    3
          Rot=    3     1    4    3    2    5
          Rot=    4     1    2    5    4    3

 -------------------------------------------------------------------------------
 ----                             MULTIGRID INFO                            ----
 -------------------------------------------------------------------------------
 total grid count     :           420              cutoff [a.u.]            1.00

 PW_GRID| Information for grid number                                          7
 PW_GRID| Cutoff [a.u.]                                                      1.0
 PW_GRID| spherical cutoff:                                                   NO
 PW_GRID|   Bounds   1             -4       3                Points:           8
 PW_GRID|   Bounds   2             -4       3                Points:           8
 PW_GRID|   Bounds   3             -4       3                Points:           8
 PW_GRID| Volume element (a.u.^3)   6.748         Volume (a.u.^3)      3455.1473
 PW_GRID| Grid span                                                    FULLSPACE

 POISSON| Solver                                                        PERIODIC
 POISSON| Periodicity                                                        XYZ

 RS_GRID| Information for grid number                                          7
 RS_GRID|   Bounds   1             -4       3                Points:           8
 RS_GRID|   Bounds   2             -4       3                Points:           8
 RS_GRID|   Bounds   3             -4       3                Points:           8

 Extrapolation method: initial_guess

 Number of electrons:                                                          8
 Number of occupied orbitals:                                                  4
 Number of molecular orbitals:                                                 8

 Number of orbital functions:                                                  8
 Number of independent orbital functions:                                      8


 SCF WAVEFUNCTION OPTIMIZATION

  Step     Update method      Time    Convergence         Total energy    Change
  ------------------------------------------------------------------------------
 GXTB-EXCHANGE-TRANSFORM stage=FORWARD backend=DENSE fallback=0 iter=1
 GXTB-EXCHANGE-TRANSFORM stage=FORWARD backend=DENSE fallback=0 iter=1
     1 GXTB-Raw    0.10E+01    0.1     0.83009846       -40.5084577517 -4.05E+01
 GXTB-EXCHANGE-TRANSFORM stage=FORWARD backend=DENSE fallback=0 iter=2
 GXTB-EXCHANGE-TRANSFORM stage=FORWARD backend=DENSE fallback=0 iter=2
     2 GXTB-Simple 0.20E+00    0.1     0.03665997       -40.5158494536 -7.39E-03
 GXTB-EXCHANGE-TRANSFORM stage=FORWARD backend=DENSE fallback=0 iter=3
 GXTB-EXCHANGE-TRANSFORM stage=FORWARD backend=DENSE fallback=0 iter=3
     3 GXTB-Simple 0.20E+00    0.1     0.02595767       -40.5196549778 -3.81E-03
 GXTB-EXCHANGE-TRANSFORM stage=FORWARD backend=DENSE fallback=0 iter=4
 GXTB-EXCHANGE-TRANSFORM stage=FORWARD backend=DENSE fallback=0 iter=4
     4 GXTB-FDIIS  0.10E+01    0.1     0.04963484       -40.5233864831 -3.73E-03
 GXTB-EXCHANGE-TRANSFORM stage=FORWARD backend=DENSE fallback=0 iter=5
 GXTB-EXCHANGE-TRANSFORM stage=FORWARD backend=DENSE fallback=0 iter=5
     5 GXTB-FDIIS  0.10E+01    0.1     0.02201593       -40.5238502369 -4.64E-04
 GXTB-EXCHANGE-TRANSFORM stage=FORWARD backend=DENSE fallback=0 iter=6
 GXTB-EXCHANGE-TRANSFORM stage=FORWARD backend=DENSE fallback=0 iter=6
     6 GXTB-FDIIS  0.10E+01    0.1     0.00101656       -40.5238501123  1.25E-07
 GXTB-EXCHANGE-TRANSFORM stage=FORWARD backend=DENSE fallback=0 iter=7
 GXTB-EXCHANGE-TRANSFORM stage=FORWARD backend=DENSE fallback=0 iter=7
     7 GXTB-FDIIS  0.10E+01    0.1     0.00054641       -40.5238504181 -3.06E-07
 GXTB-EXCHANGE-TRANSFORM stage=FORWARD backend=DENSE fallback=0 iter=8
 GXTB-EXCHANGE-TRANSFORM stage=FORWARD backend=DENSE fallback=0 iter=8
     8 GXTB-FDIIS  0.10E+01    0.1     0.00002548       -40.5238504189 -8.57E-10
 GXTB-EXCHANGE-TRANSFORM stage=FORWARD backend=DENSE fallback=0 iter=9
 GXTB-EXCHANGE-TRANSFORM stage=FORWARD backend=DENSE fallback=0 iter=9
     9 GXTB-FDIIS  0.10E+01    0.1     0.00000361       -40.5238504190 -1.37E-11
 GXTB-EXCHANGE-TRANSFORM stage=FORWARD backend=DENSE fallback=0 iter=10
 GXTB-EXCHANGE-TRANSFORM stage=FORWARD backend=DENSE fallback=0 iter=10
    10 GXTB-FDIIS  0.10E+01    0.1     0.00000003       -40.5238504190  0.00E+00
 GXTB-EXCHANGE-TRANSFORM stage=FORWARD backend=DENSE fallback=0 iter=11
 GXTB-EXCHANGE-TRANSFORM stage=FORWARD backend=DENSE fallback=0 iter=11
    11 GXTB-FDIIS  0.10E+01    0.1     1.5682E-10       -40.5238504190  0.00E+00
 GXTB-EXCHANGE-TRANSFORM stage=FORWARD backend=DENSE fallback=0 iter=12
 GXTB-EXCHANGE-TRANSFORM stage=FORWARD backend=DENSE fallback=0 iter=12
    12 GXTB-FDIIS  0.10E+01    0.1     2.6690E-11       -40.5238504190  0.00E+00

  *** SCF run converged in    12 steps ***


  Core Hamiltonian energy:                                     -3.09226386834289
  Repulsive potential energy:                                   0.37466270248216
  Electrostatic energy:                                         0.04082775452480
  Self-consistent dispersion energy:                           -0.00099727883929
  Non-self consistent dispersion energy:                        0.00003895111946
  Correction for halogen bonding:                               0.00000000000000

  Total energy:                                               -40.52385041896203


 MULLIKEN POPULATION ANALYSIS

  # Atom   Element   Kind        Atomic population                    Net charge
       1     C          1                 4.379449                     -0.379449
       2     H          2                 0.905137                      0.094863
       3     H          2                 0.905138                      0.094862
       4     H          2                 0.905137                      0.094863
       5     H          2                 0.905138                      0.094862
 # Total charge                           8.000000                     -0.000000

 GXTB-EXCHANGE-TRANSFORM stage=FORWARD backend=DENSE fallback=0 iter=12

 ENERGY| Total FORCE_EVAL ( QS ) energy [hartree]            -40.523850418962034

 *******************************************************************************
  **                     Special K-Point Generation by SPGLIB                 **
 *******************************************************************************
 *******************************************************************************
  **                              Finished SPGLIB                             **
 *******************************************************************************

 Crystal Symmetry Information
       International Symbol:                                                Cmm2
       Point Group Symbol:                                                   mm2
       Schoenflies Symbol:                                                C2v^11
[...]
 GXTB-EXCHANGE-TRANSFORM stage=FORWARD backend=DENSE fallback=0 iter=8
     8 GXTB-FDIIS  0.10E+01    0.1     0.00002548       -40.5238470706 -8.57E-10
 GXTB-EXCHANGE-TRANSFORM stage=FORWARD backend=DENSE fallback=0 iter=9
 GXTB-EXCHANGE-TRANSFORM stage=FORWARD backend=DENSE fallback=0 iter=9
     9 GXTB-FDIIS  0.10E+01    0.1     0.00000359       -40.5238470706 -1.37E-11
 GXTB-EXCHANGE-TRANSFORM stage=FORWARD backend=DENSE fallback=0 iter=10
 GXTB-EXCHANGE-TRANSFORM stage=FORWARD backend=DENSE fallback=0 iter=10
    10 GXTB-FDIIS  0.10E+01    0.1     0.00000006       -40.5238470706  7.11E-15
 GXTB-EXCHANGE-TRANSFORM stage=FORWARD backend=DENSE fallback=0 iter=11
 GXTB-EXCHANGE-TRANSFORM stage=FORWARD backend=DENSE fallback=0 iter=11
    11 GXTB-FDIIS  0.10E+01    0.1     4.1094E-10       -40.5238470706 -7.11E-15
 GXTB-EXCHANGE-TRANSFORM stage=FORWARD backend=DENSE fallback=0 iter=12
 GXTB-EXCHANGE-TRANSFORM stage=FORWARD backend=DENSE fallback=0 iter=12
    12 GXTB-FDIIS  0.10E+01    0.1     6.1168E-12       -40.5238470706  0.00E+00

  *** SCF run converged in    12 steps ***


  Core Hamiltonian energy:                                     -3.09225889123190
  Repulsive potential energy:                                   0.37465112559436
  Electrostatic energy:                                         0.04082640537444
  Self-consistent dispersion energy:                           -0.00099729884477
  Non-self consistent dispersion energy:                        0.00003895194201
  Correction for halogen bonding:                               0.00000000000000

  Total energy:                                               -40.52384707063395


 MULLIKEN POPULATION ANALYSIS

  # Atom   Element   Kind        Atomic population                    Net charge
       1     C          1                 4.379445                     -0.379445
       2     H          2                 0.905143                      0.094857
       3     H          2                 0.905139                      0.094861
       4     H          2                 0.905137                      0.094863
       5     H          2                 0.905137                      0.094863
 # Total charge                           8.000000                     -0.000000

 GXTB-EXCHANGE-TRANSFORM stage=FORWARD backend=DENSE fallback=0 iter=12

 ENERGY| Total FORCE_EVAL ( QS ) energy [hartree]            -40.523847070633948


 MODULE DEBUG: ATOMIC COORDINATES IN ANGSTROM

   Atom Kind Element         X             Y             Z       Z(eff)     Mass
      1    1 C     6      4.000000      4.000000      4.000000   4.0000  12.0107
      2    2 H     1      4.692767      4.692820      4.692820   1.0000   1.0079
      3    2 H     1      4.692820      3.307180      3.307180   1.0000   1.0079
      4    2 H     1      3.307180      4.692820      3.307180   1.0000   1.0079
      5    2 H     1      3.307180      3.307180      4.692820   1.0000   1.0079


 *******************************************************************************
  **                     Special K-Point Generation by SPGLIB                 **
 *******************************************************************************
 *******************************************************************************
  **                              Finished SPGLIB                             **
 *******************************************************************************

 Crystal Symmetry Information
       International Symbol:                                                  Cm
       Point Group Symbol:                                                     m
       Schoenflies Symbol:                                                  Cs^3
       Number of Symmetry Operations:                                          2

 K-point Symmetry Information
       Number of Special K-points:                                             1
                   Wavevector Basis                                       Weight
          1   0.00000   0.00000   0.00000                                      1

       K-point Mesh:                                               1     1     1
                   Wavevector Basis                   Special Points    Rotation
          1   0.00000   0.00000   0.00000              1           1           1

       Atom Transformation Table
          Rot=    1     1    2    3    4    5
          Rot=    2     1    2    3    5    4

 Extrapolation method: initial_guess

 Number of electrons:                                                          8
 Number of occupied orbitals:                                                  4
 Number of molecular orbitals:                                                 8

 Number of orbital functions:                                                  8
 Number of independent orbital functions:                                      8


 SCF WAVEFUNCTION OPTIMIZATION

  Step     Update method      Time    Convergence         Total energy    Change
  ------------------------------------------------------------------------------
 GXTB-EXCHANGE-TRANSFORM stage=FORWARD backend=DENSE fallback=0 iter=1
 GXTB-EXCHANGE-TRANSFORM stage=FORWARD backend=DENSE fallback=0 iter=1
     1 GXTB-Raw    0.10E+01    0.1     0.83010768       -40.5084608637 -4.05E+01
 GXTB-EXCHANGE-TRANSFORM stage=FORWARD backend=DENSE fallback=0 iter=2
 GXTB-EXCHANGE-TRANSFORM stage=FORWARD backend=DENSE fallback=0 iter=2
     2 GXTB-Simple 0.20E+00    0.1     0.03666055       -40.5158527002 -7.39E-03
 GXTB-EXCHANGE-TRANSFORM stage=FORWARD backend=DENSE fallback=0 iter=3
 GXTB-EXCHANGE-TRANSFORM stage=FORWARD backend=DENSE fallback=0 iter=3
     3 GXTB-Simple 0.20E+00    0.1     0.02595807       -40.5196582836 -3.81E-03
 GXTB-EXCHANGE-TRANSFORM stage=FORWARD backend=DENSE fallback=0 iter=4
 GXTB-EXCHANGE-TRANSFORM stage=FORWARD backend=DENSE fallback=0 iter=4
     4 GXTB-FDIIS  0.10E+01    0.1     0.04963532       -40.5233898015 -3.73E-03
 GXTB-EXCHANGE-TRANSFORM stage=FORWARD backend=DENSE fallback=0 iter=5
 GXTB-EXCHANGE-TRANSFORM stage=FORWARD backend=DENSE fallback=0 iter=5
     5 GXTB-FDIIS  0.10E+01    0.1     0.02201633       -40.5238535842 -4.64E-04
 GXTB-EXCHANGE-TRANSFORM stage=FORWARD backend=DENSE fallback=0 iter=6
 GXTB-EXCHANGE-TRANSFORM stage=FORWARD backend=DENSE fallback=0 iter=6
     6 GXTB-FDIIS  0.10E+01    0.1     0.00101671       -40.5238534597  1.25E-07
 GXTB-EXCHANGE-TRANSFORM stage=FORWARD backend=DENSE fallback=0 iter=7
 GXTB-EXCHANGE-TRANSFORM stage=FORWARD backend=DENSE fallback=0 iter=7
     7 GXTB-FDIIS  0.10E+01    0.1     0.00054650       -40.5238537655 -3.06E-07
 GXTB-EXCHANGE-TRANSFORM stage=FORWARD backend=DENSE fallback=0 iter=8
 GXTB-EXCHANGE-TRANSFORM stage=FORWARD backend=DENSE fallback=0 iter=8
     8 GXTB-FDIIS  0.10E+01    0.1     0.00002549       -40.5238537663 -8.57E-10
 GXTB-EXCHANGE-TRANSFORM stage=FORWARD backend=DENSE fallback=0 iter=9
 GXTB-EXCHANGE-TRANSFORM stage=FORWARD backend=DENSE fallback=0 iter=9
     9 GXTB-FDIIS  0.10E+01    0.1     0.00000355       -40.5238537664 -1.37E-11
 GXTB-EXCHANGE-TRANSFORM stage=FORWARD backend=DENSE fallback=0 iter=10
 GXTB-EXCHANGE-TRANSFORM stage=FORWARD backend=DENSE fallback=0 iter=10
    10 GXTB-FDIIS  0.10E+01    0.1     0.00000010       -40.5238537664 -7.11E-15
 GXTB-EXCHANGE-TRANSFORM stage=FORWARD backend=DENSE fallback=0 iter=11
 GXTB-EXCHANGE-TRANSFORM stage=FORWARD backend=DENSE fallback=0 iter=11
    11 GXTB-FDIIS  0.10E+01    0.1     4.8461E-10       -40.5238537664  0.00E+00
 GXTB-EXCHANGE-TRANSFORM stage=FORWARD backend=DENSE fallback=0 iter=12
 GXTB-EXCHANGE-TRANSFORM stage=FORWARD backend=DENSE fallback=0 iter=12
    12 GXTB-FDIIS  0.10E+01    0.1     7.7728E-12       -40.5238537664  0.00E+00

  *** SCF run converged in    12 steps ***


  Core Hamiltonian energy:                                     -3.09226884539182
  Repulsive potential energy:                                   0.37467428010017
  Electrostatic energy:                                         0.04082910354436
  Self-consistent dispersion energy:                           -0.00099725883486
  Non-self consistent dispersion energy:                        0.00003895029687
  Correction for halogen bonding:                               0.00000000000000

  Total energy:                                               -40.52385376636101


 MULLIKEN POPULATION ANALYSIS

  # Atom   Element   Kind        Atomic population                    Net charge
       1     C          1                 4.379454                     -0.379454
       2     H          2                 0.905132                      0.094868
       3     H          2                 0.905137                      0.094863
       4     H          2                 0.905139                      0.094861
       5     H          2                 0.905139                      0.094861
 # Total charge                           8.000000                      0.000000

 GXTB-EXCHANGE-TRANSFORM stage=FORWARD backend=DENSE fallback=0 iter=12

 ENERGY| Total FORCE_EVAL ( QS ) energy [hartree]            -40.523853766361015

 DEBUG| Atom    E(x + 0.0001)    E(x - 0.0001)     f(numerical)    f(analytical)
 DEBUG|    2     -40.52384707     -40.52385377      -0.03347864      -0.03347864

 DEBUG| Atom  Coordinate   f(numerical)   f(analytical)   Difference   Error [%]
 DEBUG|    2      x         -0.03347864     -0.03347864  -0.00000000       -0.00

 DEBUG|======================== BEGIN OF SUMMARY ===============================
 DEBUG| Atom  Coordinate   f(numerical)   f(analytical)   Difference   Error [%]
 DEBUG|    2      x         -0.03347864     -0.03347864  -0.00000000       -0.00
 DEBUG| Sum of differences:                               0.00000000        0.00
 DEBUG|======================== END OF SUMMARY =================================

 -------------------------------------------------------------------------------
 -                                                                             -
 -                                DBCSR STATISTICS                             -
 -                                                                             -
 -------------------------------------------------------------------------------
 COUNTER                                    TOTAL       BLAS       SMM       ACC
 flops inhomo. stacks                           0       0.0%      0.0%      0.0%
 flops total                         0.000000E+00       0.0%      0.0%      0.0%
 flops max/rank                      0.000000E+00       0.0%      0.0%      0.0%
 matmuls inhomo. stacks                         0       0.0%      0.0%      0.0%
 matmuls total                                  0       0.0%      0.0%      0.0%
 number of processed stacks                     0       0.0%      0.0%      0.0%
 average stack size                                     0.0       0.0       0.0
 marketing flops                     0.000000E+00
 -------------------------------------------------------------------------------
 -                                                                             -
 -                      DBCSR MESSAGE PASSING PERFORMANCE                      -
 -                                                                             -
 -------------------------------------------------------------------------------
 ROUTINE             CALLS      AVE VOLUME [Bytes]
 MP_Bcast                1                     12.
 MP_Allreduce           19                     21.
 MP_Alltoall         22732                    572.
 -------------------------------------------------------------------------------

 -------------------------------------------------------------------------------
 -                                                                             -
 -                          OFFLOAD MEMPOOL STATISTICS                         -
 -                                                                             -
 -------------------------------------------------------------------------------
 Memory consumption                Number of allocations  Used [MiB]  Size [MiB]
 Host                                                  1           0           0
 -------------------------------------------------------------------------------

 MEMORY| Estimated peak process memory [MiB]                                 148

 -------------------------------------------------------------------------------
 ----                             MULTIGRID INFO                            ----
 -------------------------------------------------------------------------------
 total grid count     :           420              cutoff [a.u.]            1.00

 -------------------------------------------------------------------------------
 -                                                                             -
 -                         MESSAGE PASSING PERFORMANCE                         -
 -                                                                             -
 -------------------------------------------------------------------------------

 ROUTINE             CALLS      AVE VOLUME [Bytes]
 MP_Group               20
 MP_Bcast            23595                      7.
 MP_Allreduce      2626468                     47.
 MP_Sync                20
 MP_Wait             19440
 MP_ISend            27216                     79.
 MP_IRecv            27216                     79.
 -------------------------------------------------------------------------------


 -------------------------------------------------------------------------------
 -                                                                             -
 -                           R E F E R E N C E S                               -
 -                                                                             -
 -------------------------------------------------------------------------------
 
 CP2K version 2026.2 (Development Version), the CP2K developers group (2026).
 CP2K is freely available from https://www.cp2k.org/ .
 
 M. Iannuzzi, J. Wilhelm, F. Stein, A. Bussy, H. Elgabarty, D. Golze, A. Hehn, 
 M. Graml, S. Marek, B. Sertcan Gökmen, C. Schran, H. Forbert, R. Z. 
 Khaliullin, A. Kozhevnikov, M. Taillefumier, R. Meli, V. V. Rybkin, M. Brehm, 
 R. Schade, O. Schütt, J. V. Pototschnig, H. Mirhosseini, A. Knüpfer, D. Marx, 
 M. Krack, J. Hutter, T. D. Kühne.
 J. Phys. Chem. B 130, 1237-1310 (2026).
 The CP2K Program Package Made Simple.
 https://doi.org/10.1021/acs.jpcb.5c05851

 A. Katbashev, M. Stahn, T. Rose, V. Alizadeh, M. Friede, C. Plett, P. 
 Steinbach, S. Ehlert.
 J. Phys. Chem. A 129, 2667-2682 (2025).
 Overview on Building Blocks and Applications of Efficient and Robust Extended 
 Tight Binding.
 https://doi.org/10.1021/acs.jpca.4c08263

 T. D. Kühne, M. Iannuzzi, M. Del Ben, V. V. Rybkin, P. Seewald, F. Stein, T. 
 Laino, R. Z. Khaliullin, O. Schütt, F. Schiffmann, D. Golze, J. Wilhelm, S. 
 Chulkov, M. H. Bani-Hashemian, V. Weber, U. Borstnik, M. Taillefumier, A. S. 
 Jakobovits, A. Lazzaro, H. Pabst, T. Müller, R. Schade, M. Guidon, S. 
 Andermatt, N. Holmberg, G. K. Schenter, A. Hehn, A. Bussy, F. Belleflamme, G. 
 Tabacchi, A. Glöß, M. Lass, I. Bethune, C. J. Mundy, C. Plessl, M. Watkins, 
 J. VandeVondele, M. Krack, J. Hutter.
 J. Chem. Phys. 152, 194103 (2020).
 CP2K: An electronic structure and molecular dynamics software package - 
 Quickstep: Efficient and accurate electronic structure calculations.
 https://doi.org/10.1063/5.0007045

 P. Pracht, E. Caldeweyher, S. Ehlert, S. Grimme.
 ChemRxiv, (2019).
 A Robust Non-Self-Consistent Tight-Binding Quantum Chemistry Method for large 
 Molecules.
 https://doi.org/10.26434/chemrxiv.8326202.v1

 A. Togo, I. Tanaka.
 arXiv, 1808.01590 (2018).
 Spglib : a software library for crystal symmetry search.

 S. Grimme, C. Bannwarth, P. Shushkov.
 J. Chem. Theory Comput. 13, 1989 (2017).
 A Robust and Accurate Tight-Binding Quantum Chemical Method for Structures, 
 Vibrational Frequencies, and Noncovalent Interactions of Large Molecular 
 Systems Parametrized for All spd-Block Elements (Z = 1-86).
 https://doi.org/10.1021/acs.jctc.7b00118

 O. Schuett, P. Messmer, J. Hutter, J. VandeVondele.
 Electronic Structure Calculations on Graphics Processing Units, 173-190 (2016).
 GPU-Accelerated Sparse Matrix-Matrix Multiplication for Linear Scaling Density 
 Functional Theory.
 https://doi.org/10.1002/9781118670712.ch8

 U. Borstnik, J. VandeVondele, V. Weber, J. Hutter.
 Parallel Comput. 40, 47-58 (2014).
 Sparse matrix multiplication: The distributed block-compressed sparse row 
 library.
 https://doi.org/10.1016/j.parco.2014.03.012

 M. Frigo, S. G. Johnson.
 Proc. IEEE 93, 216-231 (2005).
 The design and implementation of FFTW3.
 https://doi.org/10.1109/JPROC.2004.840301

 C.-L. Fu, K.-M. Ho.
 Phys. Rev. B 28, 5480-5486 (1983).
 First-principles calculation of the equilibrium ground-state properties of 
 transition metals: Applications to Nb and Mo.
 https://doi.org/10.1103/PhysRevB.28.5480


 -------------------------------------------------------------------------------
 -                                                                             -
 -                                T I M I N G                                  -
 -                                                                             -
 -------------------------------------------------------------------------------
 SUBROUTINE                       CALLS  ASD         SELF TIME        TOTAL TIME
                                MAXIMUM       AVERAGE  MAXIMUM  AVERAGE  MAXIMUM
 CP2K                                 1  1.0    0.014    0.014   28.946   28.946
 qs_energies                         23  2.1    0.014    0.014   27.832   27.832
 scf_env_do_scf                      23  3.1    0.000    0.000   15.079   15.079
 scf_env_do_scf_inner_loop          267  4.1    3.376    3.376   15.079   15.079
 build_tblite_matrices               25  4.0    0.697    0.697   11.774   11.774
 cp_dbcsr_alloc_block_from_nbl   236494  5.0   11.097   11.097   11.571   11.571
 qs_energies_init_hamiltonians       23  3.1    0.000    0.000   11.446   11.446
 qs_ks_update_qs_env                288  4.9    0.001    0.001    8.153    8.153
 rebuild_ks_matrix                  290  5.9    0.000    0.000    7.702    7.702
 build_tblite_ks_matrix             290  6.9    5.569    5.569    7.701    7.701
 qs_forces                            2  2.0    0.000    0.000    3.380    3.380
 dbcsr_iterator_start           2636134  6.8    1.434    1.434    1.790    1.790
 dbcsr_iterator_stop            2636134  6.8    1.186    1.186    1.464    1.464
 qs_scf_new_mos_kp                  267  5.1    0.001    0.001    1.245    1.245
 do_general_diag_kp                 267  6.1    0.054    0.054    1.244    1.244
 evaluate_core_matrix_traces        557  5.5    0.001    0.001    1.145    1.145
 calculate_ptrace_kp                557  6.5    0.077    0.077    1.144    1.144
 rskp_transform                    1750  6.5    1.136    1.136    1.136    1.136
 dbcsr_dot                       233230  7.5    0.734    0.734    1.095    1.095
 -------------------------------------------------------------------------------

 The number of warnings for this run is : 1
 
 -------------------------------------------------------------------------------
  **** **** ******  **  PROGRAM ENDED AT                 2026-07-21 12:48:24.083
 ***** ** ***  *** **   PROGRAM RAN ON                                     terok
 **    ****   ******    PROGRAM RAN BY                                  kuehne88
 ***** **    ** ** **   PROGRAM PROCESS ID                                526152
  **** **  *******  **  PROGRAM STOPPED IN /home/kuehne88/work/gxtb-lowk-rerun-2
                                           0260721/results/derivative/CH4_gxtb_k
                                           p_spglib_111_force_stress
