 DBCSR| CPU Multiplication driver                                           XSMM (U)
 DBCSR| Multrec recursion limit                                              512 (U)
 DBCSR| Multiplication stack size                                           1000 (D)
 DBCSR| Maximum elements for images                                    UNLIMITED (U)
 DBCSR| Multiplicative factor virtual images                                   1 (U)
 DBCSR| Use multiplication densification                                       T (D)
 DBCSR| Multiplication size stacks                                             3 (U)
 DBCSR| Use memory pool for CPU allocation                                     F (U)
 DBCSR| Number of 3D layers                                               SINGLE (U)
 DBCSR| Use MPI memory allocation                                              F (U)
 DBCSR| Use RMA algorithm                                                      F (U)
 DBCSR| Use Communication thread                                               T (U)
 DBCSR| Communication thread load                                             87 (D)
 DBCSR| MPI: My process id                                                     0
 DBCSR| MPI: Number of processes                                               1
 DBCSR| OMP: Current number of threads                                         1
 DBCSR| OMP: Max number of threads                                             1
 DBCSR| Split modifier for TAS multiplication algorithm                  1.0E+00 (U)


  **** **** ******  **  PROGRAM STARTED AT               2026-05-23 22:46:33.282
 ***** ** ***  *** **   PROGRAM STARTED ON                            spark-c86c
 **    ****   ******    PROGRAM STARTED BY                              kuehne88
 ***** **    ** ** **   PROGRAM PROCESS ID                               2254493
  **** **  *******  **  PROGRAM STARTED IN /home/kuehne88/periodic-gfn2-benchmar
                                           ks/X23b/runs/crystal_sp/k222/GFN2/tri
                                           azine_GFN2_k222_sp

 CP2K| version string:                 CP2K version 2026.1 (Development Version)
 CP2K| source code revision number:                                   0622d442e4
 CP2K| cp2kflags: omp fftw3 libxc parallel scalapack mpi_f08 xsmm spglib libdftd
 CP2K|            4 dftd4_v3 mctc-lib tblite
 CP2K| is freely available from                            https://www.cp2k.org/
 CP2K| Program compiled at                                   2026-05-23 22:05:08
 CP2K| Program compiled on                                            spark-c86c
 CP2K| Program compiled for                                              aarch64
 CP2K| Data directory path    /home/kuehne88/cp2k-master-tblite-20260523/install
 CP2K| Input file name                                 triazine_GFN2_k222_sp.inp

 GLOBAL| Force Environment number                                              1
 GLOBAL| Basis set file name                                           BASIS_SET
 GLOBAL| Potential file name                                           POTENTIAL
 GLOBAL| MM Potential file name                                     MM_POTENTIAL
 GLOBAL| Coordinate file name                                      __STD_INPUT__
 GLOBAL| Method name                                                        CP2K
 GLOBAL| Project name                                  triazine_GFN2_k222_energy
 GLOBAL| Run type                                                         ENERGY
 GLOBAL| FFT library                                                       FFTW3
 GLOBAL| Diagonalization library                                       ScaLAPACK
 GLOBAL| Cholesky decomposition library                                ScaLAPACK
 GLOBAL| DGEMM library                                                      BLAS
 GLOBAL| Direct generalized diagonalization requested                          F
 GLOBAL| Orthonormality check for eigenvectors                          DISABLED
 GLOBAL| Matrix multiplication library                                 ScaLAPACK
 GLOBAL| All-to-all communication in single precision                          F
 GLOBAL| FFTs using library dependent lengths                                  F
 GLOBAL| Grid backend                                                       AUTO
 GLOBAL| Global print level                                                  LOW
 GLOBAL| MPI I/O enabled                                                       T
 GLOBAL| Total number of message passing processes                             1
 GLOBAL| Number of distributed systems (nodes)                                 1
 GLOBAL| Number of threads for this process                                    1
 GLOBAL| This output is from process                                           0
 GLOBAL| OpenMP stack size per thread (OMP_STACKSIZE)                    default
 GLOBAL| CPU model name                                                  UNKNOWN
 GLOBAL| CPUID                                                              2200
 GLOBAL| Compiled for CPUID                                                 2000

 *** HINT in environment.F:970 :: The compiler target flags (arm_arch64)   ***
 *** used to build this binary cannot exploit all extensions of this CPU   ***
 *** model (arm_sve256). Consider compiler target flags as part of FCFLAGS ***
 *** and CFLAGS (ARCH file).                                               ***


 MEMORY| system memory details [Kb]
 MEMORY|                        rank 0           min           max       average
 MEMORY| MemTotal            125508532     125508532     125508532     125508532
 MEMORY| MemFree             102776220     102776220     102776220     102776220
 MEMORY| Buffers                867288        867288        867288        867288
 MEMORY| Cached               13629532      13629532      13629532      13629532
 MEMORY| Slab                  1579580       1579580       1579580       1579580
 MEMORY| SReclaimable           901900        901900        901900        901900
 MEMORY| MemLikelyFree       118174940     118174940     118174940     118174940


 GENERATE|  Preliminary Number of Bonds generated:                             0
 GENERATE|  Achieved consistency in connectivity generation.


                  #####   #####        #     #   #     #       #          
                 #     # #     #      #    ##### #     #   # #####  ####  
                 #     # #           #       #   ###   #       #   #    # 
                 #     #  #####     #        #   #  #  #   #   #   ###### 
                 #   # #       #   #         #   #   # #   #   #   #      
                 #    #  #     #  #          #   #  #  # # #   #    #   # 
                  #### #  #####  #           #   ###   ##  #   #     ###  

                                   GFN2-xTB  
                                 Version 0.0                       
                            Johann V. Pototschnig                  



 TOTAL NUMBERS AND MAXIMUM NUMBERS

  Total number of            - Atomic kinds:                                   3
                             - Atoms:                                         54
                             - Shell sets:                                    90
                             - Shells:                                        90
                             - Primitive Cartesian functions:                342
                             - Cartesian basis functions:                    162
                             - Spherical basis functions:                    162

  Maximum angular momentum of the orbital basis functions:                     1


 SCF PARAMETERS         Density guess:                                     MOPAC
                        --------------------------------------------------------
                        max_scf:                                             300
                        max_scf_history:                                       0
                        max_diis:                                              4
                        --------------------------------------------------------
                        eps_scf:                                        1.00E-09
                        eps_scf_history:                                0.00E+00
                        eps_diis:                                       1.00E-01
                        eps_eigval:                                     1.00E-05
                        --------------------------------------------------------
                        level_shift [a.u.]:                             0.000000
                        added MOs                                        72    0
                        --------------------------------------------------------
                        Mixing method:                           DIRECT_P_MIXING
                        --------------------------------------------------------
                        Smear method:                                FERMI_DIRAC
                        Electronic temperature [K]:                        300.0
                        Electronic temperature [a.u.]:                  9.50E-04
                        Accuracy threshold:                             1.00E-06
                        --------------------------------------------------------
                        No outer SCF

 Extrapolation method: initial_guess

 Number of electrons:                                                        180
 Number of occupied orbitals:                                                 90
 Number of molecular orbitals:                                               162

 Number of orbital functions:                                                162
 Number of independent orbital functions:                                    162


 SCF WAVEFUNCTION OPTIMIZATION

  Step     Update method      Time    Convergence         Total energy    Change
  ------------------------------------------------------------------------------
     1 TBLite/Diag 0.40E+00    0.2     0.67046590       -99.0193784678 -9.90E+01
     2 TBLite/Diag 0.40E+00    0.2     0.31834885       -99.8981840290 -8.79E-01
     3 TBLite/Diag 0.40E+00    0.2     0.09466732       -99.9199934668 -2.18E-02
     4 TBLite/Diag 0.40E+00    0.2     0.05615416       -99.9344059462 -1.44E-02
     5 TBLite/Diag 0.40E+00    0.2     0.03726910       -99.9355037172 -1.10E-03
     6 TBLite/Diag 0.40E+00    0.2     0.01400882       -99.9387953620 -3.29E-03
     7 TBLite/Diag 0.40E+00    0.2     0.00225361       -99.9388949571 -9.96E-05
     8 TBLite/Diag 0.40E+00    0.2     0.00093901       -99.9389042849 -9.33E-06
     9 TBLite/Diag 0.40E+00    0.2     0.00002063       -99.9389042841  8.84E-10
    10 TBLite/Diag 0.40E+00    0.2     0.00000811       -99.9389042849 -8.71E-10
    11 TBLite/Diag 0.40E+00    0.2     0.00000433       -99.9389042853 -3.31E-10
    12 TBLite/Diag 0.40E+00    0.2     0.00000136       -99.9389042853 -2.45E-11
    13 TBLite/Diag 0.40E+00    0.2     0.00000018       -99.9389042853 -1.85E-13
    14 TBLite/Diag 0.40E+00    0.2     9.3780E-09       -99.9389042853  4.26E-14
    15 TBLite/Diag 0.40E+00    0.2     0.00000001       -99.9389042853 -5.68E-14
    16 TBLite/Diag 0.40E+00    0.2     1.0926E-09       -99.9389042853  0.00E+00
    17 TBLite/Diag 0.40E+00    0.2     1.3499E-10       -99.9389042853 -8.53E-14

  *** SCF run converged in    17 steps ***


  Core Hamiltonian energy:                                   -102.17295896708950
  Repulsive potential energy:                                   2.07232062064209
  Electrostatic energy:                                         0.28611548152892
  Self-consistent dispersion energy:                           -0.15279786677184
  Non-self consistent dispersion energy:                        0.02841644639735
  Correction for halogen bonding:                               0.00000000000000
  Electronic entropic energy:                                  -0.00000000000002
  Fermi energy:                                                -0.33078366463415

  Total energy:                                               -99.93890428529302
  Total energy (extrapolated to T->0):                        -99.93890428529301

 ENERGY| Total FORCE_EVAL ( QS ) energy [hartree]            -99.938904285293020

 -------------------------------------------------------------------------------
 -                                                                             -
 -                                DBCSR STATISTICS                             -
 -                                                                             -
 -------------------------------------------------------------------------------
 COUNTER                                    TOTAL       BLAS       SMM       ACC
 flops inhomo. stacks                           0       0.0%      0.0%      0.0%
 flops total                         0.000000E+00       0.0%      0.0%      0.0%
 flops max/rank                      0.000000E+00       0.0%      0.0%      0.0%
 matmuls inhomo. stacks                         0       0.0%      0.0%      0.0%
 matmuls total                                  0       0.0%      0.0%      0.0%
 number of processed stacks                     0       0.0%      0.0%      0.0%
 average stack size                                     0.0       0.0       0.0
 marketing flops                     0.000000E+00
 -------------------------------------------------------------------------------
 -                                                                             -
 -                      DBCSR MESSAGE PASSING PERFORMANCE                      -
 -                                                                             -
 -------------------------------------------------------------------------------
 ROUTINE             CALLS      AVE VOLUME [Bytes]
 MP_Bcast                1                     12.
 MP_Allreduce           19                     21.
 MP_Alltoall         11748                 161657.
 -------------------------------------------------------------------------------

 -------------------------------------------------------------------------------
 -                                                                             -
 -                          OFFLOAD MEMPOOL STATISTICS                         -
 -                                                                             -
 -------------------------------------------------------------------------------
 Memory consumption                Number of allocations  Used [MiB]  Size [MiB]
 Device                                                1           0           0
 Host                                                  1           0           0
 -------------------------------------------------------------------------------

 MEMORY| Estimated peak process memory [MiB]                                 294

 -------------------------------------------------------------------------------
 -                                                                             -
 -                         MESSAGE PASSING PERFORMANCE                         -
 -                                                                             -
 -------------------------------------------------------------------------------

 ROUTINE             CALLS      AVE VOLUME [Bytes]
 MP_Group                1
 MP_Bcast             5009                      7.
 MP_Allreduce        11127                    482.
 MP_Sync                 1
 MP_Wait              4160
 MP_ISend             5824                  29999.
 MP_IRecv             5824                  29999.
 -------------------------------------------------------------------------------


 -------------------------------------------------------------------------------
 -                                                                             -
 -                           R E F E R E N C E S                               -
 -                                                                             -
 -------------------------------------------------------------------------------
 
 CP2K version 2026.1 (Development Version), the CP2K developers group (2026).
 CP2K is freely available from https://www.cp2k.org/ .
 
 M. Iannuzzi, J. Wilhelm, F. Stein, A. Bussy, H. Elgabarty, D. Golze, A. Hehn, 
 M. Graml, S. Marek, B. Sertcan Gökmen, C. Schran, H. Forbert, R. Z. 
 Khaliullin, A. Kozhevnikov, M. Taillefumier, R. Meli, V. V. Rybkin, M. Brehm, 
 R. Schade, O. Schütt, J. V. Pototschnig, H. Mirhosseini, A. Knüpfer, D. Marx, 
 M. Krack, J. Hutter, T. D. Kühne.
 J. Phys. Chem. B 130, 1237-1310 (2026).
 The CP2K Program Package Made Simple.
 https://doi.org/10.1021/acs.jpcb.5c05851

 A. Katbashev, M. Stahn, T. Rose, V. Alizadeh, M. Friede, C. Plett, P. 
 Steinbach, S. Ehlert.
 J. Phys. Chem. A 129, 2667-2682 (2025).
 Overview on Building Blocks and Applications of Efficient and Robust Extended 
 Tight Binding.
 https://doi.org/10.1021/acs.jpca.4c08263

 T. D. Kühne, M. Iannuzzi, M. Del Ben, V. V. Rybkin, P. Seewald, F. Stein, T. 
 Laino, R. Z. Khaliullin, O. Schütt, F. Schiffmann, D. Golze, J. Wilhelm, S. 
 Chulkov, M. H. Bani-Hashemian, V. Weber, U. Borstnik, M. Taillefumier, A. S. 
 Jakobovits, A. Lazzaro, H. Pabst, T. Müller, R. Schade, M. Guidon, S. 
 Andermatt, N. Holmberg, G. K. Schenter, A. Hehn, A. Bussy, F. Belleflamme, G. 
 Tabacchi, A. Glöß, M. Lass, I. Bethune, C. J. Mundy, C. Plessl, M. Watkins, 
 J. VandeVondele, M. Krack, J. Hutter.
 J. Chem. Phys. 152, 194103 (2020).
 CP2K: An electronic structure and molecular dynamics software package - 
 Quickstep: Efficient and accurate electronic structure calculations.
 https://doi.org/10.1063/5.0007045

 P. Pracht, E. Caldeweyher, S. Ehlert, S. Grimme.
 ChemRxiv, (2019).
 A Robust Non-Self-Consistent Tight-Binding Quantum Chemistry Method for large 
 Molecules.
 https://doi.org/10.26434/chemrxiv.8326202.v1

 S. Grimme, C. Bannwarth, P. Shushkov.
 J. Chem. Theory Comput. 13, 1989 (2017).
 A Robust and Accurate Tight-Binding Quantum Chemical Method for Structures, 
 Vibrational Frequencies, and Noncovalent Interactions of Large Molecular 
 Systems Parametrized for All spd-Block Elements (Z = 1-86).
 https://doi.org/10.1021/acs.jctc.7b00118

 O. Schuett, P. Messmer, J. Hutter, J. VandeVondele.
 Electronic Structure Calculations on Graphics Processing Units, 173-190 (2016).
 GPU-Accelerated Sparse Matrix-Matrix Multiplication for Linear Scaling Density 
 Functional Theory.
 https://doi.org/10.1002/9781118670712.ch8

 A. Heinecke, G. Henry, M. Hutchinson, H. Pabst.
 Proceedings of Intl. Supercomputing Conference, 981-991 (2016).
 LIBXSMM: Accelerating Small Matrix Multiplications by Runtime Code Generation.
 https://doi.org/10.1109/SC.2016.83

 U. Borstnik, J. VandeVondele, V. Weber, J. Hutter.
 Parallel Comput. 40, 47-58 (2014).
 Sparse matrix multiplication: The distributed block-compressed sparse row 
 library.
 https://doi.org/10.1016/j.parco.2014.03.012

 M. Frigo, S. G. Johnson.
 Proc. IEEE 93, 216-231 (2005).
 The design and implementation of FFTW3.
 https://doi.org/10.1109/JPROC.2004.840301

 N. D. Mermin.
 Phys. Rev. 137, A1441-A1443 (1965).
 Thermal Properties of the Inhomogeneous Electron Gas.
 https://doi.org/10.1103/PhysRev.137.A1441


 -------------------------------------------------------------------------------
 -                                                                             -
 -                                T I M I N G                                  -
 -                                                                             -
 -------------------------------------------------------------------------------
 SUBROUTINE                       CALLS  ASD         SELF TIME        TOTAL TIME
                                MAXIMUM       AVERAGE  MAXIMUM  AVERAGE  MAXIMUM
 CP2K                                 1  1.0    0.006    0.006    4.419    4.419
 qs_energies                          1  2.0    0.000    0.000    4.407    4.407
 scf_env_do_scf                       1  3.0    0.000    0.000    3.844    3.844
 scf_env_do_scf_inner_loop           17  4.0    0.548    0.548    3.844    3.844
 qs_scf_new_mos_kp                   17  5.0    0.000    0.000    2.378    2.378
 do_general_diag_kp                  17  6.0    0.007    0.007    2.378    2.378
 qs_ks_update_qs_env                 17  5.0    0.000    0.000    0.814    0.814
 rebuild_ks_matrix                   17  6.0    0.000    0.000    0.778    0.778
 build_tblite_ks_matrix              17  7.0    0.766    0.766    0.778    0.778
 cp_cfm_geeig                       136  7.0    0.001    0.001    0.702    0.702
 qs_energies_init_hamiltonians        1  3.0    0.000    0.000    0.524    0.524
 build_tblite_matrices                1  4.0    0.401    0.401    0.516    0.516
 cp_cfm_heevd                       136  8.0    0.000    0.000    0.463    0.463
 cp_cfm_heevd_base                  136  9.0    0.463    0.463    0.463    0.463
 kpoint_density_transform            17  7.0    0.001    0.001    0.447    0.447
 dbcsr_complete_redistribute        859  8.2    0.311    0.311    0.369    0.369
 copy_dbcsr_to_fm                   587  6.9    0.002    0.002    0.360    0.360
 rskp_transform                     280  6.9    0.316    0.316    0.316    0.316
 copy_fm_to_dbcsr                   272  8.0    0.001    0.001    0.243    0.243
 qs_diis_b_calc_err_kp              128  7.0    0.009    0.009    0.222    0.222
 parallel_gemm_cfm                  512  8.0    0.000    0.000    0.211    0.211
 parallel_gemm_cfm_gemm             512  9.0    0.000    0.000    0.210    0.210
 cp_cfm_gemm                        512 10.0    0.210    0.210    0.210    0.210
 dbcsr_desymmetrize_deep           1147  7.4    0.150    0.150    0.198    0.198
 cp_cfm_triangular_multiply         408  8.0    0.177    0.177    0.177    0.177
 transform_dmat                     136  8.0    0.147    0.147    0.147    0.147
 cp_dbcsr_alloc_block_from_nbl      691  5.9    0.088    0.088    0.125    0.125
 kpoint_density_matrices             17  7.0    0.002    0.002    0.109    0.109
 dbcsr_copy                        1190  7.1    0.010    0.010    0.106    0.106
 parallel_gemm_fm_gemm              544  8.0    0.000    0.000    0.105    0.105
 tb_get_multipole                     1  5.0    0.018    0.018    0.105    0.105
 cp_fm_gemm                         544  9.0    0.105    0.105    0.105    0.105
 dbcsr_copy_into_existing           272 10.0    0.095    0.095    0.095    0.095
 -------------------------------------------------------------------------------

 The number of warnings for this run is : 0
 
 -------------------------------------------------------------------------------
  **** **** ******  **  PROGRAM ENDED AT                 2026-05-23 22:46:38.076
 ***** ** ***  *** **   PROGRAM RAN ON                                spark-c86c
 **    ****   ******    PROGRAM RAN BY                                  kuehne88
 ***** **    ** ** **   PROGRAM PROCESS ID                               2254493
  **** **  *******  **  PROGRAM STOPPED IN /home/kuehne88/periodic-gfn2-benchmar
                                           ks/X23b/runs/crystal_sp/k222/GFN2/tri
                                           azine_GFN2_k222_sp
