 DBCSR| CPU Multiplication driver                                           XSMM (U)
 DBCSR| Multrec recursion limit                                              512 (U)
 DBCSR| Multiplication stack size                                           1000 (D)
 DBCSR| Maximum elements for images                                    UNLIMITED (U)
 DBCSR| Multiplicative factor virtual images                                   1 (U)
 DBCSR| Use multiplication densification                                       T (D)
 DBCSR| Multiplication size stacks                                             3 (U)
 DBCSR| Use memory pool for CPU allocation                                     F (U)
 DBCSR| Number of 3D layers                                               SINGLE (U)
 DBCSR| Use MPI memory allocation                                              F (U)
 DBCSR| Use RMA algorithm                                                      F (U)
 DBCSR| Use Communication thread                                               T (U)
 DBCSR| Communication thread load                                             87 (D)
 DBCSR| MPI: My process id                                                     0
 DBCSR| MPI: Number of processes                                               1
 DBCSR| OMP: Current number of threads                                         1
 DBCSR| OMP: Max number of threads                                             1
 DBCSR| Split modifier for TAS multiplication algorithm                  1.0E+00 (U)


  **** **** ******  **  PROGRAM STARTED AT               2026-05-23 22:46:22.907
 ***** ** ***  *** **   PROGRAM STARTED ON                            spark-c86c
 **    ****   ******    PROGRAM STARTED BY                              kuehne88
 ***** **    ** ** **   PROGRAM PROCESS ID                               2237428
  **** **  *******  **  PROGRAM STARTED IN /home/kuehne88/periodic-gfn2-benchmar
                                           ks/X23b/runs/crystal_sp/gamma/GFN2/su
                                           ccinic_acid_GFN2_gamma_sp

 CP2K| version string:                 CP2K version 2026.1 (Development Version)
 CP2K| source code revision number:                                   0622d442e4
 CP2K| cp2kflags: omp fftw3 libxc parallel scalapack mpi_f08 xsmm spglib libdftd
 CP2K|            4 dftd4_v3 mctc-lib tblite
 CP2K| is freely available from                            https://www.cp2k.org/
 CP2K| Program compiled at                                   2026-05-23 22:05:08
 CP2K| Program compiled on                                            spark-c86c
 CP2K| Program compiled for                                              aarch64
 CP2K| Data directory path    /home/kuehne88/cp2k-master-tblite-20260523/install
 CP2K| Input file name                           succinic_acid_GFN2_gamma_sp.inp

 GLOBAL| Force Environment number                                              1
 GLOBAL| Basis set file name                                           BASIS_SET
 GLOBAL| Potential file name                                           POTENTIAL
 GLOBAL| MM Potential file name                                     MM_POTENTIAL
 GLOBAL| Coordinate file name                                      __STD_INPUT__
 GLOBAL| Method name                                                        CP2K
 GLOBAL| Project name                            succinic_acid_GFN2_gamma_energy
 GLOBAL| Run type                                                         ENERGY
 GLOBAL| FFT library                                                       FFTW3
 GLOBAL| Diagonalization library                                       ScaLAPACK
 GLOBAL| Cholesky decomposition library                                ScaLAPACK
 GLOBAL| DGEMM library                                                      BLAS
 GLOBAL| Direct generalized diagonalization requested                          F
 GLOBAL| Orthonormality check for eigenvectors                          DISABLED
 GLOBAL| Matrix multiplication library                                 ScaLAPACK
 GLOBAL| All-to-all communication in single precision                          F
 GLOBAL| FFTs using library dependent lengths                                  F
 GLOBAL| Grid backend                                                       AUTO
 GLOBAL| Global print level                                                  LOW
 GLOBAL| MPI I/O enabled                                                       T
 GLOBAL| Total number of message passing processes                             1
 GLOBAL| Number of distributed systems (nodes)                                 1
 GLOBAL| Number of threads for this process                                    1
 GLOBAL| This output is from process                                           0
 GLOBAL| OpenMP stack size per thread (OMP_STACKSIZE)                    default
 GLOBAL| CPU model name                                                  UNKNOWN
 GLOBAL| CPUID                                                              2200
 GLOBAL| Compiled for CPUID                                                 2000

 *** HINT in environment.F:970 :: The compiler target flags (arm_arch64)   ***
 *** used to build this binary cannot exploit all extensions of this CPU   ***
 *** model (arm_sve256). Consider compiler target flags as part of FCFLAGS ***
 *** and CFLAGS (ARCH file).                                               ***


 MEMORY| system memory details [Kb]
 MEMORY|                        rank 0           min           max       average
 MEMORY| MemTotal            125508532     125508532     125508532     125508532
 MEMORY| MemFree             105761508     105761508     105761508     105761508
 MEMORY| Buffers                866552        866552        866552        866552
 MEMORY| Cached               13222728      13222728      13222728      13222728
 MEMORY| Slab                  1565516       1565516       1565516       1565516
 MEMORY| SReclaimable           889464        889464        889464        889464
 MEMORY| MemLikelyFree       120740252     120740252     120740252     120740252


 GENERATE|  Preliminary Number of Bonds generated:                             0
 GENERATE|  Achieved consistency in connectivity generation.


                  #####   #####        #     #   #     #       #          
                 #     # #     #      #    ##### #     #   # #####  ####  
                 #     # #           #       #   ###   #       #   #    # 
                 #     #  #####     #        #   #  #  #   #   #   ###### 
                 #   # #       #   #         #   #   # #   #   #   #      
                 #    #  #     #  #          #   #  #  # # #   #    #   # 
                  #### #  #####  #           #   ###   ##  #   #     ###  

                                   GFN2-xTB  
                                 Version 0.0                       
                            Johann V. Pototschnig                  



 TOTAL NUMBERS AND MAXIMUM NUMBERS

  Total number of            - Atomic kinds:                                   3
                             - Atoms:                                         28
                             - Shell sets:                                    44
                             - Shells:                                        44
                             - Primitive Cartesian functions:                164
                             - Cartesian basis functions:                     76
                             - Spherical basis functions:                     76

  Maximum angular momentum of the orbital basis functions:                     1


 SCF PARAMETERS         Density guess:                                     MOPAC
                        --------------------------------------------------------
                        max_scf:                                             300
                        max_scf_history:                                       0
                        max_diis:                                              4
                        --------------------------------------------------------
                        eps_scf:                                        1.00E-09
                        eps_scf_history:                                0.00E+00
                        eps_diis:                                       1.00E-01
                        eps_eigval:                                     1.00E-05
                        --------------------------------------------------------
                        level_shift [a.u.]:                             0.000000
                        added MOs                                        30    0
                        --------------------------------------------------------
                        Mixing method:                           DIRECT_P_MIXING
                        --------------------------------------------------------
                        Smear method:                                FERMI_DIRAC
                        Electronic temperature [K]:                        300.0
                        Electronic temperature [a.u.]:                  9.50E-04
                        Accuracy threshold:                             1.00E-06
                        --------------------------------------------------------
                        No outer SCF

 Extrapolation method: initial_guess

 Number of electrons:                                                         92
 Number of occupied orbitals:                                                 46
 Number of molecular orbitals:                                                76

 Number of orbital functions:                                                 76
 Number of independent orbital functions:                                     76


 SCF WAVEFUNCTION OPTIMIZATION

  Step     Update method      Time    Convergence         Total energy    Change
  ------------------------------------------------------------------------------
     1 TBLite/Diag 0.40E+00    0.0     0.71613608       -55.1647709250 -5.52E+01
     2 TBLite/Diag 0.40E+00    0.0     0.28328070       -55.8841138055 -7.19E-01
     3 TBLite/Diag 0.40E+00    0.0     0.08296488       -55.9137181968 -2.96E-02
     4 TBLite/Diag 0.40E+00    0.0     0.03571804       -55.9209121050 -7.19E-03
     5 TBLite/Diag 0.40E+00    0.0     0.01450197       -55.9224435431 -1.53E-03
     6 TBLite/Diag 0.40E+00    0.0     0.00295024       -55.9224882738 -4.47E-05
     7 TBLite/Diag 0.40E+00    0.0     0.00170676       -55.9225063718 -1.81E-05
     8 TBLite/Diag 0.40E+00    0.0     0.00028146       -55.9225073878 -1.02E-06
     9 TBLite/Diag 0.40E+00    0.0     0.00009238       -55.9225073998 -1.20E-08
    10 TBLite/Diag 0.40E+00    0.0     0.00008942       -55.9225074176 -1.78E-08
    11 TBLite/Diag 0.40E+00    0.0     0.00004283       -55.9225074300 -1.24E-08
    12 TBLite/Diag 0.40E+00    0.0     0.00000402       -55.9225074301 -5.16E-11
    13 TBLite/Diag 0.40E+00    0.0     0.00000487       -55.9225074302 -1.19E-10
    14 TBLite/Diag 0.40E+00    0.0     0.00000038       -55.9225074302 -1.26E-12
    15 TBLite/Diag 0.40E+00    0.0     0.00000007       -55.9225074302  7.11E-14
    16 TBLite/Diag 0.40E+00    0.0     7.4861E-09       -55.9225074302 -6.39E-14
    17 TBLite/Diag 0.40E+00    0.0     0.00000001       -55.9225074302 -1.42E-14
    18 TBLite/Diag 0.40E+00    0.0     1.4743E-09       -55.9225074302 -1.42E-14
    19 TBLite/Diag 0.40E+00    0.0     3.2421E-10       -55.9225074302  7.11E-15

  *** SCF run converged in    19 steps ***


  Core Hamiltonian energy:                                    -56.48307161873748
  Repulsive potential energy:                                   0.45038128574375
  Electrostatic energy:                                         0.16449622503826
  Self-consistent dispersion energy:                           -0.06866347240914
  Non-self consistent dispersion energy:                        0.01435015015830
  Correction for halogen bonding:                               0.00000000000000
  Electronic entropic energy:                                  -0.00000000000000
  Fermi energy:                                                -0.28363349137843

  Total energy:                                               -55.92250743020632
  Total energy (extrapolated to T->0):                        -55.92250743020632

 ENERGY| Total FORCE_EVAL ( QS ) energy [hartree]            -55.922507430206316

 -------------------------------------------------------------------------------
 -                                                                             -
 -                                DBCSR STATISTICS                             -
 -                                                                             -
 -------------------------------------------------------------------------------
 COUNTER                                    TOTAL       BLAS       SMM       ACC
 flops     1 x     1 x    76               225264       0.0%    100.0%      0.0%     
 flops     1 x     4 x    76              1108992       0.0%    100.0%      0.0%     
 flops     4 x     1 x    76              1108992       0.0%    100.0%      0.0%     
 flops     4 x     4 x    76              6284288       0.0%    100.0%      0.0%     
 flops inhomo. stacks                           0       0.0%      0.0%      0.0%
 flops total                         8.727536E+06       0.0%    100.0%      0.0%
 flops max/rank                      8.727536E+06       0.0%    100.0%      0.0%
 matmuls inhomo. stacks                         0       0.0%      0.0%      0.0%
 matmuls total                               7714       0.0%    100.0%      0.0%
 number of processed stacks                    76       0.0%    100.0%      0.0%
 average stack size                                     0.0     101.5       0.0
 marketing flops                    10.096448E+06
 -------------------------------------------------------------------------------
 # multiplications                             19
 max memory usage/rank              13.671145E+09
 # max total images/rank                        1
 # max 3D layers                                1
 # MPI messages exchanged                       0
 -------------------------------------------------------------------------------
 -                                                                             -
 -                      DBCSR MESSAGE PASSING PERFORMANCE                      -
 -                                                                             -
 -------------------------------------------------------------------------------
 ROUTINE             CALLS      AVE VOLUME [Bytes]
 MP_Bcast                5                     12.
 MP_Allreduce          122                     11.
 MP_Alltoall           760                  33530.
 MP_ISend               76                   1680.
 MP_IRecv               76                   1680.
 -------------------------------------------------------------------------------

 -------------------------------------------------------------------------------
 -                                                                             -
 -                          OFFLOAD MEMPOOL STATISTICS                         -
 -                                                                             -
 -------------------------------------------------------------------------------
 Memory consumption                Number of allocations  Used [MiB]  Size [MiB]
 Device                                                1           0           0
 Host                                                  1           0           0
 -------------------------------------------------------------------------------

 MEMORY| Estimated peak process memory [MiB]                                 163

 -------------------------------------------------------------------------------
 -                                                                             -
 -                         MESSAGE PASSING PERFORMANCE                         -
 -                                                                             -
 -------------------------------------------------------------------------------

 ROUTINE             CALLS      AVE VOLUME [Bytes]
 MP_Group                1
 MP_Bcast               38                    306.
 MP_Allreduce          550                    205.
 MP_Sync                20
 MP_comm_split          19
 -------------------------------------------------------------------------------


 -------------------------------------------------------------------------------
 -                                                                             -
 -                           R E F E R E N C E S                               -
 -                                                                             -
 -------------------------------------------------------------------------------
 
 CP2K version 2026.1 (Development Version), the CP2K developers group (2026).
 CP2K is freely available from https://www.cp2k.org/ .
 
 M. Iannuzzi, J. Wilhelm, F. Stein, A. Bussy, H. Elgabarty, D. Golze, A. Hehn, 
 M. Graml, S. Marek, B. Sertcan Gökmen, C. Schran, H. Forbert, R. Z. 
 Khaliullin, A. Kozhevnikov, M. Taillefumier, R. Meli, V. V. Rybkin, M. Brehm, 
 R. Schade, O. Schütt, J. V. Pototschnig, H. Mirhosseini, A. Knüpfer, D. Marx, 
 M. Krack, J. Hutter, T. D. Kühne.
 J. Phys. Chem. B 130, 1237-1310 (2026).
 The CP2K Program Package Made Simple.
 https://doi.org/10.1021/acs.jpcb.5c05851

 A. Katbashev, M. Stahn, T. Rose, V. Alizadeh, M. Friede, C. Plett, P. 
 Steinbach, S. Ehlert.
 J. Phys. Chem. A 129, 2667-2682 (2025).
 Overview on Building Blocks and Applications of Efficient and Robust Extended 
 Tight Binding.
 https://doi.org/10.1021/acs.jpca.4c08263

 T. D. Kühne, M. Iannuzzi, M. Del Ben, V. V. Rybkin, P. Seewald, F. Stein, T. 
 Laino, R. Z. Khaliullin, O. Schütt, F. Schiffmann, D. Golze, J. Wilhelm, S. 
 Chulkov, M. H. Bani-Hashemian, V. Weber, U. Borstnik, M. Taillefumier, A. S. 
 Jakobovits, A. Lazzaro, H. Pabst, T. Müller, R. Schade, M. Guidon, S. 
 Andermatt, N. Holmberg, G. K. Schenter, A. Hehn, A. Bussy, F. Belleflamme, G. 
 Tabacchi, A. Glöß, M. Lass, I. Bethune, C. J. Mundy, C. Plessl, M. Watkins, 
 J. VandeVondele, M. Krack, J. Hutter.
 J. Chem. Phys. 152, 194103 (2020).
 CP2K: An electronic structure and molecular dynamics software package - 
 Quickstep: Efficient and accurate electronic structure calculations.
 https://doi.org/10.1063/5.0007045

 P. Pracht, E. Caldeweyher, S. Ehlert, S. Grimme.
 ChemRxiv, (2019).
 A Robust Non-Self-Consistent Tight-Binding Quantum Chemistry Method for large 
 Molecules.
 https://doi.org/10.26434/chemrxiv.8326202.v1

 S. Grimme, C. Bannwarth, P. Shushkov.
 J. Chem. Theory Comput. 13, 1989 (2017).
 A Robust and Accurate Tight-Binding Quantum Chemical Method for Structures, 
 Vibrational Frequencies, and Noncovalent Interactions of Large Molecular 
 Systems Parametrized for All spd-Block Elements (Z = 1-86).
 https://doi.org/10.1021/acs.jctc.7b00118

 O. Schuett, P. Messmer, J. Hutter, J. VandeVondele.
 Electronic Structure Calculations on Graphics Processing Units, 173-190 (2016).
 GPU-Accelerated Sparse Matrix-Matrix Multiplication for Linear Scaling Density 
 Functional Theory.
 https://doi.org/10.1002/9781118670712.ch8

 A. Heinecke, G. Henry, M. Hutchinson, H. Pabst.
 Proceedings of Intl. Supercomputing Conference, 981-991 (2016).
 LIBXSMM: Accelerating Small Matrix Multiplications by Runtime Code Generation.
 https://doi.org/10.1109/SC.2016.83

 U. Borstnik, J. VandeVondele, V. Weber, J. Hutter.
 Parallel Comput. 40, 47-58 (2014).
 Sparse matrix multiplication: The distributed block-compressed sparse row 
 library.
 https://doi.org/10.1016/j.parco.2014.03.012

 M. Frigo, S. G. Johnson.
 Proc. IEEE 93, 216-231 (2005).
 The design and implementation of FFTW3.
 https://doi.org/10.1109/JPROC.2004.840301

 N. D. Mermin.
 Phys. Rev. 137, A1441-A1443 (1965).
 Thermal Properties of the Inhomogeneous Electron Gas.
 https://doi.org/10.1103/PhysRev.137.A1441


 -------------------------------------------------------------------------------
 -                                                                             -
 -                                T I M I N G                                  -
 -                                                                             -
 -------------------------------------------------------------------------------
 SUBROUTINE                       CALLS  ASD         SELF TIME        TOTAL TIME
                                MAXIMUM       AVERAGE  MAXIMUM  AVERAGE  MAXIMUM
 CP2K                                 1  1.0    0.002    0.002    0.252    0.252
 qs_energies                          1  2.0    0.000    0.000    0.247    0.247
 qs_energies_init_hamiltonians        1  3.0    0.000    0.000    0.194    0.194
 build_tblite_matrices                1  4.0    0.185    0.185    0.193    0.193
 scf_env_do_scf                       1  3.0    0.000    0.000    0.052    0.052
 scf_env_do_scf_inner_loop           19  4.0    0.007    0.007    0.052    0.052
 qs_scf_new_mos                      19  5.0    0.000    0.000    0.029    0.029
 qs_ks_update_qs_env                 19  5.0    0.000    0.000    0.014    0.014
 rebuild_ks_matrix                   19  6.0    0.000    0.000    0.013    0.013
 build_tblite_ks_matrix              19  7.0    0.013    0.013    0.013    0.013
 calculate_dm_sparse                 19  6.0    0.000    0.000    0.010    0.010
 cp_dbcsr_plus_fm_fm_t               19  7.0    0.000    0.000    0.010    0.010
 eigensolver                         19  6.0    0.000    0.000    0.009    0.009
 tb_get_multipole                     1  5.0    0.006    0.006    0.008    0.008
 copy_dbcsr_to_fm                    38  6.4    0.000    0.000    0.008    0.008
 cp_fm_syevd                         19  7.0    0.000    0.000    0.007    0.007
 dbcsr_multiply_generic              19  8.0    0.000    0.000    0.007    0.007
 dbcsr_complete_redistribute         76  8.2    0.005    0.005    0.007    0.007
 cp_fm_syevd_base                    19  8.0    0.007    0.007    0.007    0.007
 qs_diis_b_step                      18  6.0    0.000    0.000    0.005    0.005
 -------------------------------------------------------------------------------

 The number of warnings for this run is : 0
 
 -------------------------------------------------------------------------------
  **** **** ******  **  PROGRAM ENDED AT                 2026-05-23 22:46:23.556
 ***** ** ***  *** **   PROGRAM RAN ON                                spark-c86c
 **    ****   ******    PROGRAM RAN BY                                  kuehne88
 ***** **    ** ** **   PROGRAM PROCESS ID                               2237428
  **** **  *******  **  PROGRAM STOPPED IN /home/kuehne88/periodic-gfn2-benchmar
                                           ks/X23b/runs/crystal_sp/gamma/GFN2/su
                                           ccinic_acid_GFN2_gamma_sp
