 DBCSR| CPU Multiplication driver                                           XSMM (U)
 DBCSR| Multrec recursion limit                                              512 (U)
 DBCSR| Multiplication stack size                                           1000 (D)
 DBCSR| Maximum elements for images                                    UNLIMITED (U)
 DBCSR| Multiplicative factor virtual images                                   1 (U)
 DBCSR| Use multiplication densification                                       T (D)
 DBCSR| Multiplication size stacks                                             3 (U)
 DBCSR| Use memory pool for CPU allocation                                     F (U)
 DBCSR| Number of 3D layers                                               SINGLE (U)
 DBCSR| Use MPI memory allocation                                              F (U)
 DBCSR| Use RMA algorithm                                                      F (U)
 DBCSR| Use Communication thread                                               T (U)
 DBCSR| Communication thread load                                             87 (D)
 DBCSR| MPI: My process id                                                     0
 DBCSR| MPI: Number of processes                                               1
 DBCSR| OMP: Current number of threads                                         1
 DBCSR| OMP: Max number of threads                                             1
 DBCSR| Split modifier for TAS multiplication algorithm                  1.0E+00 (U)


  **** **** ******  **  PROGRAM STARTED AT               2026-05-23 22:47:07.245
 ***** ** ***  *** **   PROGRAM STARTED ON                            spark-c86c
 **    ****   ******    PROGRAM STARTED BY                              kuehne88
 ***** **    ** ** **   PROGRAM PROCESS ID                               2267208
  **** **  *******  **  PROGRAM STARTED IN /home/kuehne88/periodic-gfn2-benchmar
                                           ks/X23b/runs/cellopt_gamma/GFN1/uraci
                                           l_GFN1_gamma_cellopt

 CP2K| version string:                 CP2K version 2026.1 (Development Version)
 CP2K| source code revision number:                                   0622d442e4
 CP2K| cp2kflags: omp fftw3 libxc parallel scalapack mpi_f08 xsmm spglib libdftd
 CP2K|            4 dftd4_v3 mctc-lib tblite
 CP2K| is freely available from                            https://www.cp2k.org/
 CP2K| Program compiled at                                   2026-05-23 22:05:08
 CP2K| Program compiled on                                            spark-c86c
 CP2K| Program compiled for                                              aarch64
 CP2K| Data directory path    /home/kuehne88/cp2k-master-tblite-20260523/install
 CP2K| Input file name                             uracil_GFN1_gamma_cellopt.inp

 GLOBAL| Force Environment number                                              1
 GLOBAL| Basis set file name                                           BASIS_SET
 GLOBAL| Potential file name                                           POTENTIAL
 GLOBAL| MM Potential file name                                     MM_POTENTIAL
 GLOBAL| Coordinate file name                                      __STD_INPUT__
 GLOBAL| Method name                                                        CP2K
 GLOBAL| Project name                                 uracil_GFN1_gamma_cell_opt
 GLOBAL| Run type                                                       CELL_OPT
 GLOBAL| FFT library                                                       FFTW3
 GLOBAL| Diagonalization library                                       ScaLAPACK
 GLOBAL| Cholesky decomposition library                                ScaLAPACK
 GLOBAL| DGEMM library                                                      BLAS
 GLOBAL| Direct generalized diagonalization requested                          F
 GLOBAL| Orthonormality check for eigenvectors                          DISABLED
 GLOBAL| Matrix multiplication library                                 ScaLAPACK
 GLOBAL| All-to-all communication in single precision                          F
 GLOBAL| FFTs using library dependent lengths                                  F
 GLOBAL| Grid backend                                                       AUTO
 GLOBAL| Global print level                                                  LOW
 GLOBAL| MPI I/O enabled                                                       T
 GLOBAL| Total number of message passing processes                             1
 GLOBAL| Number of distributed systems (nodes)                                 1
 GLOBAL| Number of threads for this process                                    1
 GLOBAL| This output is from process                                           0
 GLOBAL| OpenMP stack size per thread (OMP_STACKSIZE)                    default
 GLOBAL| CPU model name                                                  UNKNOWN
 GLOBAL| CPUID                                                              2200
 GLOBAL| Compiled for CPUID                                                 2000

 *** HINT in environment.F:970 :: The compiler target flags (arm_arch64)   ***
 *** used to build this binary cannot exploit all extensions of this CPU   ***
 *** model (arm_sve256). Consider compiler target flags as part of FCFLAGS ***
 *** and CFLAGS (ARCH file).                                               ***


 MEMORY| system memory details [Kb]
 MEMORY|                        rank 0           min           max       average
 MEMORY| MemTotal            125508532     125508532     125508532     125508532
 MEMORY| MemFree             103999720     103999720     103999720     103999720
 MEMORY| Buffers                867716        867716        867716        867716
 MEMORY| Cached               14062412      14062412      14062412      14062412
 MEMORY| Slab                  1594768       1594768       1594768       1594768
 MEMORY| SReclaimable           916348        916348        916348        916348
 MEMORY| MemLikelyFree       119846196     119846196     119846196     119846196


 GENERATE|  Preliminary Number of Bonds generated:                             0
 GENERATE|  Achieved consistency in connectivity generation.


                  #####   #####        #     #   #     #       #          
                 #     # #     #      #    ##### #     #   # #####  ####  
                 #     # #           #       #   ###   #       #   #    # 
                 #     #  #####     #        #   #  #  #   #   #   ###### 
                 #   # #       #   #         #   #   # #   #   #   #      
                 #    #  #     #  #          #   #  #  # # #   #    #   # 
                  #### #  #####  #           #   ###   ##  #   #     ###  

                                   GFN1-xTB  
                                 Version 0.0                       
                            Johann V. Pototschnig                  



 TOTAL NUMBERS AND MAXIMUM NUMBERS

  Total number of            - Atomic kinds:                                   4
                             - Atoms:                                         48
                             - Shell sets:                                    96
                             - Shells:                                        96
                             - Primitive Cartesian functions:                560
                             - Cartesian basis functions:                    160
                             - Spherical basis functions:                    160

  Maximum angular momentum of the orbital basis functions:                     1


 SCF PARAMETERS         Density guess:                                     MOPAC
                        --------------------------------------------------------
                        max_scf:                                             300
                        max_scf_history:                                       0
                        max_diis:                                              4
                        --------------------------------------------------------
                        eps_scf:                                        1.00E-09
                        eps_scf_history:                                0.00E+00
                        eps_diis:                                       1.00E-01
                        eps_eigval:                                     1.00E-05
                        --------------------------------------------------------
                        level_shift [a.u.]:                             0.000000
                        added MOs                                        76    0
                        --------------------------------------------------------
                        Mixing method:                           DIRECT_P_MIXING
                        --------------------------------------------------------
                        Smear method:                                FERMI_DIRAC
                        Electronic temperature [K]:                        300.0
                        Electronic temperature [a.u.]:                  9.50E-04
                        Accuracy threshold:                             1.00E-06
                        --------------------------------------------------------
                        No outer SCF

 CELL_OPT| Pressure tolerance [bar]:                                       100.0
 CELL_OPT| Keep volume of cell:                                               NO
 CELL_OPT| Keep angles between the cell vectors:                              NO
 CELL_OPT| Keep cell symmetry:                                                NO
 CELL_OPT| Constraint:                                                      NONE

 BFGS| Use rational function optimization for step estimation:                NO
 BFGS| Use model Hessian for initial guess:                                   NO
 BFGS| Restart Hessian:                                                       NO
 BFGS| Trust radius:                                                       0.472

 *******************************************************************************
 ***                     STARTING   CELL   OPTIMIZATION                      ***
 ***                                   BFGS                                  ***
 *******************************************************************************

 CELL| Volume [angstrom^3]:                                           463.386269
 CELL| Vector a [angstrom]:      11.938     0.000     0.000   |a| =    11.938000
 CELL| Vector b [angstrom]:       0.000    12.376     0.000   |b| =    12.376000
 CELL| Vector c [angstrom]:      -1.877     0.000     3.136   |c| =     3.655200
 CELL| Angle (b,c), alpha [degree]:                                    90.000000
 CELL| Angle (a,c), beta  [degree]:                                   120.900000
 CELL| Angle (a,b), gamma [degree]:                                    90.000000
 CELL| Numerically orthorhombic:                                              NO
 CELL| Periodicity                                                           XYZ

 Extrapolation method: initial_guess

 Number of electrons:                                                        168
 Number of occupied orbitals:                                                 84
 Number of molecular orbitals:                                               160

 Number of orbital functions:                                                160
 Number of independent orbital functions:                                    160


 SCF WAVEFUNCTION OPTIMIZATION

  Step     Update method      Time    Convergence         Total energy    Change
  ------------------------------------------------------------------------------
     1 TBLite/Diag 0.40E+00    0.0     1.60528358      -103.5298760787 -1.04E+02
     2 TBLite/Diag 0.40E+00    0.0     0.31150912      -105.4233773028 -1.89E+00
     3 TBLite/Diag 0.40E+00    0.0     0.05498608      -105.4395854167 -1.62E-02
     4 TBLite/Diag 0.40E+00    0.0     0.02681936      -105.4419771187 -2.39E-03
     5 TBLite/Diag 0.40E+00    0.0     0.01456693      -105.4437227815 -1.75E-03
     6 TBLite/Diag 0.40E+00    0.0     0.00240507      -105.4438006112 -7.78E-05
     7 TBLite/Diag 0.40E+00    0.0     0.00127750      -105.4438080663 -7.46E-06
     8 TBLite/Diag 0.40E+00    0.0     0.00043797      -105.4438088666 -8.00E-07
     9 TBLite/Diag 0.40E+00    0.0     0.00010033      -105.4438089094 -4.28E-08
    10 TBLite/Diag 0.40E+00    0.0     0.00003411      -105.4438089196 -1.03E-08
    11 TBLite/Diag 0.40E+00    0.0     0.00000199      -105.4438089196  1.31E-12
    12 TBLite/Diag 0.40E+00    0.0     0.00000204      -105.4438089196 -7.52E-12
    13 TBLite/Diag 0.40E+00    0.0     0.00000100      -105.4438089196 -5.88E-12
    14 TBLite/Diag 0.40E+00    0.0     0.00000031      -105.4438089196 -2.56E-13
    15 TBLite/Diag 0.40E+00    0.0     0.00000013      -105.4438089196 -2.13E-13
    16 TBLite/Diag 0.40E+00    0.0     1.0552E-09      -105.4438089196  1.56E-13
    17 TBLite/Diag 0.40E+00    0.0     6.8273E-10      -105.4438089196 -2.84E-14

  *** SCF run converged in    17 steps ***


  Core Hamiltonian energy:                                   -107.68474786232676
  Repulsive potential energy:                                   1.80516584168275
  Electrostatic energy:                                         0.53160224999784
  Self-consistent dispersion energy:                            0.00000000000000
  Non-self consistent dispersion energy:                       -0.09582914899992
  Correction for halogen bonding:                               0.00000000000000
  Electronic entropic energy:                                  -0.00000000000000
  Fermi energy:                                                -0.33078055468914

  Total energy:                                              -105.44380891964609
  Total energy (extrapolated to T->0):                       -105.44380891964609

 ENERGY| Total FORCE_EVAL ( QS ) energy [hartree]           -105.443808919646088

 OPT| **************************************************************************
 OPT| Step number                                                              0
 OPT| Optimization method                                                   BFGS
 OPT| Total energy [hartree]                                     -105.4438089196
 OPT| Internal pressure [bar]                                  188548.8962142718
 OPT| Used time [s]                                                        0.426
 OPT| **************************************************************************
 OPT| Estimated peak process memory [MiB]                                    172

 --------------------------
 OPTIMIZATION STEP:      1
 --------------------------

 CELL| Volume [angstrom^3]:                                           476.901905
 CELL| Vector a [angstrom]:      12.007     0.000     0.000   |a| =    12.007282
 CELL| Vector b [angstrom]:       0.000    12.428     0.000   |b| =    12.428232
 CELL| Vector c [angstrom]:      -1.890    -0.000     3.196   |c| =     3.712719
 CELL| Angle (b,c), alpha [degree]:                                    90.000000
 CELL| Angle (a,c), beta  [degree]:                                   120.597782
 CELL| Angle (a,b), gamma [degree]:                                    90.000000
 CELL| Numerically orthorhombic:                                              NO
 CELL| Periodicity                                                           XYZ

 Extrapolation method: ASPC

 Number of electrons:                                                        168
 Number of occupied orbitals:                                                 84
 Number of molecular orbitals:                                               160

 Number of orbital functions:                                                160
 Number of independent orbital functions:                                    160


 SCF WAVEFUNCTION OPTIMIZATION

  Step     Update method      Time    Convergence         Total energy    Change
  ------------------------------------------------------------------------------
     1 TBLite/Diag 0.40E+00    0.0     0.30608374      -105.6423438656 -1.06E+02
     2 TBLite/Diag 0.40E+00    0.0     0.04006389      -105.6525140885 -1.02E-02
     3 TBLite/Diag 0.40E+00    0.0     0.00924009      -105.6531223958 -6.08E-04
     4 TBLite/Diag 0.40E+00    0.0     0.00237830      -105.6531467106 -2.43E-05
     5 TBLite/Diag 0.40E+00    0.0     0.00121974      -105.6531556031 -8.89E-06
     6 TBLite/Diag 0.40E+00    0.0     0.00025674      -105.6531563242 -7.21E-07
     7 TBLite/Diag 0.40E+00    0.0     0.00010116      -105.6531564074 -8.32E-08
     8 TBLite/Diag 0.40E+00    0.0     0.00001362      -105.6531564089 -1.54E-09
     9 TBLite/Diag 0.40E+00    0.0     0.00000506      -105.6531564091 -1.60E-10
    10 TBLite/Diag 0.40E+00    0.0     0.00000076      -105.6531564091 -2.81E-12
    11 TBLite/Diag 0.40E+00    0.0     0.00000008      -105.6531564091  1.14E-13
    12 TBLite/Diag 0.40E+00    0.0     6.2302E-09      -105.6531564091 -1.42E-14
    13 TBLite/Diag 0.40E+00    0.0     1.3639E-09      -105.6531564091 -9.95E-14
    14 TBLite/Diag 0.40E+00    0.0     2.0332E-10      -105.6531564091  8.53E-14

  *** SCF run converged in    14 steps ***


  Core Hamiltonian energy:                                   -107.42719263477721
  Repulsive potential energy:                                   1.32854731090600
  Electrostatic energy:                                         0.53784386669413
  Self-consistent dispersion energy:                            0.00000000000000
  Non-self consistent dispersion energy:                       -0.09235495190612
  Correction for halogen bonding:                               0.00000000000000
  Electronic entropic energy:                                  -0.00000000000000
  Fermi energy:                                                -0.31026058710109

  Total energy:                                              -105.65315640908319
  Total energy (extrapolated to T->0):                       -105.65315640908319

 ENERGY| Total FORCE_EVAL ( QS ) energy [hartree]           -105.653156409083195

 OPT| **************************************************************************
 OPT| Step number                                                              1
 OPT| Optimization method                                                   BFGS
 OPT| Total energy [hartree]                                     -105.6531564091
 OPT| Internal pressure [bar]                                  105873.3362620949
 OPT| Effective energy change [hartree]                            -0.2093474894
 OPT| Predicted energy change [hartree]                            -0.6631845427
 OPT| Scaling factor                                                0.0000000000
 OPT| Step size                                                     0.2704857650
 OPT| Trust radius                                                  0.4724315332
 OPT| Decrease in energy                                                     YES
 OPT| Used time [s]                                                        0.355
 OPT|
 OPT| Maximum step size                                             0.2704857650
 OPT| Convergence limit for maximum step size                       0.0030000000
 OPT| Maximum step size is converged                                          NO
 OPT|
 OPT| RMS step size                                                 0.0940343585
 OPT| Convergence limit for RMS step size                           0.0015000000
 OPT| RMS step size is converged                                              NO
 OPT|
 OPT| Maximum gradient                                              0.1986778163
 OPT| Convergence limit for maximum gradient                        0.0004500000
 OPT| Maximum gradient is converged                                           NO
 OPT|
 OPT| RMS gradient                                                  0.0490433726
 OPT| Convergence limit for RMS gradient                            0.0003000000
 OPT| RMS gradient is converged                                               NO
 OPT|
 OPT| Pressure deviation [bar]                                 105873.3362620949
 OPT| Pressure tolerance [bar]                                    100.0000000000
 OPT| Pressure is converged                                                   NO
 OPT| **************************************************************************
 OPT| Estimated peak process memory after this step [MiB]                    173

 --------------------------
 OPTIMIZATION STEP:      2
 --------------------------

 CELL| Volume [angstrom^3]:                                           484.629120
 CELL| Vector a [angstrom]:      12.034     0.000     0.000   |a| =    12.034451
 CELL| Vector b [angstrom]:       0.000    12.458     0.000   |b| =    12.457665
 CELL| Vector c [angstrom]:      -1.901    -0.000     3.233   |c| =     3.750010
 CELL| Angle (b,c), alpha [degree]:                                    90.000000
 CELL| Angle (a,c), beta  [degree]:                                   120.456556
 CELL| Angle (a,b), gamma [degree]:                                    90.000000
 CELL| Numerically orthorhombic:                                              NO
 CELL| Periodicity                                                           XYZ

 Extrapolation method: ASPC

 Number of electrons:                                                        168
 Number of occupied orbitals:                                                 84
 Number of molecular orbitals:                                               160

 Number of orbital functions:                                                160
 Number of independent orbital functions:                                    160


 SCF WAVEFUNCTION OPTIMIZATION

  Step     Update method      Time    Convergence         Total energy    Change
  ------------------------------------------------------------------------------
     1 TBLite/Diag 0.40E+00    0.0     0.09380933      -105.8039160896 -1.06E+02
     2 TBLite/Diag 0.40E+00    0.0     0.02011961      -105.8053133617 -1.40E-03
     3 TBLite/Diag 0.40E+00    0.0     0.00402802      -105.8053930139 -7.97E-05
     4 TBLite/Diag 0.40E+00    0.0     0.00105452      -105.8053924921  5.22E-07
     5 TBLite/Diag 0.40E+00    0.0     0.00080802      -105.8053974890 -5.00E-06
     6 TBLite/Diag 0.40E+00    0.0     0.00012516      -105.8053976268 -1.38E-07
     7 TBLite/Diag 0.40E+00    0.0     0.00005655      -105.8053976452 -1.85E-08
     8 TBLite/Diag 0.40E+00    0.0     0.00000433      -105.8053976454 -1.85E-10
     9 TBLite/Diag 0.40E+00    0.0     0.00000173      -105.8053976455 -2.59E-11
    10 TBLite/Diag 0.40E+00    0.0     0.00000036      -105.8053976455 -1.38E-12
    11 TBLite/Diag 0.40E+00    0.0     0.00000002      -105.8053976455  1.56E-13
    12 TBLite/Diag 0.40E+00    0.0     9.0464E-09      -105.8053976455 -1.99E-13
    13 TBLite/Diag 0.40E+00    0.0     9.3524E-10      -105.8053976455  1.28E-13

  *** SCF run converged in    13 steps ***


  Core Hamiltonian energy:                                   -107.46168506188593
  Repulsive potential energy:                                   1.20633311738147
  Electrostatic energy:                                         0.54124635583155
  Self-consistent dispersion energy:                            0.00000000000000
  Non-self consistent dispersion energy:                       -0.09129205677851
  Correction for halogen bonding:                               0.00000000000000
  Electronic entropic energy:                                  -0.00000000000000
  Fermi energy:                                                -0.32749495317362

  Total energy:                                              -105.80539764545142
  Total energy (extrapolated to T->0):                       -105.80539764545142

 ENERGY| Total FORCE_EVAL ( QS ) energy [hartree]           -105.805397645451421

 OPT| **************************************************************************
 OPT| Step number                                                              2
 OPT| Optimization method                                                   BFGS
 OPT| Total energy [hartree]                                     -105.8053976455
 OPT| Internal pressure [bar]                                   50376.6677372374
 OPT| Effective energy change [hartree]                            -0.1522412364
 OPT| Predicted energy change [hartree]                            -0.1139839686
 OPT| Scaling factor                                                0.0000000000
 OPT| Step size                                                     0.1261781111
 OPT| Trust radius                                                  0.4724315332
 OPT| Decrease in energy                                                     YES
 OPT| Used time [s]                                                        0.350
 OPT|
 OPT| Maximum step size                                             0.1261781111
 OPT| Convergence limit for maximum step size                       0.0030000000
 OPT| Maximum step size is converged                                          NO
 OPT|
 OPT| RMS step size                                                 0.0313448586
 OPT| Convergence limit for RMS step size                           0.0015000000
 OPT| RMS step size is converged                                              NO
 OPT|
 OPT| Maximum gradient                                              0.0798015573
 OPT| Convergence limit for maximum gradient                        0.0004500000
 OPT| Maximum gradient is converged                                           NO
 OPT|
 OPT| RMS gradient                                                  0.0206724058
 OPT| Convergence limit for RMS gradient                            0.0003000000
 OPT| RMS gradient is converged                                               NO
 OPT|
 OPT| Pressure deviation [bar]                                  50376.6677372374
 OPT| Pressure tolerance [bar]                                    100.0000000000
 OPT| Pressure is converged                                                   NO
 OPT| **************************************************************************
 OPT| Estimated peak process memory after this step [MiB]                    174

 --------------------------
 OPTIMIZATION STEP:      3
 --------------------------

 CELL| Volume [angstrom^3]:                                           496.002992
 CELL| Vector a [angstrom]:      12.069     0.000     0.000   |a| =    12.068963
 CELL| Vector b [angstrom]:       0.000    12.469     0.000   |b| =    12.469130
 CELL| Vector c [angstrom]:      -1.925    -0.000     3.296   |c| =     3.816925
 CELL| Angle (b,c), alpha [degree]:                                    90.000000
 CELL| Angle (a,c), beta  [degree]:                                   120.287637
 CELL| Angle (a,b), gamma [degree]:                                    90.000000
 CELL| Numerically orthorhombic:                                              NO
 CELL| Periodicity                                                           XYZ

 Extrapolation method: ASPC

 Number of electrons:                                                        168
 Number of occupied orbitals:                                                 84
 Number of molecular orbitals:                                               160

 Number of orbital functions:                                                160
 Number of independent orbital functions:                                    160


 SCF WAVEFUNCTION OPTIMIZATION

  Step     Update method      Time    Convergence         Total energy    Change
  ------------------------------------------------------------------------------
     1 TBLite/Diag 0.40E+00    0.0     0.11001460      -105.8445249576 -1.06E+02
     2 TBLite/Diag 0.40E+00    0.0     0.02440273      -105.8473602011 -2.84E-03
     3 TBLite/Diag 0.40E+00    0.0     0.00678175      -105.8476668812 -3.07E-04
     4 TBLite/Diag 0.40E+00    0.0     0.00090938      -105.8476663507  5.30E-07
     5 TBLite/Diag 0.40E+00    0.0     0.00063001      -105.8476685663 -2.22E-06
     6 TBLite/Diag 0.40E+00    0.0     0.00012226      -105.8476686897 -1.23E-07
     7 TBLite/Diag 0.40E+00    0.0     0.00002403      -105.8476686944 -4.73E-09
     8 TBLite/Diag 0.40E+00    0.0     0.00000755      -105.8476686950 -5.60E-10
     9 TBLite/Diag 0.40E+00    0.0     0.00000060      -105.8476686950 -2.43E-12
    10 TBLite/Diag 0.40E+00    0.0     0.00000006      -105.8476686950 -1.42E-14
    11 TBLite/Diag 0.40E+00    0.0     0.00000003      -105.8476686950  1.14E-13
    12 TBLite/Diag 0.40E+00    0.0     9.3786E-10      -105.8476686950  1.42E-13

  *** SCF run converged in    12 steps ***


  Core Hamiltonian energy:                                   -107.47351587749638
  Repulsive potential energy:                                   1.18817954762757
  Electrostatic energy:                                         0.52688003790058
  Self-consistent dispersion energy:                            0.00000000000000
  Non-self consistent dispersion energy:                       -0.08921240303423
  Correction for halogen bonding:                               0.00000000000000
  Electronic entropic energy:                                  -0.00000000000000
  Fermi energy:                                                -0.32812226420790

  Total energy:                                              -105.84766869500247
  Total energy (extrapolated to T->0):                       -105.84766869500247

 ENERGY| Total FORCE_EVAL ( QS ) energy [hartree]           -105.847668695002469

 OPT| **************************************************************************
 OPT| Step number                                                              3
 OPT| Optimization method                                                   BFGS
 OPT| Total energy [hartree]                                     -105.8476686950
 OPT| Internal pressure [bar]                                   25975.0734600034
 OPT| Effective energy change [hartree]                            -0.0422710496
 OPT| Predicted energy change [hartree]                            -0.0449891766
 OPT| Scaling factor                                                0.0000000000
 OPT| Step size                                                     0.1197551700
 OPT| Trust radius                                                  0.4724315332
 OPT| Decrease in energy                                                     YES
 OPT| Used time [s]                                                        0.357
 OPT|
 OPT| Maximum step size                                             0.1197551700
 OPT| Convergence limit for maximum step size                       0.0030000000
 OPT| Maximum step size is converged                                          NO
 OPT|
 OPT| RMS step size                                                 0.0292285675
 OPT| Convergence limit for RMS step size                           0.0015000000
 OPT| RMS step size is converged                                              NO
 OPT|
 OPT| Maximum gradient                                              0.0585636664
 OPT| Convergence limit for maximum gradient                        0.0004500000
 OPT| Maximum gradient is converged                                           NO
 OPT|
 OPT| RMS gradient                                                  0.0094796190
 OPT| Convergence limit for RMS gradient                            0.0003000000
 OPT| RMS gradient is converged                                               NO
 OPT|
 OPT| Pressure deviation [bar]                                  25975.0734600034
 OPT| Pressure tolerance [bar]                                    100.0000000000
 OPT| Pressure is converged                                                   NO
 OPT| **************************************************************************
 OPT| Estimated peak process memory after this step [MiB]                    175

 --------------------------
 OPTIMIZATION STEP:      4
 --------------------------

 CELL| Volume [angstrom^3]:                                           502.114060
 CELL| Vector a [angstrom]:      12.080     0.000     0.000   |a| =    12.080008
 CELL| Vector b [angstrom]:      -0.000    12.474     0.000   |b| =    12.474121
 CELL| Vector c [angstrom]:      -1.944    -0.000     3.332   |c| =     3.857809
 CELL| Angle (b,c), alpha [degree]:                                    90.000000
 CELL| Angle (a,c), beta  [degree]:                                   120.260528
 CELL| Angle (a,b), gamma [degree]:                                    90.000000
 CELL| Numerically orthorhombic:                                              NO
 CELL| Periodicity                                                           XYZ

 Extrapolation method: ASPC

 Number of electrons:                                                        168
 Number of occupied orbitals:                                                 84
 Number of molecular orbitals:                                               160

 Number of orbital functions:                                                160
 Number of independent orbital functions:                                    160


 SCF WAVEFUNCTION OPTIMIZATION

  Step     Update method      Time    Convergence         Total energy    Change
  ------------------------------------------------------------------------------
     1 TBLite/Diag 0.40E+00    0.0     0.01633425      -105.8570011886 -1.06E+02
     2 TBLite/Diag 0.40E+00    0.0     0.00711000      -105.8571755567 -1.74E-04
     3 TBLite/Diag 0.40E+00    0.0     0.00205920      -105.8571918744 -1.63E-05
     4 TBLite/Diag 0.40E+00    0.0     0.00039723      -105.8571923760 -5.02E-07
     5 TBLite/Diag 0.40E+00    0.0     0.00011461      -105.8571924324 -5.65E-08
     6 TBLite/Diag 0.40E+00    0.0     0.00003803      -105.8571924432 -1.08E-08
     7 TBLite/Diag 0.40E+00    0.0     0.00001293      -105.8571924437 -4.83E-10
     8 TBLite/Diag 0.40E+00    0.0     0.00000110      -105.8571924437 -6.27E-12
     9 TBLite/Diag 0.40E+00    0.0     0.00000035      -105.8571924437 -6.11E-13
    10 TBLite/Diag 0.40E+00    0.0     0.00000004      -105.8571924437 -5.68E-14
    11 TBLite/Diag 0.40E+00    0.0     2.6834E-09      -105.8571924437 -8.53E-14
    12 TBLite/Diag 0.40E+00    0.0     1.0932E-09      -105.8571924437  9.95E-14
    13 TBLite/Diag 0.40E+00    0.0     6.0481E-10      -105.8571924437 -7.11E-14

  *** SCF run converged in    13 steps ***


  Core Hamiltonian energy:                                   -107.45561365360088
  Repulsive potential energy:                                   1.15654222163735
  Electrostatic energy:                                         0.52988824573624
  Self-consistent dispersion energy:                            0.00000000000000
  Non-self consistent dispersion energy:                       -0.08800925747393
  Correction for halogen bonding:                               0.00000000000000
  Electronic entropic energy:                                  -0.00000000000000
  Fermi energy:                                                -0.32987077292085

  Total energy:                                              -105.85719244370121
  Total energy (extrapolated to T->0):                       -105.85719244370121

 ENERGY| Total FORCE_EVAL ( QS ) energy [hartree]           -105.857192443701209

 OPT| **************************************************************************
 OPT| Step number                                                              4
 OPT| Optimization method                                                   BFGS
 OPT| Total energy [hartree]                                     -105.8571924437
 OPT| Internal pressure [bar]                                   14249.7899838211
 OPT| Effective energy change [hartree]                            -0.0095237487
 OPT| Predicted energy change [hartree]                            -0.0058694357
 OPT| Scaling factor                                                0.0000000000
 OPT| Step size                                                     0.0684520654
 OPT| Trust radius                                                  0.4724315332
 OPT| Decrease in energy                                                     YES
 OPT| Used time [s]                                                        0.337
 OPT|
 OPT| Maximum step size                                             0.0684520654
 OPT| Convergence limit for maximum step size                       0.0030000000
 OPT| Maximum step size is converged                                          NO
 OPT|
 OPT| RMS step size                                                 0.0089968473
 OPT| Convergence limit for RMS step size                           0.0015000000
 OPT| RMS step size is converged                                              NO
 OPT|
 OPT| Maximum gradient                                              0.0491458803
 OPT| Convergence limit for maximum gradient                        0.0004500000
 OPT| Maximum gradient is converged                                           NO
 OPT|
 OPT| RMS gradient                                                  0.0061288470
 OPT| Convergence limit for RMS gradient                            0.0003000000
 OPT| RMS gradient is converged                                               NO
 OPT|
 OPT| Pressure deviation [bar]                                  14249.7899838211
 OPT| Pressure tolerance [bar]                                    100.0000000000
 OPT| Pressure is converged                                                   NO
 OPT| **************************************************************************
 OPT| Estimated peak process memory after this step [MiB]                    175

 --------------------------
 OPTIMIZATION STEP:      5
 --------------------------

 CELL| Volume [angstrom^3]:                                           520.741074
 CELL| Vector a [angstrom]:      12.111     0.000     0.000   |a| =    12.110685
 CELL| Vector b [angstrom]:       0.000    12.478     0.000   |b| =    12.477920
 CELL| Vector c [angstrom]:      -2.010     0.000     3.446   |c| =     3.989131
 CELL| Angle (b,c), alpha [degree]:                                    90.000000
 CELL| Angle (a,c), beta  [degree]:                                   120.249649
 CELL| Angle (a,b), gamma [degree]:                                    90.000000
 CELL| Numerically orthorhombic:                                              NO
 CELL| Periodicity                                                           XYZ

 Extrapolation method: ASPC

 Number of electrons:                                                        168
 Number of occupied orbitals:                                                 84
 Number of molecular orbitals:                                               160

 Number of orbital functions:                                                160
 Number of independent orbital functions:                                    160


 SCF WAVEFUNCTION OPTIMIZATION

  Step     Update method      Time    Convergence         Total energy    Change
  ------------------------------------------------------------------------------
     1 TBLite/Diag 0.40E+00    0.0     0.01723772      -105.8705918117 -1.06E+02
     2 TBLite/Diag 0.40E+00    0.0     0.00648124      -105.8707682391 -1.76E-04
     3 TBLite/Diag 0.40E+00    0.0     0.00214635      -105.8707834784 -1.52E-05
     4 TBLite/Diag 0.40E+00    0.0     0.00071717      -105.8707845475 -1.07E-06
     5 TBLite/Diag 0.40E+00    0.0     0.00020310      -105.8707847852 -2.38E-07
     6 TBLite/Diag 0.40E+00    0.0     0.00003489      -105.8707847951 -9.87E-09
     7 TBLite/Diag 0.40E+00    0.0     0.00001037      -105.8707847960 -9.16E-10
     8 TBLite/Diag 0.40E+00    0.0     0.00000193      -105.8707847960 -1.54E-11
     9 TBLite/Diag 0.40E+00    0.0     0.00000030      -105.8707847960 -8.67E-13
    10 TBLite/Diag 0.40E+00    0.0     0.00000012      -105.8707847960 -1.42E-13
    11 TBLite/Diag 0.40E+00    0.0     4.6269E-09      -105.8707847960  0.00E+00
    12 TBLite/Diag 0.40E+00    0.0     1.3492E-09      -105.8707847960  8.53E-14
    13 TBLite/Diag 0.40E+00    0.0     6.4083E-10      -105.8707847960  1.42E-14

  *** SCF run converged in    13 steps ***


  Core Hamiltonian energy:                                   -107.42490990951435
  Repulsive potential energy:                                   1.10628211801094
  Electrostatic energy:                                         0.53228035620154
  Self-consistent dispersion energy:                            0.00000000000000
  Non-self consistent dispersion energy:                       -0.08443736070508
  Correction for halogen bonding:                               0.00000000000000
  Electronic entropic energy:                                  -0.00000000000000
  Fermi energy:                                                -0.33210980989634

  Total energy:                                              -105.87078479600696
  Total energy (extrapolated to T->0):                       -105.87078479600696

 ENERGY| Total FORCE_EVAL ( QS ) energy [hartree]           -105.870784796006959

 OPT| **************************************************************************
 OPT| Step number                                                              5
 OPT| Optimization method                                                   BFGS
 OPT| Total energy [hartree]                                     -105.8707847960
 OPT| Internal pressure [bar]                                   -7929.4666964664
 OPT| Effective energy change [hartree]                            -0.0135923523
 OPT| Predicted energy change [hartree]                            -0.0103841031
 OPT| Scaling factor                                                0.0000000000
 OPT| Step size                                                     0.2150708997
 OPT| Trust radius                                                  0.4724315332
 OPT| Decrease in energy                                                     YES
 OPT| Used time [s]                                                        0.331
 OPT|
 OPT| Maximum step size                                             0.2150708997
 OPT| Convergence limit for maximum step size                       0.0030000000
 OPT| Maximum step size is converged                                          NO
 OPT|
 OPT| RMS step size                                                 0.0249466988
 OPT| Convergence limit for RMS step size                           0.0015000000
 OPT| RMS step size is converged                                              NO
 OPT|
 OPT| Maximum gradient                                              0.0299859018
 OPT| Convergence limit for maximum gradient                        0.0004500000
 OPT| Maximum gradient is converged                                           NO
 OPT|
 OPT| RMS gradient                                                  0.0047550797
 OPT| Convergence limit for RMS gradient                            0.0003000000
 OPT| RMS gradient is converged                                               NO
 OPT|
 OPT| Pressure deviation [bar]                                  -7929.4666964664
 OPT| Pressure tolerance [bar]                                    100.0000000000
 OPT| Pressure is converged                                                   NO
 OPT| **************************************************************************
 OPT| Estimated peak process memory after this step [MiB]                    176

 --------------------------
 OPTIMIZATION STEP:      6
 --------------------------

 CELL| Volume [angstrom^3]:                                           533.180371
 CELL| Vector a [angstrom]:      12.125     0.000     0.000   |a| =    12.124977
 CELL| Vector b [angstrom]:      -0.000    12.469     0.000   |b| =    12.469196
 CELL| Vector c [angstrom]:      -2.067    -0.000     3.527   |c| =     4.087612
 CELL| Angle (b,c), alpha [degree]:                                    90.000000
 CELL| Angle (a,c), beta  [degree]:                                   120.373200
 CELL| Angle (a,b), gamma [degree]:                                    90.000000
 CELL| Numerically orthorhombic:                                              NO
 CELL| Periodicity                                                           XYZ

 Extrapolation method: ASPC

 Number of electrons:                                                        168
 Number of occupied orbitals:                                                 84
 Number of molecular orbitals:                                               160

 Number of orbital functions:                                                160
 Number of independent orbital functions:                                    160


 SCF WAVEFUNCTION OPTIMIZATION

  Step     Update method      Time    Convergence         Total energy    Change
  ------------------------------------------------------------------------------
     1 TBLite/Diag 0.40E+00    0.0     0.00844021      -105.8762088007 -1.06E+02
     2 TBLite/Diag 0.40E+00    0.0     0.00309771      -105.8762661069 -5.73E-05
     3 TBLite/Diag 0.40E+00    0.0     0.00057016      -105.8762687144 -2.61E-06
     4 TBLite/Diag 0.40E+00    0.0     0.00016327      -105.8762687385 -2.41E-08
     5 TBLite/Diag 0.40E+00    0.0     0.00008547      -105.8762687830 -4.44E-08
     6 TBLite/Diag 0.40E+00    0.0     0.00001019      -105.8762687838 -7.97E-10
     7 TBLite/Diag 0.40E+00    0.0     0.00000641      -105.8762687841 -3.01E-10
     8 TBLite/Diag 0.40E+00    0.0     0.00000108      -105.8762687841 -1.29E-11
     9 TBLite/Diag 0.40E+00    0.0     0.00000032      -105.8762687841  1.14E-13
    10 TBLite/Diag 0.40E+00    0.0     0.00000002      -105.8762687841 -1.71E-13
    11 TBLite/Diag 0.40E+00    0.0     3.0763E-09      -105.8762687841 -8.53E-14
    12 TBLite/Diag 0.40E+00    0.0     2.4364E-09      -105.8762687841 -9.95E-14
    13 TBLite/Diag 0.40E+00    0.0     9.4739E-10      -105.8762687841  1.42E-13

  *** SCF run converged in    13 steps ***


  Core Hamiltonian energy:                                   -107.41971034294276
  Repulsive potential energy:                                   1.09342203679393
  Electrostatic energy:                                         0.53212026141837
  Self-consistent dispersion energy:                            0.00000000000000
  Non-self consistent dispersion energy:                       -0.08210073937517
  Correction for halogen bonding:                               0.00000000000000
  Electronic entropic energy:                                  -0.00000000000000
  Fermi energy:                                                -0.33161280403507

  Total energy:                                              -105.87626878410562
  Total energy (extrapolated to T->0):                       -105.87626878410562

 ENERGY| Total FORCE_EVAL ( QS ) energy [hartree]           -105.876268784105619

 OPT| **************************************************************************
 OPT| Step number                                                              6
 OPT| Optimization method                                                   BFGS
 OPT| Total energy [hartree]                                     -105.8762687841
 OPT| Internal pressure [bar]                                  -14766.1628536485
 OPT| Effective energy change [hartree]                            -0.0054839881
 OPT| Predicted energy change [hartree]                            -0.0036953042
 OPT| Scaling factor                                                0.0000000000
 OPT| Step size                                                     0.1523554889
 OPT| Trust radius                                                  0.4724315332
 OPT| Decrease in energy                                                     YES
 OPT| Used time [s]                                                        0.319
 OPT|
 OPT| Maximum step size                                             0.1523554889
 OPT| Convergence limit for maximum step size                       0.0030000000
 OPT| Maximum step size is converged                                          NO
 OPT|
 OPT| RMS step size                                                 0.0171771646
 OPT| Convergence limit for RMS step size                           0.0015000000
 OPT| RMS step size is converged                                              NO
 OPT|
 OPT| Maximum gradient                                              0.0278051700
 OPT| Convergence limit for maximum gradient                        0.0004500000
 OPT| Maximum gradient is converged                                           NO
 OPT|
 OPT| RMS gradient                                                  0.0043143635
 OPT| Convergence limit for RMS gradient                            0.0003000000
 OPT| RMS gradient is converged                                               NO
 OPT|
 OPT| Pressure deviation [bar]                                 -14766.1628536485
 OPT| Pressure tolerance [bar]                                    100.0000000000
 OPT| Pressure is converged                                                   NO
 OPT| **************************************************************************
 OPT| Estimated peak process memory after this step [MiB]                    176

 --------------------------
 OPTIMIZATION STEP:      7
 --------------------------

 CELL| Volume [angstrom^3]:                                           546.064003
 CELL| Vector a [angstrom]:      12.131     0.000     0.000   |a| =    12.130780
 CELL| Vector b [angstrom]:       0.000    12.447     0.000   |b| =    12.447461
 CELL| Vector c [angstrom]:      -2.146     0.000     3.616   |c| =     4.205206
 CELL| Angle (b,c), alpha [degree]:                                    90.000000
 CELL| Angle (a,c), beta  [degree]:                                   120.686023
 CELL| Angle (a,b), gamma [degree]:                                    90.000000
 CELL| Numerically orthorhombic:                                              NO
 CELL| Periodicity                                                           XYZ

 Extrapolation method: ASPC

 Number of electrons:                                                        168
 Number of occupied orbitals:                                                 84
 Number of molecular orbitals:                                               160

 Number of orbital functions:                                                160
 Number of independent orbital functions:                                    160


 SCF WAVEFUNCTION OPTIMIZATION

  Step     Update method      Time    Convergence         Total energy    Change
  ------------------------------------------------------------------------------
     1 TBLite/Diag 0.40E+00    0.0     0.00736725      -105.8809757295 -1.06E+02
     2 TBLite/Diag 0.40E+00    0.0     0.00362006      -105.8810420678 -6.63E-05
     3 TBLite/Diag 0.40E+00    0.0     0.00060646      -105.8810443365 -2.27E-06
     4 TBLite/Diag 0.40E+00    0.0     0.00012183      -105.8810443832 -4.67E-08
     5 TBLite/Diag 0.40E+00    0.0     0.00006112      -105.8810444138 -3.06E-08
     6 TBLite/Diag 0.40E+00    0.0     0.00000892      -105.8810444143 -5.05E-10
     7 TBLite/Diag 0.40E+00    0.0     0.00000442      -105.8810444144 -1.39E-10
     8 TBLite/Diag 0.40E+00    0.0     0.00000161      -105.8810444144 -2.44E-11
     9 TBLite/Diag 0.40E+00    0.0     0.00000010      -105.8810444144  2.84E-14
    10 TBLite/Diag 0.40E+00    0.0     0.00000003      -105.8810444144 -1.85E-13
    11 TBLite/Diag 0.40E+00    0.0     7.4898E-09      -105.8810444144 -1.42E-14
    12 TBLite/Diag 0.40E+00    0.0     1.5476E-09      -105.8810444144 -4.26E-14
    13 TBLite/Diag 0.40E+00    0.0     7.8358E-10      -105.8810444144 -1.42E-14

  *** SCF run converged in    13 steps ***


  Core Hamiltonian energy:                                   -107.43301557756631
  Repulsive potential energy:                                   1.09961611481875
  Electrostatic energy:                                         0.53205347628369
  Self-consistent dispersion energy:                            0.00000000000000
  Non-self consistent dispersion energy:                       -0.07969842798037
  Correction for halogen bonding:                               0.00000000000000
  Electronic entropic energy:                                  -0.00000000000000
  Fermi energy:                                                -0.33050531370660

  Total energy:                                              -105.88104441444425
  Total energy (extrapolated to T->0):                       -105.88104441444425

 ENERGY| Total FORCE_EVAL ( QS ) energy [hartree]           -105.881044414444247

 OPT| **************************************************************************
 OPT| Step number                                                              7
 OPT| Optimization method                                                   BFGS
 OPT| Total energy [hartree]                                     -105.8810444144
 OPT| Internal pressure [bar]                                  -14836.7152266963
 OPT| Effective energy change [hartree]                            -0.0047756303
 OPT| Predicted energy change [hartree]                            -0.0033937544
 OPT| Scaling factor                                                0.0000000000
 OPT| Step size                                                     0.1696809775
 OPT| Trust radius                                                  0.4724315332
 OPT| Decrease in energy                                                     YES
 OPT| Used time [s]                                                        0.316
 OPT|
 OPT| Maximum step size                                             0.1696809775
 OPT| Convergence limit for maximum step size                       0.0030000000
 OPT| Maximum step size is converged                                          NO
 OPT|
 OPT| RMS step size                                                 0.0199623635
 OPT| Convergence limit for RMS step size                           0.0015000000
 OPT| RMS step size is converged                                              NO
 OPT|
 OPT| Maximum gradient                                              0.0219557695
 OPT| Convergence limit for maximum gradient                        0.0004500000
 OPT| Maximum gradient is converged                                           NO
 OPT|
 OPT| RMS gradient                                                  0.0034005923
 OPT| Convergence limit for RMS gradient                            0.0003000000
 OPT| RMS gradient is converged                                               NO
 OPT|
 OPT| Pressure deviation [bar]                                 -14836.7152266963
 OPT| Pressure tolerance [bar]                                    100.0000000000
 OPT| Pressure is converged                                                   NO
 OPT| **************************************************************************
 OPT| Estimated peak process memory after this step [MiB]                    176

 --------------------------
 OPTIMIZATION STEP:      8
 --------------------------

 CELL| Volume [angstrom^3]:                                           552.583476
 CELL| Vector a [angstrom]:      12.125     0.000     0.000   |a| =    12.124776
 CELL| Vector b [angstrom]:      -0.000    12.424     0.000   |b| =    12.423708
 CELL| Vector c [angstrom]:      -2.210    -0.000     3.668   |c| =     4.282536
 CELL| Angle (b,c), alpha [degree]:                                    90.000000
 CELL| Angle (a,c), beta  [degree]:                                   121.064402
 CELL| Angle (a,b), gamma [degree]:                                    90.000000
 CELL| Numerically orthorhombic:                                              NO
 CELL| Periodicity                                                           XYZ

 Extrapolation method: ASPC

 Number of electrons:                                                        168
 Number of occupied orbitals:                                                 84
 Number of molecular orbitals:                                               160

 Number of orbital functions:                                                160
 Number of independent orbital functions:                                    160


 SCF WAVEFUNCTION OPTIMIZATION

  Step     Update method      Time    Convergence         Total energy    Change
  ------------------------------------------------------------------------------
     1 TBLite/Diag 0.40E+00    0.0     0.00850969      -105.8835957723 -1.06E+02
     2 TBLite/Diag 0.40E+00    0.0     0.00276942      -105.8836334475 -3.77E-05
     3 TBLite/Diag 0.40E+00    0.0     0.00038713      -105.8836342040 -7.56E-07
     4 TBLite/Diag 0.40E+00    0.0     0.00013567      -105.8836342002  3.84E-09
     5 TBLite/Diag 0.40E+00    0.0     0.00007966      -105.8836342362 -3.60E-08
     6 TBLite/Diag 0.40E+00    0.0     0.00000961      -105.8836342370 -8.59E-10
     7 TBLite/Diag 0.40E+00    0.0     0.00000275      -105.8836342371 -4.80E-11
     8 TBLite/Diag 0.40E+00    0.0     0.00000127      -105.8836342371 -6.05E-12
     9 TBLite/Diag 0.40E+00    0.0     0.00000012      -105.8836342371 -1.99E-13
    10 TBLite/Diag 0.40E+00    0.0     0.00000004      -105.8836342371 -9.95E-14
    11 TBLite/Diag 0.40E+00    0.0     3.4680E-09      -105.8836342371  9.95E-14
    12 TBLite/Diag 0.40E+00    0.0     1.7412E-09      -105.8836342371 -1.28E-13
    13 TBLite/Diag 0.40E+00    0.0     1.0886E-09      -105.8836342371  5.68E-14
    14 TBLite/Diag 0.40E+00    0.0     2.1828E-10      -105.8836342371 -2.84E-14

  *** SCF run converged in    14 steps ***


  Core Hamiltonian energy:                                   -107.45619463804519
  Repulsive potential energy:                                   1.11841408286544
  Electrostatic energy:                                         0.53260090392855
  Self-consistent dispersion energy:                            0.00000000000000
  Non-self consistent dispersion energy:                       -0.07845458582343
  Correction for halogen bonding:                               0.00000000000000
  Electronic entropic energy:                                  -0.00000000000000
  Fermi energy:                                                -0.32963704897862

  Total energy:                                              -105.88363423707462
  Total energy (extrapolated to T->0):                       -105.88363423707462

 ENERGY| Total FORCE_EVAL ( QS ) energy [hartree]           -105.883634237074617

 OPT| **************************************************************************
 OPT| Step number                                                              8
 OPT| Optimization method                                                   BFGS
 OPT| Total energy [hartree]                                     -105.8836342371
 OPT| Internal pressure [bar]                                  -10175.5220941931
 OPT| Effective energy change [hartree]                            -0.0025898226
 OPT| Predicted energy change [hartree]                            -0.0018925532
 OPT| Scaling factor                                                0.0000000000
 OPT| Step size                                                     0.1204469052
 OPT| Trust radius                                                  0.4724315332
 OPT| Decrease in energy                                                     YES
 OPT| Used time [s]                                                        0.320
 OPT|
 OPT| Maximum step size                                             0.1204469052
 OPT| Convergence limit for maximum step size                       0.0030000000
 OPT| Maximum step size is converged                                          NO
 OPT|
 OPT| RMS step size                                                 0.0138266974
 OPT| Convergence limit for RMS step size                           0.0015000000
 OPT| RMS step size is converged                                              NO
 OPT|
 OPT| Maximum gradient                                              0.0144765757
 OPT| Convergence limit for maximum gradient                        0.0004500000
 OPT| Maximum gradient is converged                                           NO
 OPT|
 OPT| RMS gradient                                                  0.0026903788
 OPT| Convergence limit for RMS gradient                            0.0003000000
 OPT| RMS gradient is converged                                               NO
 OPT|
 OPT| Pressure deviation [bar]                                 -10175.5220941931
 OPT| Pressure tolerance [bar]                                    100.0000000000
 OPT| Pressure is converged                                                   NO
 OPT| **************************************************************************
 OPT| Estimated peak process memory after this step [MiB]                    176

 --------------------------
 OPTIMIZATION STEP:      9
 --------------------------

 CELL| Volume [angstrom^3]:                                           552.329891
 CELL| Vector a [angstrom]:      12.112     0.000     0.000   |a| =    12.112171
 CELL| Vector b [angstrom]:       0.000    12.405     0.000   |b| =    12.404951
 CELL| Vector c [angstrom]:      -2.247     0.000     3.676   |c| =     4.308258
 CELL| Angle (b,c), alpha [degree]:                                    90.000000
 CELL| Angle (a,c), beta  [degree]:                                   121.432314
 CELL| Angle (a,b), gamma [degree]:                                    90.000000
 CELL| Numerically orthorhombic:                                              NO
 CELL| Periodicity                                                           XYZ

 Extrapolation method: ASPC

 Number of electrons:                                                        168
 Number of occupied orbitals:                                                 84
 Number of molecular orbitals:                                               160

 Number of orbital functions:                                                160
 Number of independent orbital functions:                                    160


 SCF WAVEFUNCTION OPTIMIZATION

  Step     Update method      Time    Convergence         Total energy    Change
  ------------------------------------------------------------------------------
     1 TBLite/Diag 0.40E+00    0.0     0.00832615      -105.8853687649 -1.06E+02
     2 TBLite/Diag 0.40E+00    0.0     0.00178423      -105.8853809838 -1.22E-05
     3 TBLite/Diag 0.40E+00    0.0     0.00037479      -105.8853814661 -4.82E-07
     4 TBLite/Diag 0.40E+00    0.0     0.00010422      -105.8853815025 -3.64E-08
     5 TBLite/Diag 0.40E+00    0.0     0.00002693      -105.8853815074 -4.86E-09
     6 TBLite/Diag 0.40E+00    0.0     0.00000669      -105.8853815076 -2.83E-10
     7 TBLite/Diag 0.40E+00    0.0     0.00000222      -105.8853815077 -5.01E-11
     8 TBLite/Diag 0.40E+00    0.0     0.00000035      -105.8853815077 -5.83E-13
     9 TBLite/Diag 0.40E+00    0.0     0.00000008      -105.8853815077  9.95E-14
    10 TBLite/Diag 0.40E+00    0.0     0.00000003      -105.8853815077 -2.70E-13
    11 TBLite/Diag 0.40E+00    0.0     2.3871E-09      -105.8853815077  1.85E-13
    12 TBLite/Diag 0.40E+00    0.0     2.5349E-10      -105.8853815077 -7.11E-14

  *** SCF run converged in    12 steps ***


  Core Hamiltonian energy:                                   -107.47978884720533
  Repulsive potential energy:                                   1.13953844111801
  Electrostatic energy:                                         0.53328521921303
  Self-consistent dispersion energy:                            0.00000000000000
  Non-self consistent dispersion energy:                       -0.07841632082274
  Correction for halogen bonding:                               0.00000000000000
  Electronic entropic energy:                                  -0.00000000000000
  Fermi energy:                                                -0.32939927671644

  Total energy:                                              -105.88538150769703
  Total energy (extrapolated to T->0):                       -105.88538150769703

 ENERGY| Total FORCE_EVAL ( QS ) energy [hartree]           -105.885381507697033

 OPT| **************************************************************************
 OPT| Step number                                                              9
 OPT| Optimization method                                                   BFGS
 OPT| Total energy [hartree]                                     -105.8853815077
 OPT| Internal pressure [bar]                                   -3425.2730132967
 OPT| Effective energy change [hartree]                            -0.0017472706
 OPT| Predicted energy change [hartree]                            -0.0011813193
 OPT| Scaling factor                                                0.0000000000
 OPT| Step size                                                     0.0697756566
 OPT| Trust radius                                                  0.4724315332
 OPT| Decrease in energy                                                     YES
 OPT| Used time [s]                                                        0.309
 OPT|
 OPT| Maximum step size                                             0.0697756566
 OPT| Convergence limit for maximum step size                       0.0030000000
 OPT| Maximum step size is converged                                          NO
 OPT|
 OPT| RMS step size                                                 0.0079506211
 OPT| Convergence limit for RMS step size                           0.0015000000
 OPT| RMS step size is converged                                              NO
 OPT|
 OPT| Maximum gradient                                              0.0129401522
 OPT| Convergence limit for maximum gradient                        0.0004500000
 OPT| Maximum gradient is converged                                           NO
 OPT|
 OPT| RMS gradient                                                  0.0022178640
 OPT| Convergence limit for RMS gradient                            0.0003000000
 OPT| RMS gradient is converged                                               NO
 OPT|
 OPT| Pressure deviation [bar]                                  -3425.2730132967
 OPT| Pressure tolerance [bar]                                    100.0000000000
 OPT| Pressure is converged                                                   NO
 OPT| **************************************************************************
 OPT| Estimated peak process memory after this step [MiB]                    176

 --------------------------
 OPTIMIZATION STEP:     10
 --------------------------

 CELL| Volume [angstrom^3]:                                           549.323716
 CELL| Vector a [angstrom]:      12.099     0.000     0.000   |a| =    12.099093
 CELL| Vector b [angstrom]:      -0.000    12.388     0.000   |b| =    12.388481
 CELL| Vector c [angstrom]:      -2.279    -0.000     3.665   |c| =     4.315761
 CELL| Angle (b,c), alpha [degree]:                                    90.000000
 CELL| Angle (a,c), beta  [degree]:                                   121.877329
 CELL| Angle (a,b), gamma [degree]:                                    90.000000
 CELL| Numerically orthorhombic:                                              NO
 CELL| Periodicity                                                           XYZ

 Extrapolation method: ASPC

 Number of electrons:                                                        168
 Number of occupied orbitals:                                                 84
 Number of molecular orbitals:                                               160

 Number of orbital functions:                                                160
 Number of independent orbital functions:                                    160


 SCF WAVEFUNCTION OPTIMIZATION

  Step     Update method      Time    Convergence         Total energy    Change
  ------------------------------------------------------------------------------
     1 TBLite/Diag 0.40E+00    0.0     0.00608327      -105.8867231865 -1.06E+02
     2 TBLite/Diag 0.40E+00    0.0     0.00185967      -105.8867391771 -1.60E-05
     3 TBLite/Diag 0.40E+00    0.0     0.00041692      -105.8867401080 -9.31E-07
     4 TBLite/Diag 0.40E+00    0.0     0.00009657      -105.8867401332 -2.53E-08
     5 TBLite/Diag 0.40E+00    0.0     0.00003763      -105.8867401424 -9.15E-09
     6 TBLite/Diag 0.40E+00    0.0     0.00001443      -105.8867401433 -8.90E-10
     7 TBLite/Diag 0.40E+00    0.0     0.00000169      -105.8867401433 -2.85E-11
     8 TBLite/Diag 0.40E+00    0.0     0.00000053      -105.8867401433 -1.22E-12
     9 TBLite/Diag 0.40E+00    0.0     0.00000013      -105.8867401433  1.42E-13
    10 TBLite/Diag 0.40E+00    0.0     9.8467E-09      -105.8867401433 -1.71E-13
    11 TBLite/Diag 0.40E+00    0.0     1.3039E-09      -105.8867401433  4.26E-14
    12 TBLite/Diag 0.40E+00    0.0     2.8419E-10      -105.8867401433 -1.42E-14

  *** SCF run converged in    12 steps ***


  Core Hamiltonian energy:                                   -107.49611615546694
  Repulsive potential energy:                                   1.15412029281554
  Electrostatic energy:                                         0.53413397142674
  Self-consistent dispersion energy:                            0.00000000000000
  Non-self consistent dispersion energy:                       -0.07887825207425
  Correction for halogen bonding:                               0.00000000000000
  Electronic entropic energy:                                  -0.00000000000000
  Fermi energy:                                                -0.32967568644142

  Total energy:                                              -105.88674014329889
  Total energy (extrapolated to T->0):                       -105.88674014329889

 ENERGY| Total FORCE_EVAL ( QS ) energy [hartree]           -105.886740143298894

 OPT| **************************************************************************
 OPT| Step number                                                             10
 OPT| Optimization method                                                   BFGS
 OPT| Total energy [hartree]                                     -105.8867401433
 OPT| Internal pressure [bar]                                    1697.5528965774
 OPT| Effective energy change [hartree]                            -0.0013586356
 OPT| Predicted energy change [hartree]                            -0.0009630571
 OPT| Scaling factor                                                0.0000000000
 OPT| Step size                                                     0.0613137939
 OPT| Trust radius                                                  0.4724315332
 OPT| Decrease in energy                                                     YES
 OPT| Used time [s]                                                        0.340
 OPT|
 OPT| Maximum step size                                             0.0613137939
 OPT| Convergence limit for maximum step size                       0.0030000000
 OPT| Maximum step size is converged                                          NO
 OPT|
 OPT| RMS step size                                                 0.0080598768
 OPT| Convergence limit for RMS step size                           0.0015000000
 OPT| RMS step size is converged                                              NO
 OPT|
 OPT| Maximum gradient                                              0.0123530396
 OPT| Convergence limit for maximum gradient                        0.0004500000
 OPT| Maximum gradient is converged                                           NO
 OPT|
 OPT| RMS gradient                                                  0.0021336767
 OPT| Convergence limit for RMS gradient                            0.0003000000
 OPT| RMS gradient is converged                                               NO
 OPT|
 OPT| Pressure deviation [bar]                                   1697.5528965774
 OPT| Pressure tolerance [bar]                                    100.0000000000
 OPT| Pressure is converged                                                   NO
 OPT| **************************************************************************
 OPT| Estimated peak process memory after this step [MiB]                    176

 --------------------------
 OPTIMIZATION STEP:     11
 --------------------------

 CELL| Volume [angstrom^3]:                                           545.866030
 CELL| Vector a [angstrom]:      12.092     0.000     0.000   |a| =    12.091550
 CELL| Vector b [angstrom]:       0.000    12.376     0.000   |b| =    12.376461
 CELL| Vector c [angstrom]:      -2.309     0.000     3.648   |c| =     4.316852
 CELL| Angle (b,c), alpha [degree]:                                    90.000000
 CELL| Angle (a,c), beta  [degree]:                                   122.331456
 CELL| Angle (a,b), gamma [degree]:                                    90.000000
 CELL| Numerically orthorhombic:                                              NO
 CELL| Periodicity                                                           XYZ

 Extrapolation method: ASPC

 Number of electrons:                                                        168
 Number of occupied orbitals:                                                 84
 Number of molecular orbitals:                                               160

 Number of orbital functions:                                                160
 Number of independent orbital functions:                                    160


 SCF WAVEFUNCTION OPTIMIZATION

  Step     Update method      Time    Convergence         Total energy    Change
  ------------------------------------------------------------------------------
     1 TBLite/Diag 0.40E+00    0.0     0.00485426      -105.8878228337 -1.06E+02
     2 TBLite/Diag 0.40E+00    0.0     0.00152165      -105.8878349580 -1.21E-05
     3 TBLite/Diag 0.40E+00    0.0     0.00034819      -105.8878355251 -5.67E-07
     4 TBLite/Diag 0.40E+00    0.0     0.00008428      -105.8878355325 -7.38E-09
     5 TBLite/Diag 0.40E+00    0.0     0.00003475      -105.8878355430 -1.05E-08
     6 TBLite/Diag 0.40E+00    0.0     0.00000867      -105.8878355436 -5.47E-10
     7 TBLite/Diag 0.40E+00    0.0     0.00000332      -105.8878355436 -5.98E-11
     8 TBLite/Diag 0.40E+00    0.0     0.00000039      -105.8878355436 -7.67E-13
     9 TBLite/Diag 0.40E+00    0.0     0.00000012      -105.8878355436  0.00E+00
    10 TBLite/Diag 0.40E+00    0.0     0.00000005      -105.8878355436 -3.55E-13
    11 TBLite/Diag 0.40E+00    0.0     1.0872E-09      -105.8878355436  8.53E-14
    12 TBLite/Diag 0.40E+00    0.0     6.9555E-10      -105.8878355436  0.00E+00

  *** SCF run converged in    12 steps ***


  Core Hamiltonian energy:                                   -107.49890032169496
  Repulsive potential energy:                                   1.15642920005198
  Electrostatic energy:                                         0.53409620899310
  Self-consistent dispersion energy:                            0.00000000000000
  Non-self consistent dispersion energy:                       -0.07946063097846
  Correction for halogen bonding:                               0.00000000000000
  Electronic entropic energy:                                  -0.00000000000000
  Fermi energy:                                                -0.33008136816762

  Total energy:                                              -105.88783554362833
  Total energy (extrapolated to T->0):                       -105.88783554362833

 ENERGY| Total FORCE_EVAL ( QS ) energy [hartree]           -105.887835543628327

 OPT| **************************************************************************
 OPT| Step number                                                             11
 OPT| Optimization method                                                   BFGS
 OPT| Total energy [hartree]                                     -105.8878355436
 OPT| Internal pressure [bar]                                    2918.5048201217
 OPT| Effective energy change [hartree]                            -0.0010954003
 OPT| Predicted energy change [hartree]                            -0.0007030259
 OPT| Scaling factor                                                0.0000000000
 OPT| Step size                                                     0.0558595208
 OPT| Trust radius                                                  0.4724315332
 OPT| Decrease in energy                                                     YES
 OPT| Used time [s]                                                        0.341
 OPT|
 OPT| Maximum step size                                             0.0558595208
 OPT| Convergence limit for maximum step size                       0.0030000000
 OPT| Maximum step size is converged                                          NO
 OPT|
 OPT| RMS step size                                                 0.0074689716
 OPT| Convergence limit for RMS step size                           0.0015000000
 OPT| RMS step size is converged                                              NO
 OPT|
 OPT| Maximum gradient                                              0.0108376791
 OPT| Convergence limit for maximum gradient                        0.0004500000
 OPT| Maximum gradient is converged                                           NO
 OPT|
 OPT| RMS gradient                                                  0.0021185847
 OPT| Convergence limit for RMS gradient                            0.0003000000
 OPT| RMS gradient is converged                                               NO
 OPT|
 OPT| Pressure deviation [bar]                                   2918.5048201217
 OPT| Pressure tolerance [bar]                                    100.0000000000
 OPT| Pressure is converged                                                   NO
 OPT| **************************************************************************
 OPT| Estimated peak process memory after this step [MiB]                    176

 --------------------------
 OPTIMIZATION STEP:     12
 --------------------------

 CELL| Volume [angstrom^3]:                                           541.023945
 CELL| Vector a [angstrom]:      12.087     0.000     0.000   |a| =    12.086624
 CELL| Vector b [angstrom]:      -0.000    12.360     0.000   |b| =    12.360220
 CELL| Vector c [angstrom]:      -2.357    -0.000     3.621   |c| =     4.320995
 CELL| Angle (b,c), alpha [degree]:                                    90.000000
 CELL| Angle (a,c), beta  [degree]:                                   123.058826
 CELL| Angle (a,b), gamma [degree]:                                    90.000000
 CELL| Numerically orthorhombic:                                              NO
 CELL| Periodicity                                                           XYZ

 Extrapolation method: ASPC

 Number of electrons:                                                        168
 Number of occupied orbitals:                                                 84
 Number of molecular orbitals:                                               160

 Number of orbital functions:                                                160
 Number of independent orbital functions:                                    160


 SCF WAVEFUNCTION OPTIMIZATION

  Step     Update method      Time    Convergence         Total energy    Change
[...]
 CELL| Numerically orthorhombic:                                              NO
 CELL| Periodicity                                                           XYZ

 Extrapolation method: ASPC

 Number of electrons:                                                        168
 Number of occupied orbitals:                                                 84
 Number of molecular orbitals:                                               160

 Number of orbital functions:                                                160
 Number of independent orbital functions:                                    160


 SCF WAVEFUNCTION OPTIMIZATION

  Step     Update method      Time    Convergence         Total energy    Change
  ------------------------------------------------------------------------------
     1 TBLite/Diag 0.40E+00    0.0     0.00074115      -105.9787664508 -1.06E+02
     2 TBLite/Diag 0.40E+00    0.0     0.00007349      -105.9787664834 -3.25E-08
     3 TBLite/Diag 0.40E+00    0.0     0.00002369      -105.9787664882 -4.83E-09
     4 TBLite/Diag 0.40E+00    0.0     0.00000466      -105.9787664883 -1.05E-10
     5 TBLite/Diag 0.40E+00    0.0     0.00000164      -105.9787664883 -1.85E-11
     6 TBLite/Diag 0.40E+00    0.0     0.00000022      -105.9787664883 -6.68E-13
     7 TBLite/Diag 0.40E+00    0.0     0.00000019      -105.9787664883 -9.95E-14
     8 TBLite/Diag 0.40E+00    0.0     0.00000002      -105.9787664883 -1.42E-14
     9 TBLite/Diag 0.40E+00    0.0     8.3692E-09      -105.9787664883 -7.11E-14
    10 TBLite/Diag 0.40E+00    0.0     4.5217E-09      -105.9787664883  9.95E-14
    11 TBLite/Diag 0.40E+00    0.0     1.3164E-09      -105.9787664883 -8.53E-14
    12 TBLite/Diag 0.40E+00    0.0     7.8515E-11      -105.9787664883 -2.84E-14

  *** SCF run converged in    12 steps ***


  Core Hamiltonian energy:                                   -107.51935519578706
  Repulsive potential energy:                                   1.12342227376737
  Electrostatic energy:                                         0.53649719917161
  Self-consistent dispersion energy:                            0.00000000000000
  Non-self consistent dispersion energy:                       -0.11933076549984
  Correction for halogen bonding:                               0.00000000000000
  Electronic entropic energy:                                  -0.00000000000000
  Fermi energy:                                                -0.32062049535444

  Total energy:                                              -105.97876648834792
  Total energy (extrapolated to T->0):                       -105.97876648834792

 ENERGY| Total FORCE_EVAL ( QS ) energy [hartree]           -105.978766488347915

 OPT| **************************************************************************
 OPT| Step number                                                            127
 OPT| Optimization method                                                   BFGS
 OPT| Total energy [hartree]                                     -105.9787664883
 OPT| Internal pressure [bar]                                     -85.5233159139
 OPT| Effective energy change [hartree]                            -0.0000034238
 OPT| Predicted energy change [hartree]                            -0.0000025278
 OPT| Scaling factor                                                0.6748747610
 OPT| Step size                                                     0.0023888235
 OPT| Trust radius                                                  0.4724315332
 OPT| Decrease in energy                                                     YES
 OPT| Used time [s]                                                        0.863
 OPT|
 OPT| Maximum step size                                             0.0023888235
 OPT| Convergence limit for maximum step size                       0.0030000000
 OPT| Maximum step size is converged                                         YES
 OPT|
 OPT| RMS step size                                                 0.0012351342
 OPT| Convergence limit for RMS step size                           0.0015000000
 OPT| RMS step size is converged                                             YES
 OPT|
 OPT| Maximum gradient                                              0.0001975164
 OPT| Convergence limit for maximum gradient                        0.0004500000
 OPT| Maximum gradient is converged                                          YES
 OPT|
 OPT| RMS gradient                                                  0.0000943910
 OPT| Convergence limit for RMS gradient                            0.0003000000
 OPT| RMS gradient is converged                                              YES
 OPT|
 OPT| Pressure deviation [bar]                                    -85.5233159139
 OPT| Pressure tolerance [bar]                                    100.0000000000
 OPT| Pressure is converged                                                  YES
 OPT| **************************************************************************
 OPT| Estimated peak process memory after this step [MiB]                    176

 *******************************************************************************
 ***                    GEOMETRY OPTIMIZATION COMPLETED                      ***
 *******************************************************************************

 write_final_structure: Optimization converged, writing XYZ file gladly:
  uracil_GFN1_gamma_cell_opt-FINAL-1_127.xyz

 write_final_structure: Optimization converged, writing CIF file gladly:
  uracil_GFN1_gamma_cell_opt-FINAL-1_127.cif

 write_final_structure: Done!

                    Reevaluating energy at the minimum

 CELL| Volume [angstrom^3]:                                           373.097063
 CELL| Vector a [angstrom]:      11.831     0.000     0.000   |a| =    11.830788
 CELL| Vector b [angstrom]:      -0.000    12.051     0.000   |b| =    12.050807
 CELL| Vector c [angstrom]:      -3.393    -0.000     2.617   |c| =     4.284991
 CELL| Angle (b,c), alpha [degree]:                                    90.000000
 CELL| Angle (a,c), beta  [degree]:                                   142.358420
 CELL| Angle (a,b), gamma [degree]:                                    90.000000
 CELL| Numerically orthorhombic:                                              NO
 CELL| Periodicity                                                           XYZ

 Extrapolation method: ASPC

 Number of electrons:                                                        168
 Number of occupied orbitals:                                                 84
 Number of molecular orbitals:                                               160

 Number of orbital functions:                                                160
 Number of independent orbital functions:                                    160


 SCF WAVEFUNCTION OPTIMIZATION

  Step     Update method      Time    Convergence         Total energy    Change
  ------------------------------------------------------------------------------
     1 TBLite/Diag 0.40E+00    0.0     2.7433E-11      -105.9787664883 -1.06E+02

  *** SCF run converged in     1 steps ***


  Core Hamiltonian energy:                                   -107.51935519577970
  Repulsive potential energy:                                   1.12342227376737
  Electrostatic energy:                                         0.53649719916422
  Self-consistent dispersion energy:                            0.00000000000000
  Non-self consistent dispersion energy:                       -0.11933076549984
  Correction for halogen bonding:                               0.00000000000000
  Electronic entropic energy:                                  -0.00000000000000
  Fermi energy:                                                -0.32062049535406

  Total energy:                                              -105.97876648834794
  Total energy (extrapolated to T->0):                       -105.97876648834794

 ENERGY| Total FORCE_EVAL ( QS ) energy [hartree]           -105.978766488347944

 -------------------------------------------------------------------------------
 -                                                                             -
 -                                DBCSR STATISTICS                             -
 -                                                                             -
 -------------------------------------------------------------------------------
 COUNTER                                    TOTAL       BLAS       SMM       ACC
 flops     2 x    32 x     2            206438400       0.0%    100.0%      0.0%     
 flops     2 x     2 x   160            330577920       0.0%    100.0%      0.0%     
 flops     2 x    32 x     4            825753600       0.0%    100.0%      0.0%     
 flops     4 x    32 x     2            825753600       0.0%    100.0%      0.0%     
 flops     2 x     4 x   160           1244528640       0.0%    100.0%      0.0%     
 flops     4 x     2 x   160           1244528640       0.0%    100.0%      0.0%     
 flops     4 x    32 x     4           3302195200       0.0%    100.0%      0.0%     
 flops     4 x     4 x   160           5132431360       0.0%    100.0%      0.0%     
 flops inhomo. stacks                           0       0.0%      0.0%      0.0%
 flops total                        13.112207E+09       0.0%    100.0%      0.0%
 flops max/rank                     13.112207E+09       0.0%    100.0%      0.0%
 matmuls inhomo. stacks                         0       0.0%      0.0%      0.0%
 matmuls total                            9489780       0.0%    100.0%      0.0%
 number of processed stacks                 16416       0.0%    100.0%      0.0%
 average stack size                                     0.0     578.1       0.0
 marketing flops                    13.328179E+09
 -------------------------------------------------------------------------------
 # multiplications                           2529
 max memory usage/rank              13.679874E+09
 # max total images/rank                        1
 # max 3D layers                                1
 # MPI messages exchanged                       0
 -------------------------------------------------------------------------------
 -                                                                             -
 -                      DBCSR MESSAGE PASSING PERFORMANCE                      -
 -                                                                             -
 -------------------------------------------------------------------------------
 ROUTINE             CALLS      AVE VOLUME [Bytes]
 MP_Bcast                9                     12.
 MP_Allreduce        11420                      8.
 MP_Alltoall         83046                 135009.
 MP_ISend            10116                   9941.
 MP_IRecv            10116                   9941.
 -------------------------------------------------------------------------------

 -------------------------------------------------------------------------------
 -                                                                             -
 -                          OFFLOAD MEMPOOL STATISTICS                         -
 -                                                                             -
 -------------------------------------------------------------------------------
 Memory consumption                Number of allocations  Used [MiB]  Size [MiB]
 Device                                                1           0           0
 Host                                                  1           0           0
 -------------------------------------------------------------------------------

 MEMORY| Estimated peak process memory [MiB]                                 176

 -------------------------------------------------------------------------------
 -                                                                             -
 -                         MESSAGE PASSING PERFORMANCE                         -
 -                                                                             -
 -------------------------------------------------------------------------------

 ROUTINE             CALLS      AVE VOLUME [Bytes]
 MP_Group              128
 MP_Bcast             3796                    639.
 MP_Allreduce        31074                    301.
 MP_Sync              2026
 MP_comm_split        1898
 -------------------------------------------------------------------------------


 -------------------------------------------------------------------------------
 -                                                                             -
 -                           R E F E R E N C E S                               -
 -                                                                             -
 -------------------------------------------------------------------------------
 
 CP2K version 2026.1 (Development Version), the CP2K developers group (2026).
 CP2K is freely available from https://www.cp2k.org/ .
 
 M. Iannuzzi, J. Wilhelm, F. Stein, A. Bussy, H. Elgabarty, D. Golze, A. Hehn, 
 M. Graml, S. Marek, B. Sertcan Gökmen, C. Schran, H. Forbert, R. Z. 
 Khaliullin, A. Kozhevnikov, M. Taillefumier, R. Meli, V. V. Rybkin, M. Brehm, 
 R. Schade, O. Schütt, J. V. Pototschnig, H. Mirhosseini, A. Knüpfer, D. Marx, 
 M. Krack, J. Hutter, T. D. Kühne.
 J. Phys. Chem. B 130, 1237-1310 (2026).
 The CP2K Program Package Made Simple.
 https://doi.org/10.1021/acs.jpcb.5c05851

 A. Katbashev, M. Stahn, T. Rose, V. Alizadeh, M. Friede, C. Plett, P. 
 Steinbach, S. Ehlert.
 J. Phys. Chem. A 129, 2667-2682 (2025).
 Overview on Building Blocks and Applications of Efficient and Robust Extended 
 Tight Binding.
 https://doi.org/10.1021/acs.jpca.4c08263

 T. D. Kühne, M. Iannuzzi, M. Del Ben, V. V. Rybkin, P. Seewald, F. Stein, T. 
 Laino, R. Z. Khaliullin, O. Schütt, F. Schiffmann, D. Golze, J. Wilhelm, S. 
 Chulkov, M. H. Bani-Hashemian, V. Weber, U. Borstnik, M. Taillefumier, A. S. 
 Jakobovits, A. Lazzaro, H. Pabst, T. Müller, R. Schade, M. Guidon, S. 
 Andermatt, N. Holmberg, G. K. Schenter, A. Hehn, A. Bussy, F. Belleflamme, G. 
 Tabacchi, A. Glöß, M. Lass, I. Bethune, C. J. Mundy, C. Plessl, M. Watkins, 
 J. VandeVondele, M. Krack, J. Hutter.
 J. Chem. Phys. 152, 194103 (2020).
 CP2K: An electronic structure and molecular dynamics software package - 
 Quickstep: Efficient and accurate electronic structure calculations.
 https://doi.org/10.1063/5.0007045

 P. Pracht, E. Caldeweyher, S. Ehlert, S. Grimme.
 ChemRxiv, (2019).
 A Robust Non-Self-Consistent Tight-Binding Quantum Chemistry Method for large 
 Molecules.
 https://doi.org/10.26434/chemrxiv.8326202.v1

 S. Grimme, C. Bannwarth, P. Shushkov.
 J. Chem. Theory Comput. 13, 1989 (2017).
 A Robust and Accurate Tight-Binding Quantum Chemical Method for Structures, 
 Vibrational Frequencies, and Noncovalent Interactions of Large Molecular 
 Systems Parametrized for All spd-Block Elements (Z = 1-86).
 https://doi.org/10.1021/acs.jctc.7b00118

 O. Schuett, P. Messmer, J. Hutter, J. VandeVondele.
 Electronic Structure Calculations on Graphics Processing Units, 173-190 (2016).
 GPU-Accelerated Sparse Matrix-Matrix Multiplication for Linear Scaling Density 
 Functional Theory.
 https://doi.org/10.1002/9781118670712.ch8

 A. Heinecke, G. Henry, M. Hutchinson, H. Pabst.
 Proceedings of Intl. Supercomputing Conference, 981-991 (2016).
 LIBXSMM: Accelerating Small Matrix Multiplications by Runtime Code Generation.
 https://doi.org/10.1109/SC.2016.83

 U. Borstnik, J. VandeVondele, V. Weber, J. Hutter.
 Parallel Comput. 40, 47-58 (2014).
 Sparse matrix multiplication: The distributed block-compressed sparse row 
 library.
 https://doi.org/10.1016/j.parco.2014.03.012

 T. D. Kühne, M. Krack, F. R. Mohamed, M. Parrinello.
 Phys. Rev. Lett. 98, 066401 (2007).
 Efficient and accurate Car-Parrinello-like approach to Born-Oppenheimer 
 molecular dynamics.
 https://doi.org/10.1103/PhysRevLett.98.066401

 M. Frigo, S. G. Johnson.
 Proc. IEEE 93, 216-231 (2005).
 The design and implementation of FFTW3.
 https://doi.org/10.1109/JPROC.2004.840301

 J. Kolafa.
 J. Comput. Chem. 25, 335-342 (2004).
 Time-reversible always stable predictor-corrector method for molecular dynamics 
 of polarizable molecules.
 https://doi.org/10.1002/jcc.10385

 N. D. Mermin.
 Phys. Rev. 137, A1441-A1443 (1965).
 Thermal Properties of the Inhomogeneous Electron Gas.
 https://doi.org/10.1103/PhysRev.137.A1441


 -------------------------------------------------------------------------------
 -                                                                             -
 -                                T I M I N G                                  -
 -                                                                             -
 -------------------------------------------------------------------------------
 SUBROUTINE                       CALLS  ASD         SELF TIME        TOTAL TIME
                                MAXIMUM       AVERAGE  MAXIMUM  AVERAGE  MAXIMUM
 CP2K                                 1  1.0    0.003    0.003   94.635   94.635
 cp_cell_opt                          1  2.0    0.000    0.000   94.626   94.626
 geoopt_bfgs                          1  3.0    0.019    0.019   94.626   94.626
 cp_eval_at                         129  4.0    0.016    0.016   94.151   94.151
 qs_forces                          128  5.0    0.010    0.010   93.932   93.932
 build_tblite_matrices              257  7.0   39.917   39.917   40.204   40.204
 qs_energies                        129  6.0    0.004    0.004   36.703   36.703
 rebuild_ks_matrix                 1771  9.8    0.002    0.002   35.432   35.432
 build_tblite_ks_matrix            1771 10.8   35.398   35.398   35.430   35.430
 qs_ks_update_qs_env_forces         128  6.0    0.001    0.001   34.383   34.383
 qs_energies_init_hamiltonians      129  7.0    0.001    0.001   17.675   17.675
 scf_env_do_scf                     129  7.0    0.002    0.002   15.942   15.942
 scf_env_do_scf_inner_loop         1643  8.0    0.295    0.295   15.923   15.923
 qs_scf_new_mos                    1643  9.0    0.009    0.009   13.862   13.862
 eigensolver                       1643 10.0    0.036    0.036    6.396    6.396
 cp_fm_syevd                       1898 10.7    0.006    0.006    5.631    5.631
 cp_fm_syevd_base                  1898 11.7    5.435    5.435    5.435    5.435
 cp_dbcsr_plus_fm_fm_t             1899 10.9    0.014    0.014    3.546    3.546
 calculate_dm_sparse               1771 10.0    0.013    0.013    3.339    3.339
 dbcsr_multiply_generic            2529 12.0    0.078    0.078    3.175    3.175
 dbcsr_complete_redistribute       8344 12.2    2.595    2.595    3.147    3.147
 copy_dbcsr_to_fm                  3916 10.5    0.029    0.029    2.929    2.929
 qs_diis_b_step                    1514 10.0    0.013    0.013    2.798    2.798
 init_scf_run                       129  7.0    0.001    0.001    2.734    2.734
 scf_env_initial_rho_setup          129  8.0    0.001    0.001    2.598    2.598
 wfi_extrapolate                    129  9.0    0.005    0.005    2.597    2.597
 -------------------------------------------------------------------------------

 The number of warnings for this run is : 0
 
 -------------------------------------------------------------------------------
  **** **** ******  **  PROGRAM ENDED AT                 2026-05-23 22:48:42.213
 ***** ** ***  *** **   PROGRAM RAN ON                                spark-c86c
 **    ****   ******    PROGRAM RAN BY                                  kuehne88
 ***** **    ** ** **   PROGRAM PROCESS ID                               2267208
  **** **  *******  **  PROGRAM STOPPED IN /home/kuehne88/periodic-gfn2-benchmar
                                           ks/X23b/runs/cellopt_gamma/GFN1/uraci
                                           l_GFN1_gamma_cellopt
