 DBCSR| CPU Multiplication driver                                           XSMM (U)
 DBCSR| Multrec recursion limit                                              512 (U)
 DBCSR| Multiplication stack size                                           1000 (D)
 DBCSR| Maximum elements for images                                    UNLIMITED (U)
 DBCSR| Multiplicative factor virtual images                                   1 (U)
 DBCSR| Use multiplication densification                                       T (D)
 DBCSR| Multiplication size stacks                                             3 (U)
 DBCSR| Use memory pool for CPU allocation                                     F (U)
 DBCSR| Number of 3D layers                                               SINGLE (U)
 DBCSR| Use MPI memory allocation                                              F (U)
 DBCSR| Use RMA algorithm                                                      F (U)
 DBCSR| Use Communication thread                                               T (U)
 DBCSR| Communication thread load                                             87 (D)
 DBCSR| MPI: My process id                                                     0
 DBCSR| MPI: Number of processes                                               1
 DBCSR| OMP: Current number of threads                                         1
 DBCSR| OMP: Max number of threads                                             1
 DBCSR| Split modifier for TAS multiplication algorithm                  1.0E+00 (U)


  **** **** ******  **  PROGRAM STARTED AT               2026-05-23 22:46:52.457
 ***** ** ***  *** **   PROGRAM STARTED ON                            spark-c86c
 **    ****   ******    PROGRAM STARTED BY                              kuehne88
 ***** **    ** ** **   PROGRAM PROCESS ID                               2265774
  **** **  *******  **  PROGRAM STARTED IN /home/kuehne88/periodic-gfn2-benchmar
                                           ks/X23b/runs/cellopt_gamma/GFN1/napht
                                           halene_GFN1_gamma_cellopt

 CP2K| version string:                 CP2K version 2026.1 (Development Version)
 CP2K| source code revision number:                                   0622d442e4
 CP2K| cp2kflags: omp fftw3 libxc parallel scalapack mpi_f08 xsmm spglib libdftd
 CP2K|            4 dftd4_v3 mctc-lib tblite
 CP2K| is freely available from                            https://www.cp2k.org/
 CP2K| Program compiled at                                   2026-05-23 22:05:08
 CP2K| Program compiled on                                            spark-c86c
 CP2K| Program compiled for                                              aarch64
 CP2K| Data directory path    /home/kuehne88/cp2k-master-tblite-20260523/install
 CP2K| Input file name                        naphthalene_GFN1_gamma_cellopt.inp

 GLOBAL| Force Environment number                                              1
 GLOBAL| Basis set file name                                           BASIS_SET
 GLOBAL| Potential file name                                           POTENTIAL
 GLOBAL| MM Potential file name                                     MM_POTENTIAL
 GLOBAL| Coordinate file name                                      __STD_INPUT__
 GLOBAL| Method name                                                        CP2K
 GLOBAL| Project name                            naphthalene_GFN1_gamma_cell_opt
 GLOBAL| Run type                                                       CELL_OPT
 GLOBAL| FFT library                                                       FFTW3
 GLOBAL| Diagonalization library                                       ScaLAPACK
 GLOBAL| Cholesky decomposition library                                ScaLAPACK
 GLOBAL| DGEMM library                                                      BLAS
 GLOBAL| Direct generalized diagonalization requested                          F
 GLOBAL| Orthonormality check for eigenvectors                          DISABLED
 GLOBAL| Matrix multiplication library                                 ScaLAPACK
 GLOBAL| All-to-all communication in single precision                          F
 GLOBAL| FFTs using library dependent lengths                                  F
 GLOBAL| Grid backend                                                       AUTO
 GLOBAL| Global print level                                                  LOW
 GLOBAL| MPI I/O enabled                                                       T
 GLOBAL| Total number of message passing processes                             1
 GLOBAL| Number of distributed systems (nodes)                                 1
 GLOBAL| Number of threads for this process                                    1
 GLOBAL| This output is from process                                           0
 GLOBAL| OpenMP stack size per thread (OMP_STACKSIZE)                    default
 GLOBAL| CPU model name                                                  UNKNOWN
 GLOBAL| CPUID                                                              2200
 GLOBAL| Compiled for CPUID                                                 2000

 *** HINT in environment.F:970 :: The compiler target flags (arm_arch64)   ***
 *** used to build this binary cannot exploit all extensions of this CPU   ***
 *** model (arm_sve256). Consider compiler target flags as part of FCFLAGS ***
 *** and CFLAGS (ARCH file).                                               ***


 MEMORY| system memory details [Kb]
 MEMORY|                        rank 0           min           max       average
 MEMORY| MemTotal            125508532     125508532     125508532     125508532
 MEMORY| MemFree             102117892     102117892     102117892     102117892
 MEMORY| Buffers                867444        867444        867444        867444
 MEMORY| Cached               13965436      13965436      13965436      13965436
 MEMORY| Slab                  1590500       1590500       1590500       1590500
 MEMORY| SReclaimable           912108        912108        912108        912108
 MEMORY| MemLikelyFree       117862880     117862880     117862880     117862880


 GENERATE|  Preliminary Number of Bonds generated:                             0
 GENERATE|  Achieved consistency in connectivity generation.


                  #####   #####        #     #   #     #       #          
                 #     # #     #      #    ##### #     #   # #####  ####  
                 #     # #           #       #   ###   #       #   #    # 
                 #     #  #####     #        #   #  #  #   #   #   ###### 
                 #   # #       #   #         #   #   # #   #   #   #      
                 #    #  #     #  #          #   #  #  # # #   #    #   # 
                  #### #  #####  #           #   ###   ##  #   #     ###  

                                   GFN1-xTB  
                                 Version 0.0                       
                            Johann V. Pototschnig                  



 TOTAL NUMBERS AND MAXIMUM NUMBERS

  Total number of            - Atomic kinds:                                   2
                             - Atoms:                                         36
                             - Shell sets:                                    72
                             - Shells:                                        72
                             - Primitive Cartesian functions:                416
                             - Cartesian basis functions:                    112
                             - Spherical basis functions:                    112

  Maximum angular momentum of the orbital basis functions:                     1


 SCF PARAMETERS         Density guess:                                     MOPAC
                        --------------------------------------------------------
                        max_scf:                                             300
                        max_scf_history:                                       0
                        max_diis:                                              4
                        --------------------------------------------------------
                        eps_scf:                                        1.00E-09
                        eps_scf_history:                                0.00E+00
                        eps_diis:                                       1.00E-01
                        eps_eigval:                                     1.00E-05
                        --------------------------------------------------------
                        level_shift [a.u.]:                             0.000000
                        added MOs                                        64    0
                        --------------------------------------------------------
                        Mixing method:                           DIRECT_P_MIXING
                        --------------------------------------------------------
                        Smear method:                                FERMI_DIRAC
                        Electronic temperature [K]:                        300.0
                        Electronic temperature [a.u.]:                  9.50E-04
                        Accuracy threshold:                             1.00E-06
                        --------------------------------------------------------
                        No outer SCF

 CELL_OPT| Pressure tolerance [bar]:                                       100.0
 CELL_OPT| Keep volume of cell:                                               NO
 CELL_OPT| Keep angles between the cell vectors:                              NO
 CELL_OPT| Keep cell symmetry:                                                NO
 CELL_OPT| Constraint:                                                      NONE

 BFGS| Use rational function optimization for step estimation:                NO
 BFGS| Use model Hessian for initial guess:                                   NO
 BFGS| Restart Hessian:                                                       NO
 BFGS| Trust radius:                                                       0.472

 *******************************************************************************
 ***                     STARTING   CELL   OPTIMIZATION                      ***
 ***                                   BFGS                                  ***
 *******************************************************************************

 CELL| Volume [angstrom^3]:                                           340.830621
 CELL| Vector a [angstrom]:       8.085     0.000     0.000   |a| =     8.084600
 CELL| Vector b [angstrom]:       0.000     5.938     0.000   |b| =     5.937500
 CELL| Vector c [angstrom]:      -4.912     0.000     7.100   |c| =     8.633500
 CELL| Angle (b,c), alpha [degree]:                                    90.000000
 CELL| Angle (a,c), beta  [degree]:                                   124.673000
 CELL| Angle (a,b), gamma [degree]:                                    90.000000
 CELL| Numerically orthorhombic:                                              NO
 CELL| Periodicity                                                           XYZ

 Extrapolation method: initial_guess

 Number of electrons:                                                         96
 Number of occupied orbitals:                                                 48
 Number of molecular orbitals:                                               112

 Number of orbital functions:                                                112
 Number of independent orbital functions:                                    112


 SCF WAVEFUNCTION OPTIMIZATION

  Step     Update method      Time    Convergence         Total energy    Change
  ------------------------------------------------------------------------------
     1 TBLite/Diag 0.40E+00    0.0     1.35127246       -50.7737805580 -5.08E+01
     2 TBLite/Diag 0.40E+00    0.0     0.00377910       -50.7739550907 -1.75E-04
     3 TBLite/Diag 0.40E+00    0.0     0.00306193       -50.7739492014  5.89E-06
     4 TBLite/Diag 0.40E+00    0.0     0.00153298       -50.7739709801 -2.18E-05
     5 TBLite/Diag 0.40E+00    0.0     0.00056609       -50.7739745880 -3.61E-06
     6 TBLite/Diag 0.40E+00    0.0     0.00012068       -50.7739747166 -1.29E-07
     7 TBLite/Diag 0.40E+00    0.0     0.00000660       -50.7739747176 -1.04E-09
     8 TBLite/Diag 0.40E+00    0.0     0.00000382       -50.7739747178 -1.31E-10
     9 TBLite/Diag 0.40E+00    0.0     0.00000024       -50.7739747178 -7.11E-13
    10 TBLite/Diag 0.40E+00    0.0     0.00000014       -50.7739747178  9.24E-14
    11 TBLite/Diag 0.40E+00    0.0     0.00000001       -50.7739747178 -7.11E-14
    12 TBLite/Diag 0.40E+00    0.0     1.9966E-09       -50.7739747178 -9.24E-14
    13 TBLite/Diag 0.40E+00    0.0     9.1199E-11       -50.7739747178  9.24E-14

  *** SCF run converged in    13 steps ***


  Core Hamiltonian energy:                                    -51.96617603048685
  Repulsive potential energy:                                   1.26462314321369
  Electrostatic energy:                                         0.00182882947331
  Self-consistent dispersion energy:                            0.00000000000000
  Non-self consistent dispersion energy:                       -0.07425065996716
  Correction for halogen bonding:                               0.00000000000000
  Electronic entropic energy:                                  -0.00000000000000
  Fermi energy:                                                -0.33788277541577

  Total energy:                                               -50.77397471776700
  Total energy (extrapolated to T->0):                        -50.77397471776700

 ENERGY| Total FORCE_EVAL ( QS ) energy [hartree]            -50.773974717767004

 OPT| **************************************************************************
 OPT| Step number                                                              0
 OPT| Optimization method                                                   BFGS
 OPT| Total energy [hartree]                                      -50.7739747178
 OPT| Internal pressure [bar]                                  108536.0596906573
 OPT| Used time [s]                                                        0.493
 OPT| **************************************************************************
 OPT| Estimated peak process memory [MiB]                                    169

 --------------------------
 OPTIMIZATION STEP:      1
 --------------------------

 CELL| Volume [angstrom^3]:                                           346.761639
 CELL| Vector a [angstrom]:       8.095     0.000     0.000   |a| =     8.094606
 CELL| Vector b [angstrom]:       0.000     6.010     0.000   |b| =     6.010461
 CELL| Vector c [angstrom]:      -4.913     0.000     7.127   |c| =     8.656528
 CELL| Angle (b,c), alpha [degree]:                                    90.000000
 CELL| Angle (a,c), beta  [degree]:                                   124.578570
 CELL| Angle (a,b), gamma [degree]:                                    90.000000
 CELL| Numerically orthorhombic:                                              NO
 CELL| Periodicity                                                           XYZ

 Extrapolation method: ASPC

 Number of electrons:                                                         96
 Number of occupied orbitals:                                                 48
 Number of molecular orbitals:                                               112

 Number of orbital functions:                                                112
 Number of independent orbital functions:                                    112


 SCF WAVEFUNCTION OPTIMIZATION

  Step     Update method      Time    Convergence         Total energy    Change
  ------------------------------------------------------------------------------
     1 TBLite/Diag 0.40E+00    0.0     0.12838508       -50.8978512295 -5.09E+01
     2 TBLite/Diag 0.40E+00    0.0     0.00752968       -50.8984115672 -5.60E-04
     3 TBLite/Diag 0.40E+00    0.0     0.00414545       -50.8984663050 -5.47E-05
     4 TBLite/Diag 0.40E+00    0.0     0.00049797       -50.8984676594 -1.35E-06
     5 TBLite/Diag 0.40E+00    0.0     0.00028250       -50.8984685013 -8.42E-07
     6 TBLite/Diag 0.40E+00    0.0     0.00008588       -50.8984685580 -5.67E-08
     7 TBLite/Diag 0.40E+00    0.0     0.00002545       -50.8984685649 -6.86E-09
     8 TBLite/Diag 0.40E+00    0.0     0.00000306       -50.8984685649 -3.21E-11
     9 TBLite/Diag 0.40E+00    0.0     0.00000026       -50.8984685649 -8.53E-14
    10 TBLite/Diag 0.40E+00    0.0     0.00000006       -50.8984685649 -1.35E-13
    11 TBLite/Diag 0.40E+00    0.0     1.2667E-09       -50.8984685649  9.95E-14
    12 TBLite/Diag 0.40E+00    0.0     1.4204E-10       -50.8984685649  6.39E-14

  *** SCF run converged in    12 steps ***


  Core Hamiltonian energy:                                    -51.87383057825276
  Repulsive potential energy:                                   1.04615834948108
  Electrostatic energy:                                         0.00167886141437
  Self-consistent dispersion energy:                            0.00000000000000
  Non-self consistent dispersion energy:                       -0.07247519756741
  Correction for halogen bonding:                               0.00000000000000
  Electronic entropic energy:                                  -0.00000000000000
  Fermi energy:                                                -0.32997457376487

  Total energy:                                               -50.89846856492471
  Total energy (extrapolated to T->0):                        -50.89846856492471

 ENERGY| Total FORCE_EVAL ( QS ) energy [hartree]            -50.898468564924713

 OPT| **************************************************************************
 OPT| Step number                                                              1
 OPT| Optimization method                                                   BFGS
 OPT| Total energy [hartree]                                      -50.8984685649
 OPT| Internal pressure [bar]                                   48673.1835323625
 OPT| Effective energy change [hartree]                            -0.1244938472
 OPT| Predicted energy change [hartree]                            -0.1844856771
 OPT| Scaling factor                                                0.0000000000
 OPT| Step size                                                     0.1378762309
 OPT| Trust radius                                                  0.4724315332
 OPT| Decrease in energy                                                     YES
 OPT| Used time [s]                                                        0.497
 OPT|
 OPT| Maximum step size                                             0.1378762309
 OPT| Convergence limit for maximum step size                       0.0030000000
 OPT| Maximum step size is converged                                          NO
 OPT|
 OPT| RMS step size                                                 0.0568910435
 OPT| Convergence limit for RMS step size                           0.0015000000
 OPT| RMS step size is converged                                              NO
 OPT|
 OPT| Maximum gradient                                              0.0494469723
 OPT| Convergence limit for maximum gradient                        0.0004500000
 OPT| Maximum gradient is converged                                           NO
 OPT|
 OPT| RMS gradient                                                  0.0193318991
 OPT| Convergence limit for RMS gradient                            0.0003000000
 OPT| RMS gradient is converged                                               NO
 OPT|
 OPT| Pressure deviation [bar]                                  48673.1835323625
 OPT| Pressure tolerance [bar]                                    100.0000000000
 OPT| Pressure is converged                                                   NO
 OPT| **************************************************************************
 OPT| Estimated peak process memory after this step [MiB]                    169

 --------------------------
 OPTIMIZATION STEP:      2
 --------------------------

 CELL| Volume [angstrom^3]:                                           348.971126
 CELL| Vector a [angstrom]:       8.095     0.000     0.000   |a| =     8.094698
 CELL| Vector b [angstrom]:       0.000     6.029     0.000   |b| =     6.028558
 CELL| Vector c [angstrom]:      -4.921     0.000     7.151   |c| =     8.680701
 CELL| Angle (b,c), alpha [degree]:                                    90.000000
 CELL| Angle (a,c), beta  [degree]:                                   124.533201
 CELL| Angle (a,b), gamma [degree]:                                    90.000000
 CELL| Numerically orthorhombic:                                              NO
 CELL| Periodicity                                                           XYZ

 Extrapolation method: ASPC

 Number of electrons:                                                         96
 Number of occupied orbitals:                                                 48
 Number of molecular orbitals:                                               112

 Number of orbital functions:                                                112
 Number of independent orbital functions:                                    112


 SCF WAVEFUNCTION OPTIMIZATION

  Step     Update method      Time    Convergence         Total energy    Change
  ------------------------------------------------------------------------------
     1 TBLite/Diag 0.40E+00    0.0     0.03889117       -50.9164452131 -5.09E+01
     2 TBLite/Diag 0.40E+00    0.0     0.00296240       -50.9165094736 -6.43E-05
     3 TBLite/Diag 0.40E+00    0.0     0.00064183       -50.9165129543 -3.48E-06
     4 TBLite/Diag 0.40E+00    0.0     0.00036233       -50.9165133601 -4.06E-07
     5 TBLite/Diag 0.40E+00    0.0     0.00015482       -50.9165136268 -2.67E-07
     6 TBLite/Diag 0.40E+00    0.0     0.00004407       -50.9165136394 -1.26E-08
     7 TBLite/Diag 0.40E+00    0.0     0.00000917       -50.9165136397 -2.69E-10
     8 TBLite/Diag 0.40E+00    0.0     0.00000316       -50.9165136398 -7.15E-11
     9 TBLite/Diag 0.40E+00    0.0     0.00000005       -50.9165136398 -7.11E-14
    10 TBLite/Diag 0.40E+00    0.0     0.00000002       -50.9165136398 -8.53E-14
    11 TBLite/Diag 0.40E+00    0.0     1.6895E-10       -50.9165136398  1.35E-13

  *** SCF run converged in    11 steps ***


  Core Hamiltonian energy:                                    -51.82997508114772
  Repulsive potential energy:                                   0.98396360099522
  Electrostatic energy:                                         0.00170618936392
  Self-consistent dispersion energy:                            0.00000000000000
  Non-self consistent dispersion energy:                       -0.07220834898027
  Correction for halogen bonding:                               0.00000000000000
  Electronic entropic energy:                                  -0.00000000000000
  Fermi energy:                                                -0.33780704905021

  Total energy:                                               -50.91651363976886
  Total energy (extrapolated to T->0):                        -50.91651363976886

 ENERGY| Total FORCE_EVAL ( QS ) energy [hartree]            -50.916513639768858

 OPT| **************************************************************************
 OPT| Step number                                                              2
 OPT| Optimization method                                                   BFGS
 OPT| Total energy [hartree]                                      -50.9165136398
 OPT| Internal pressure [bar]                                   16796.7530397663
 OPT| Effective energy change [hartree]                            -0.0180450748
 OPT| Predicted energy change [hartree]                            -0.0160784571
 OPT| Scaling factor                                                0.0000000000
 OPT| Step size                                                     0.0449788632
 OPT| Trust radius                                                  0.4724315332
 OPT| Decrease in energy                                                     YES
 OPT| Used time [s]                                                        0.458
 OPT|
 OPT| Maximum step size                                             0.0449788632
 OPT| Convergence limit for maximum step size                       0.0030000000
 OPT| Maximum step size is converged                                          NO
 OPT|
 OPT| RMS step size                                                 0.0148747729
 OPT| Convergence limit for RMS step size                           0.0015000000
 OPT| RMS step size is converged                                              NO
 OPT|
 OPT| Maximum gradient                                              0.0209846155
 OPT| Convergence limit for maximum gradient                        0.0004500000
 OPT| Maximum gradient is converged                                           NO
 OPT|
 OPT| RMS gradient                                                  0.0052376249
 OPT| Convergence limit for RMS gradient                            0.0003000000
 OPT| RMS gradient is converged                                               NO
 OPT|
 OPT| Pressure deviation [bar]                                  16796.7530397663
 OPT| Pressure tolerance [bar]                                    100.0000000000
 OPT| Pressure is converged                                                   NO
 OPT| **************************************************************************
 OPT| Estimated peak process memory after this step [MiB]                    170

 --------------------------
 OPTIMIZATION STEP:      3
 --------------------------

 CELL| Volume [angstrom^3]:                                           350.211924
 CELL| Vector a [angstrom]:       8.095     0.000     0.000   |a| =     8.095427
 CELL| Vector b [angstrom]:       0.000     6.043     0.000   |b| =     6.042889
 CELL| Vector c [angstrom]:      -4.922     0.000     7.159   |c| =     8.687667
 CELL| Angle (b,c), alpha [degree]:                                    90.000000
 CELL| Angle (a,c), beta  [degree]:                                   124.509662
 CELL| Angle (a,b), gamma [degree]:                                    90.000000
 CELL| Numerically orthorhombic:                                              NO
 CELL| Periodicity                                                           XYZ

 Extrapolation method: ASPC

 Number of electrons:                                                         96
 Number of occupied orbitals:                                                 48
 Number of molecular orbitals:                                               112

 Number of orbital functions:                                                112
 Number of independent orbital functions:                                    112


 SCF WAVEFUNCTION OPTIMIZATION

  Step     Update method      Time    Convergence         Total energy    Change
  ------------------------------------------------------------------------------
     1 TBLite/Diag 0.40E+00    0.0     0.01145121       -50.9187941200 -5.09E+01
     2 TBLite/Diag 0.40E+00    0.0     0.00096194       -50.9188012110 -7.09E-06
     3 TBLite/Diag 0.40E+00    0.0     0.00023194       -50.9188016773 -4.66E-07
     4 TBLite/Diag 0.40E+00    0.0     0.00015016       -50.9188017293 -5.20E-08
     5 TBLite/Diag 0.40E+00    0.0     0.00007390       -50.9188017852 -5.59E-08
     6 TBLite/Diag 0.40E+00    0.0     0.00002046       -50.9188017878 -2.58E-09
     7 TBLite/Diag 0.40E+00    0.0     0.00000241       -50.9188017878 -5.49E-11
     8 TBLite/Diag 0.40E+00    0.0     0.00000077       -50.9188017878 -4.53E-12
     9 TBLite/Diag 0.40E+00    0.0     0.00000002       -50.9188017878  1.07E-13
    10 TBLite/Diag 0.40E+00    0.0     0.00000001       -50.9188017878 -1.42E-14
    11 TBLite/Diag 0.40E+00    0.0     1.9914E-10       -50.9188017878  4.97E-14

  *** SCF run converged in    11 steps ***


  Core Hamiltonian energy:                                    -51.81174003907553
  Repulsive potential energy:                                   0.96331249741914
  Electrostatic energy:                                         0.00169380772296
  Self-consistent dispersion energy:                            0.00000000000000
  Non-self consistent dispersion energy:                       -0.07206805390473
  Correction for halogen bonding:                               0.00000000000000
  Electronic entropic energy:                                  -0.00000000000000
  Fermi energy:                                                -0.33773732276792

  Total energy:                                               -50.91880178783816
  Total energy (extrapolated to T->0):                        -50.91880178783816

 ENERGY| Total FORCE_EVAL ( QS ) energy [hartree]            -50.918801787838156

 OPT| **************************************************************************
 OPT| Step number                                                              3
 OPT| Optimization method                                                   BFGS
 OPT| Total energy [hartree]                                      -50.9188017878
 OPT| Internal pressure [bar]                                    3911.8432834118
 OPT| Effective energy change [hartree]                            -0.0022881481
 OPT| Predicted energy change [hartree]                            -0.0018407190
 OPT| Scaling factor                                                0.0000000000
 OPT| Step size                                                     0.0270831817
 OPT| Trust radius                                                  0.4724315332
 OPT| Decrease in energy                                                     YES
 OPT| Used time [s]                                                        0.495
 OPT|
 OPT| Maximum step size                                             0.0270831817
 OPT| Convergence limit for maximum step size                       0.0030000000
 OPT| Maximum step size is converged                                          NO
 OPT|
 OPT| RMS step size                                                 0.0062113931
 OPT| Convergence limit for RMS step size                           0.0015000000
 OPT| RMS step size is converged                                              NO
 OPT|
 OPT| Maximum gradient                                              0.0075001444
 OPT| Convergence limit for maximum gradient                        0.0004500000
 OPT| Maximum gradient is converged                                           NO
 OPT|
 OPT| RMS gradient                                                  0.0019985577
 OPT| Convergence limit for RMS gradient                            0.0003000000
 OPT| RMS gradient is converged                                               NO
 OPT|
 OPT| Pressure deviation [bar]                                   3911.8432834118
 OPT| Pressure tolerance [bar]                                    100.0000000000
 OPT| Pressure is converged                                                   NO
 OPT| **************************************************************************
 OPT| Estimated peak process memory after this step [MiB]                    170

 --------------------------
 OPTIMIZATION STEP:      4
 --------------------------

 CELL| Volume [angstrom^3]:                                           350.833762
 CELL| Vector a [angstrom]:       8.095     0.000     0.000   |a| =     8.095113
 CELL| Vector b [angstrom]:       0.000     6.051     0.000   |b| =     6.050685
 CELL| Vector c [angstrom]:      -4.921     0.000     7.163   |c| =     8.690375
 CELL| Angle (b,c), alpha [degree]:                                    90.000000
 CELL| Angle (a,c), beta  [degree]:                                   124.491992
 CELL| Angle (a,b), gamma [degree]:                                    90.000000
 CELL| Numerically orthorhombic:                                              NO
 CELL| Periodicity                                                           XYZ

 Extrapolation method: ASPC

 Number of electrons:                                                         96
 Number of occupied orbitals:                                                 48
 Number of molecular orbitals:                                               112

 Number of orbital functions:                                                112
 Number of independent orbital functions:                                    112


 SCF WAVEFUNCTION OPTIMIZATION

  Step     Update method      Time    Convergence         Total energy    Change
  ------------------------------------------------------------------------------
     1 TBLite/Diag 0.40E+00    0.0     0.00423715       -50.9192647662 -5.09E+01
     2 TBLite/Diag 0.40E+00    0.0     0.00037161       -50.9192658554 -1.09E-06
     3 TBLite/Diag 0.40E+00    0.0     0.00007962       -50.9192658828 -2.74E-08
     4 TBLite/Diag 0.40E+00    0.0     0.00003262       -50.9192658832 -4.10E-10
     5 TBLite/Diag 0.40E+00    0.0     0.00001384       -50.9192658840 -8.02E-10
     6 TBLite/Diag 0.40E+00    0.0     0.00000247       -50.9192658840 -3.82E-11
     7 TBLite/Diag 0.40E+00    0.0     0.00000039       -50.9192658840 -1.38E-12
     8 TBLite/Diag 0.40E+00    0.0     0.00000016       -50.9192658840 -2.06E-13
     9 TBLite/Diag 0.40E+00    0.0     0.00000002       -50.9192658840  1.21E-13
    10 TBLite/Diag 0.40E+00    0.0     1.6141E-09       -50.9192658840  6.39E-14
    11 TBLite/Diag 0.40E+00    0.0     1.9811E-10       -50.9192658840  4.97E-14

  *** SCF run converged in    11 steps ***


  Core Hamiltonian energy:                                    -51.80112054090480
  Repulsive potential energy:                                   0.95215950141859
  Electrostatic energy:                                         0.00168142182167
  Self-consistent dispersion energy:                            0.00000000000000
  Non-self consistent dispersion energy:                       -0.07198626636396
  Correction for halogen bonding:                               0.00000000000000
  Electronic entropic energy:                                  -0.00000000000000
  Fermi energy:                                                -0.33754860844616

  Total energy:                                               -50.91926588402850
  Total energy (extrapolated to T->0):                        -50.91926588402850

 ENERGY| Total FORCE_EVAL ( QS ) energy [hartree]            -50.919265884028505

 OPT| **************************************************************************
 OPT| Step number                                                              4
 OPT| Optimization method                                                   BFGS
 OPT| Total energy [hartree]                                      -50.9192658840
 OPT| Internal pressure [bar]                                   -2421.1808769362
 OPT| Effective energy change [hartree]                            -0.0004640962
 OPT| Predicted energy change [hartree]                            -0.0003481717
 OPT| Scaling factor                                                0.0000000000
 OPT| Step size                                                     0.0147312011
 OPT| Trust radius                                                  0.4724315332
 OPT| Decrease in energy                                                     YES
 OPT| Used time [s]                                                        0.496
 OPT|
 OPT| Maximum step size                                             0.0147312011
 OPT| Convergence limit for maximum step size                       0.0030000000
 OPT| Maximum step size is converged                                          NO
 OPT|
 OPT| RMS step size                                                 0.0032608290
 OPT| Convergence limit for RMS step size                           0.0015000000
 OPT| RMS step size is converged                                              NO
 OPT|
 OPT| Maximum gradient                                              0.0029123323
 OPT| Convergence limit for maximum gradient                        0.0004500000
 OPT| Maximum gradient is converged                                           NO
 OPT|
 OPT| RMS gradient                                                  0.0011919899
 OPT| Convergence limit for RMS gradient                            0.0003000000
 OPT| RMS gradient is converged                                               NO
 OPT|
 OPT| Pressure deviation [bar]                                  -2421.1808769362
 OPT| Pressure tolerance [bar]                                    100.0000000000
 OPT| Pressure is converged                                                   NO
 OPT| **************************************************************************
 OPT| Estimated peak process memory after this step [MiB]                    171

 --------------------------
 OPTIMIZATION STEP:      5
 --------------------------

 CELL| Volume [angstrom^3]:                                           351.042712
 CELL| Vector a [angstrom]:       8.094     0.000     0.000   |a| =     8.094071
 CELL| Vector b [angstrom]:       0.000     6.055     0.000   |b| =     6.054618
 CELL| Vector c [angstrom]:      -4.919     0.000     7.163   |c| =     8.689768
 CELL| Angle (b,c), alpha [degree]:                                    90.000000
 CELL| Angle (a,c), beta  [degree]:                                   124.479976
 CELL| Angle (a,b), gamma [degree]:                                    90.000000
 CELL| Numerically orthorhombic:                                              NO
 CELL| Periodicity                                                           XYZ

 Extrapolation method: ASPC

 Number of electrons:                                                         96
 Number of occupied orbitals:                                                 48
 Number of molecular orbitals:                                               112

 Number of orbital functions:                                                112
 Number of independent orbital functions:                                    112


 SCF WAVEFUNCTION OPTIMIZATION

  Step     Update method      Time    Convergence         Total energy    Change
  ------------------------------------------------------------------------------
     1 TBLite/Diag 0.40E+00    0.0     0.00292036       -50.9194768573 -5.09E+01
     2 TBLite/Diag 0.40E+00    0.0     0.00024489       -50.9194771805 -3.23E-07
     3 TBLite/Diag 0.40E+00    0.0     0.00003655       -50.9194771863 -5.79E-09
     4 TBLite/Diag 0.40E+00    0.0     0.00002217       -50.9194771870 -6.50E-10
     5 TBLite/Diag 0.40E+00    0.0     0.00000955       -50.9194771878 -8.22E-10
     6 TBLite/Diag 0.40E+00    0.0     0.00000295       -50.9194771879 -1.09E-10
     7 TBLite/Diag 0.40E+00    0.0     0.00000041       -50.9194771879 -2.05E-12
     8 TBLite/Diag 0.40E+00    0.0     0.00000023       -50.9194771879 -1.63E-13
     9 TBLite/Diag 0.40E+00    0.0     7.1084E-09       -50.9194771879  2.13E-14
    10 TBLite/Diag 0.40E+00    0.0     5.6852E-09       -50.9194771879 -2.13E-14
    11 TBLite/Diag 0.40E+00    0.0     9.7443E-11       -50.9194771879  5.68E-14

  *** SCF run converged in    11 steps ***


  Core Hamiltonian energy:                                    -51.79548134194634
  Repulsive potential energy:                                   0.94629200537533
  Electrostatic energy:                                         0.00167489663959
  Self-consistent dispersion energy:                            0.00000000000000
  Non-self consistent dispersion energy:                       -0.07196274795846
  Correction for halogen bonding:                               0.00000000000000
  Electronic entropic energy:                                  -0.00000000000000
  Fermi energy:                                                -0.33742238650567

  Total energy:                                               -50.91947718788988
  Total energy (extrapolated to T->0):                        -50.91947718788988

 ENERGY| Total FORCE_EVAL ( QS ) energy [hartree]            -50.919477187889882

 OPT| **************************************************************************
 OPT| Step number                                                              5
 OPT| Optimization method                                                   BFGS
 OPT| Total energy [hartree]                                      -50.9194771879
 OPT| Internal pressure [bar]                                   -5512.2026624743
 OPT| Effective energy change [hartree]                            -0.0002113039
 OPT| Predicted energy change [hartree]                            -0.0001398459
 OPT| Scaling factor                                                0.0000000000
 OPT| Step size                                                     0.0074332340
 OPT| Trust radius                                                  0.4724315332
 OPT| Decrease in energy                                                     YES
 OPT| Used time [s]                                                        0.497
 OPT|
 OPT| Maximum step size                                             0.0074332340
 OPT| Convergence limit for maximum step size                       0.0030000000
 OPT| Maximum step size is converged                                          NO
 OPT|
 OPT| RMS step size                                                 0.0024461725
 OPT| Convergence limit for RMS step size                           0.0015000000
 OPT| RMS step size is converged                                              NO
 OPT|
 OPT| Maximum gradient                                              0.0035673224
 OPT| Convergence limit for maximum gradient                        0.0004500000
 OPT| Maximum gradient is converged                                           NO
 OPT|
 OPT| RMS gradient                                                  0.0010067495
 OPT| Convergence limit for RMS gradient                            0.0003000000
 OPT| RMS gradient is converged                                               NO
 OPT|
 OPT| Pressure deviation [bar]                                  -5512.2026624743
 OPT| Pressure tolerance [bar]                                    100.0000000000
 OPT| Pressure is converged                                                   NO
 OPT| **************************************************************************
 OPT| Estimated peak process memory after this step [MiB]                    171

 --------------------------
 OPTIMIZATION STEP:      6
 --------------------------

 CELL| Volume [angstrom^3]:                                           350.918605
 CELL| Vector a [angstrom]:       8.091     0.000     0.000   |a| =     8.091407
 CELL| Vector b [angstrom]:       0.000     6.056     0.000   |b| =     6.055884
 CELL| Vector c [angstrom]:      -4.916    -0.000     7.162   |c| =     8.686324
 CELL| Angle (b,c), alpha [degree]:                                    90.000000
 CELL| Angle (a,c), beta  [degree]:                                   124.466377
 CELL| Angle (a,b), gamma [degree]:                                    90.000000
 CELL| Numerically orthorhombic:                                              NO
 CELL| Periodicity                                                           XYZ

 Extrapolation method: ASPC

 Number of electrons:                                                         96
 Number of occupied orbitals:                                                 48
 Number of molecular orbitals:                                               112

 Number of orbital functions:                                                112
 Number of independent orbital functions:                                    112


 SCF WAVEFUNCTION OPTIMIZATION

  Step     Update method      Time    Convergence         Total energy    Change
  ------------------------------------------------------------------------------
     1 TBLite/Diag 0.40E+00    0.0     0.00355491       -50.9197047897 -5.09E+01
     2 TBLite/Diag 0.40E+00    0.0     0.00022833       -50.9197050059 -2.16E-07
     3 TBLite/Diag 0.40E+00    0.0     0.00005117       -50.9197050123 -6.36E-09
     4 TBLite/Diag 0.40E+00    0.0     0.00002827       -50.9197050164 -4.09E-09
     5 TBLite/Diag 0.40E+00    0.0     0.00001070       -50.9197050175 -1.10E-09
     6 TBLite/Diag 0.40E+00    0.0     0.00000254       -50.9197050176 -9.59E-11
     7 TBLite/Diag 0.40E+00    0.0     0.00000040       -50.9197050176 -5.97E-13
     8 TBLite/Diag 0.40E+00    0.0     0.00000016       -50.9197050176 -1.85E-13
     9 TBLite/Diag 0.40E+00    0.0     4.0214E-09       -50.9197050176  1.28E-13
    10 TBLite/Diag 0.40E+00    0.0     3.5754E-09       -50.9197050176  8.53E-14
    11 TBLite/Diag 0.40E+00    0.0     2.8557E-11       -50.9197050176 -2.34E-13

  *** SCF run converged in    11 steps ***


  Core Hamiltonian energy:                                    -51.79211190017090
  Repulsive potential energy:                                   0.94273738580922
  Electrostatic energy:                                         0.00166924861592
  Self-consistent dispersion energy:                            0.00000000000000
  Non-self consistent dispersion energy:                       -0.07199975183415
  Correction for halogen bonding:                               0.00000000000000
  Electronic entropic energy:                                  -0.00000000000000
  Fermi energy:                                                -0.33730085773609

  Total energy:                                               -50.91970501757991
  Total energy (extrapolated to T->0):                        -50.91970501757991

 ENERGY| Total FORCE_EVAL ( QS ) energy [hartree]            -50.919705017579915

 OPT| **************************************************************************
 OPT| Step number                                                              6
 OPT| Optimization method                                                   BFGS
 OPT| Total energy [hartree]                                      -50.9197050176
 OPT| Internal pressure [bar]                                   -7230.0241706095
 OPT| Effective energy change [hartree]                            -0.0002278297
 OPT| Predicted energy change [hartree]                            -0.0001503570
 OPT| Scaling factor                                                0.0000000000
 OPT| Step size                                                     0.0074828405
 OPT| Trust radius                                                  0.4724315332
 OPT| Decrease in energy                                                     YES
 OPT| Used time [s]                                                        0.497
 OPT|
 OPT| Maximum step size                                             0.0074828405
 OPT| Convergence limit for maximum step size                       0.0030000000
 OPT| Maximum step size is converged                                          NO
 OPT|
 OPT| RMS step size                                                 0.0035172755
 OPT| Convergence limit for RMS step size                           0.0015000000
 OPT| RMS step size is converged                                              NO
 OPT|
 OPT| Maximum gradient                                              0.0071036023
 OPT| Convergence limit for maximum gradient                        0.0004500000
 OPT| Maximum gradient is converged                                           NO
 OPT|
 OPT| RMS gradient                                                  0.0010788681
 OPT| Convergence limit for RMS gradient                            0.0003000000
 OPT| RMS gradient is converged                                               NO
 OPT|
 OPT| Pressure deviation [bar]                                  -7230.0241706095
 OPT| Pressure tolerance [bar]                                    100.0000000000
 OPT| Pressure is converged                                                   NO
 OPT| **************************************************************************
 OPT| Estimated peak process memory after this step [MiB]                    171

 --------------------------
 OPTIMIZATION STEP:      7
 --------------------------

 CELL| Volume [angstrom^3]:                                           350.286725
 CELL| Vector a [angstrom]:       8.086     0.000     0.000   |a| =     8.086478
 CELL| Vector b [angstrom]:       0.000     6.052     0.000   |b| =     6.052291
 CELL| Vector c [angstrom]:      -4.910    -0.000     7.157   |c| =     8.679784
 CELL| Angle (b,c), alpha [degree]:                                    90.000000
 CELL| Angle (a,c), beta  [degree]:                                   124.453537
 CELL| Angle (a,b), gamma [degree]:                                    90.000000
 CELL| Numerically orthorhombic:                                              NO
 CELL| Periodicity                                                           XYZ

 Extrapolation method: ASPC

 Number of electrons:                                                         96
 Number of occupied orbitals:                                                 48
 Number of molecular orbitals:                                               112

 Number of orbital functions:                                                112
 Number of independent orbital functions:                                    112


 SCF WAVEFUNCTION OPTIMIZATION

  Step     Update method      Time    Convergence         Total energy    Change
  ------------------------------------------------------------------------------
     1 TBLite/Diag 0.40E+00    0.0     0.00427251       -50.9199493182 -5.09E+01
     2 TBLite/Diag 0.40E+00    0.0     0.00020907       -50.9199495061 -1.88E-07
     3 TBLite/Diag 0.40E+00    0.0     0.00006995       -50.9199495205 -1.44E-08
     4 TBLite/Diag 0.40E+00    0.0     0.00002875       -50.9199495319 -1.13E-08
     5 TBLite/Diag 0.40E+00    0.0     0.00000352       -50.9199495319 -7.72E-11
     6 TBLite/Diag 0.40E+00    0.0     0.00000132       -50.9199495320 -2.59E-11
     7 TBLite/Diag 0.40E+00    0.0     0.00000030       -50.9199495320 -3.98E-13
     8 TBLite/Diag 0.40E+00    0.0     0.00000010       -50.9199495320 -1.63E-13
     9 TBLite/Diag 0.40E+00    0.0     2.3883E-09       -50.9199495320  0.00E+00
    10 TBLite/Diag 0.40E+00    0.0     1.9195E-09       -50.9199495320 -6.39E-14
    11 TBLite/Diag 0.40E+00    0.0     2.5355E-11       -50.9199495320  1.35E-13

  *** SCF run converged in    11 steps ***


  Core Hamiltonian energy:                                    -51.79267474761308
  Repulsive potential energy:                                   0.94319239545879
  Electrostatic energy:                                         0.00166556774921
  Self-consistent dispersion energy:                            0.00000000000000
  Non-self consistent dispersion energy:                       -0.07213274756893
  Correction for halogen bonding:                               0.00000000000000
  Electronic entropic energy:                                  -0.00000000000000
  Fermi energy:                                                -0.33721518716171

  Total energy:                                               -50.91994953197401
  Total energy (extrapolated to T->0):                        -50.91994953197401

 ENERGY| Total FORCE_EVAL ( QS ) energy [hartree]            -50.919949531974005

 OPT| **************************************************************************
 OPT| Step number                                                              7
 OPT| Optimization method                                                   BFGS
 OPT| Total energy [hartree]                                      -50.9199495320
 OPT| Internal pressure [bar]                                   -6758.6424783686
 OPT| Effective energy change [hartree]                            -0.0002445144
 OPT| Predicted energy change [hartree]                            -0.0001677789
 OPT| Scaling factor                                                0.0000000000
 OPT| Step size                                                     0.0100248862
 OPT| Trust radius                                                  0.4724315332
 OPT| Decrease in energy                                                     YES
 OPT| Used time [s]                                                        0.498
 OPT|
 OPT| Maximum step size                                             0.0100248862
 OPT| Convergence limit for maximum step size                       0.0030000000
 OPT| Maximum step size is converged                                          NO
 OPT|
 OPT| RMS step size                                                 0.0048596589
 OPT| Convergence limit for RMS step size                           0.0015000000
 OPT| RMS step size is converged                                              NO
 OPT|
 OPT| Maximum gradient                                              0.0086577075
 OPT| Convergence limit for maximum gradient                        0.0004500000
 OPT| Maximum gradient is converged                                           NO
 OPT|
 OPT| RMS gradient                                                  0.0011176512
 OPT| Convergence limit for RMS gradient                            0.0003000000
 OPT| RMS gradient is converged                                               NO
 OPT|
 OPT| Pressure deviation [bar]                                  -6758.6424783686
 OPT| Pressure tolerance [bar]                                    100.0000000000
 OPT| Pressure is converged                                                   NO
 OPT| **************************************************************************
 OPT| Estimated peak process memory after this step [MiB]                    172

 --------------------------
 OPTIMIZATION STEP:      8
 --------------------------

 CELL| Volume [angstrom^3]:                                           349.252969
 CELL| Vector a [angstrom]:       8.080     0.000     0.000   |a| =     8.080283
 CELL| Vector b [angstrom]:       0.000     6.043     0.000   |b| =     6.043400
 CELL| Vector c [angstrom]:      -4.906    -0.000     7.152   |c| =     8.672897
 CELL| Angle (b,c), alpha [degree]:                                    90.000000
 CELL| Angle (a,c), beta  [degree]:                                   124.447310
 CELL| Angle (a,b), gamma [degree]:                                    90.000000
 CELL| Numerically orthorhombic:                                              NO
 CELL| Periodicity                                                           XYZ

 Extrapolation method: ASPC

 Number of electrons:                                                         96
 Number of occupied orbitals:                                                 48
 Number of molecular orbitals:                                               112

 Number of orbital functions:                                                112
 Number of independent orbital functions:                                    112


 SCF WAVEFUNCTION OPTIMIZATION

  Step     Update method      Time    Convergence         Total energy    Change
  ------------------------------------------------------------------------------
     1 TBLite/Diag 0.40E+00    0.0     0.00366310       -50.9201449092 -5.09E+01
     2 TBLite/Diag 0.40E+00    0.0     0.00018419       -50.9201451370 -2.28E-07
     3 TBLite/Diag 0.40E+00    0.0     0.00008961       -50.9201451525 -1.55E-08
     4 TBLite/Diag 0.40E+00    0.0     0.00004147       -50.9201451749 -2.24E-08
     5 TBLite/Diag 0.40E+00    0.0     0.00000326       -50.9201451750 -8.96E-11
     6 TBLite/Diag 0.40E+00    0.0     0.00000096       -50.9201451750 -4.36E-12
     7 TBLite/Diag 0.40E+00    0.0     0.00000010       -50.9201451750  3.55E-14
     8 TBLite/Diag 0.40E+00    0.0     0.00000001       -50.9201451750 -3.55E-14
     9 TBLite/Diag 0.40E+00    0.0     2.3191E-09       -50.9201451750  2.13E-14
    10 TBLite/Diag 0.40E+00    0.0     6.8186E-10       -50.9201451750 -1.42E-14

  *** SCF run converged in    10 steps ***


  Core Hamiltonian energy:                                    -51.79748779881174
  Repulsive potential energy:                                   0.94801860704345
  Electrostatic energy:                                         0.00166540054908
  Self-consistent dispersion energy:                            0.00000000000000
  Non-self consistent dispersion energy:                       -0.07234138373780
  Correction for halogen bonding:                               0.00000000000000
  Electronic entropic energy:                                  -0.00000000000000
  Fermi energy:                                                -0.33717730476780

  Total energy:                                               -50.92014517495702
  Total energy (extrapolated to T->0):                        -50.92014517495702

 ENERGY| Total FORCE_EVAL ( QS ) energy [hartree]            -50.920145174957021

 OPT| **************************************************************************
 OPT| Step number                                                              8
 OPT| Optimization method                                                   BFGS
 OPT| Total energy [hartree]                                      -50.9201451750
 OPT| Internal pressure [bar]                                   -4016.8585437110
 OPT| Effective energy change [hartree]                            -0.0001956430
 OPT| Predicted energy change [hartree]                            -0.0001411426
 OPT| Scaling factor                                                0.0000000000
 OPT| Step size                                                     0.0168010900
 OPT| Trust radius                                                  0.4724315332
 OPT| Decrease in energy                                                     YES
 OPT| Used time [s]                                                        0.481
 OPT|
 OPT| Maximum step size                                             0.0168010900
 OPT| Convergence limit for maximum step size                       0.0030000000
 OPT| Maximum step size is converged                                          NO
 OPT|
 OPT| RMS step size                                                 0.0048541164
 OPT| Convergence limit for RMS step size                           0.0015000000
 OPT| RMS step size is converged                                              NO
 OPT|
 OPT| Maximum gradient                                              0.0071368707
 OPT| Convergence limit for maximum gradient                        0.0004500000
 OPT| Maximum gradient is converged                                           NO
 OPT|
 OPT| RMS gradient                                                  0.0009042130
 OPT| Convergence limit for RMS gradient                            0.0003000000
 OPT| RMS gradient is converged                                               NO
 OPT|
 OPT| Pressure deviation [bar]                                  -4016.8585437110
 OPT| Pressure tolerance [bar]                                    100.0000000000
 OPT| Pressure is converged                                                   NO
 OPT| **************************************************************************
 OPT| Estimated peak process memory after this step [MiB]                    172

 --------------------------
 OPTIMIZATION STEP:      9
 --------------------------

 CELL| Volume [angstrom^3]:                                           348.297618
 CELL| Vector a [angstrom]:       8.075     0.000     0.000   |a| =     8.075024
 CELL| Vector b [angstrom]:       0.000     6.033     0.000   |b| =     6.033278
 CELL| Vector c [angstrom]:      -4.904    -0.000     7.149   |c| =     8.669555
 CELL| Angle (b,c), alpha [degree]:                                    90.000000
 CELL| Angle (a,c), beta  [degree]:                                   124.449496
 CELL| Angle (a,b), gamma [degree]:                                    90.000000
 CELL| Numerically orthorhombic:                                              NO
 CELL| Periodicity                                                           XYZ

 Extrapolation method: ASPC

 Number of electrons:                                                         96
 Number of occupied orbitals:                                                 48
 Number of molecular orbitals:                                               112

 Number of orbital functions:                                                112
 Number of independent orbital functions:                                    112


 SCF WAVEFUNCTION OPTIMIZATION

  Step     Update method      Time    Convergence         Total energy    Change
  ------------------------------------------------------------------------------
     1 TBLite/Diag 0.40E+00    0.0     0.00239440       -50.9202622834 -5.09E+01
     2 TBLite/Diag 0.40E+00    0.0     0.00019016       -50.9202624749 -1.91E-07
     3 TBLite/Diag 0.40E+00    0.0     0.00007515       -50.9202624821 -7.25E-09
     4 TBLite/Diag 0.40E+00    0.0     0.00004175       -50.9202624996 -1.75E-08
     5 TBLite/Diag 0.40E+00    0.0     0.00000530       -50.9202625001 -5.29E-10
     6 TBLite/Diag 0.40E+00    0.0     0.00000160       -50.9202625001 -1.72E-11
     7 TBLite/Diag 0.40E+00    0.0     0.00000013       -50.9202625001  7.11E-15
     8 TBLite/Diag 0.40E+00    0.0     0.00000009       -50.9202625001 -1.21E-13
     9 TBLite/Diag 0.40E+00    0.0     3.5767E-09       -50.9202625001 -7.11E-15
    10 TBLite/Diag 0.40E+00    0.0     9.7903E-10       -50.9202625001  1.21E-13

  *** SCF run converged in    10 steps ***


  Core Hamiltonian energy:                                    -51.80285410129308
  Repulsive potential energy:                                   0.95345881792979
  Electrostatic energy:                                         0.00166783867601
  Self-consistent dispersion energy:                            0.00000000000000
  Non-self consistent dispersion energy:                       -0.07253505542840
  Correction for halogen bonding:                               0.00000000000000
  Electronic entropic energy:                                  -0.00000000000000
  Fermi energy:                                                -0.33718430633999

  Total energy:                                               -50.92026250011568
  Total energy (extrapolated to T->0):                        -50.92026250011568

 ENERGY| Total FORCE_EVAL ( QS ) energy [hartree]            -50.920262500115676

 OPT| **************************************************************************
 OPT| Step number                                                              9
 OPT| Optimization method                                                   BFGS
 OPT| Total energy [hartree]                                      -50.9202625001
 OPT| Internal pressure [bar]                                   -1068.1551106864
 OPT| Effective energy change [hartree]                            -0.0001173252
 OPT| Predicted energy change [hartree]                            -0.0000840066
 OPT| Scaling factor                                                0.0000000000
 OPT| Step size                                                     0.0191288814
 OPT| Trust radius                                                  0.4724315332
 OPT| Decrease in energy                                                     YES
 OPT| Used time [s]                                                        0.247
 OPT|
 OPT| Maximum step size                                             0.0191288814
 OPT| Convergence limit for maximum step size                       0.0030000000
 OPT| Maximum step size is converged                                          NO
 OPT|
 OPT| RMS step size                                                 0.0032508743
 OPT| Convergence limit for RMS step size                           0.0015000000
 OPT| RMS step size is converged                                              NO
 OPT|
 OPT| Maximum gradient                                              0.0040623643
 OPT| Convergence limit for maximum gradient                        0.0004500000
 OPT| Maximum gradient is converged                                           NO
 OPT|
 OPT| RMS gradient                                                  0.0006736517
 OPT| Convergence limit for RMS gradient                            0.0003000000
 OPT| RMS gradient is converged                                               NO
 OPT|
 OPT| Pressure deviation [bar]                                  -1068.1551106864
 OPT| Pressure tolerance [bar]                                    100.0000000000
 OPT| Pressure is converged                                                   NO
 OPT| **************************************************************************
 OPT| Estimated peak process memory after this step [MiB]                    172

 --------------------------
 OPTIMIZATION STEP:     10
 --------------------------

 CELL| Volume [angstrom^3]:                                           347.530290
 CELL| Vector a [angstrom]:       8.070     0.000     0.000   |a| =     8.070468
 CELL| Vector b [angstrom]:       0.000     6.024     0.000   |b| =     6.023818
 CELL| Vector c [angstrom]:      -4.905    -0.000     7.149   |c| =     8.669638
 CELL| Angle (b,c), alpha [degree]:                                    90.000000
 CELL| Angle (a,c), beta  [degree]:                                   124.456312
 CELL| Angle (a,b), gamma [degree]:                                    90.000000
 CELL| Numerically orthorhombic:                                              NO
 CELL| Periodicity                                                           XYZ

 Extrapolation method: ASPC

 Number of electrons:                                                         96
 Number of occupied orbitals:                                                 48
 Number of molecular orbitals:                                               112

 Number of orbital functions:                                                112
 Number of independent orbital functions:                                    112


 SCF WAVEFUNCTION OPTIMIZATION

  Step     Update method      Time    Convergence         Total energy    Change
  ------------------------------------------------------------------------------
     1 TBLite/Diag 0.40E+00    0.0     0.00149839       -50.9203454616 -5.09E+01
     2 TBLite/Diag 0.40E+00    0.0     0.00013758       -50.9203455605 -9.89E-08
     3 TBLite/Diag 0.40E+00    0.0     0.00004979       -50.9203455652 -4.70E-09
     4 TBLite/Diag 0.40E+00    0.0     0.00002853       -50.9203455720 -6.85E-09
     5 TBLite/Diag 0.40E+00    0.0     0.00000508       -50.9203455725 -4.37E-10
     6 TBLite/Diag 0.40E+00    0.0     0.00000135       -50.9203455725 -1.21E-11
     7 TBLite/Diag 0.40E+00    0.0     0.00000012       -50.9203455725  0.00E+00
     8 TBLite/Diag 0.40E+00    0.0     0.00000009       -50.9203455725  1.42E-14
     9 TBLite/Diag 0.40E+00    0.0     2.8691E-09       -50.9203455725 -1.63E-13
    10 TBLite/Diag 0.40E+00    0.0     5.7109E-10       -50.9203455725  9.95E-14

  *** SCF run converged in    10 steps ***


  Core Hamiltonian energy:                                    -51.80620577972112
  Repulsive potential energy:                                   0.95688674691339
  Electrostatic energy:                                         0.00167062454359
  Self-consistent dispersion energy:                            0.00000000000000
  Non-self consistent dispersion energy:                       -0.07269716420644
  Correction for halogen bonding:                               0.00000000000000
  Electronic entropic energy:                                  -0.00000000000000
  Fermi energy:                                                -0.33721342887413

  Total energy:                                               -50.92034557247058
  Total energy (extrapolated to T->0):                        -50.92034557247058

 ENERGY| Total FORCE_EVAL ( QS ) energy [hartree]            -50.920345572470580

 OPT| **************************************************************************
 OPT| Step number                                                             10
 OPT| Optimization method                                                   BFGS
 OPT| Total energy [hartree]                                      -50.9203455725
 OPT| Internal pressure [bar]                                     751.3382231813
 OPT| Effective energy change [hartree]                            -0.0000830724
 OPT| Predicted energy change [hartree]                            -0.0000561180
 OPT| Scaling factor                                                0.0000000000
 OPT| Step size                                                     0.0178761768
 OPT| Trust radius                                                  0.4724315332
 OPT| Decrease in energy                                                     YES
 OPT| Used time [s]                                                        0.247
 OPT|
 OPT| Maximum step size                                             0.0178761768
 OPT| Convergence limit for maximum step size                       0.0030000000
 OPT| Maximum step size is converged                                          NO
 OPT|
 OPT| RMS step size                                                 0.0023719434
 OPT| Convergence limit for RMS step size                           0.0015000000
 OPT| RMS step size is converged                                              NO
 OPT|
 OPT| Maximum gradient                                              0.0024558683
 OPT| Convergence limit for maximum gradient                        0.0004500000
 OPT| Maximum gradient is converged                                           NO
 OPT|
 OPT| RMS gradient                                                  0.0006411654
 OPT| Convergence limit for RMS gradient                            0.0003000000
 OPT| RMS gradient is converged                                               NO
 OPT|
 OPT| Pressure deviation [bar]                                    751.3382231813
 OPT| Pressure tolerance [bar]                                    100.0000000000
 OPT| Pressure is converged                                                   NO
 OPT| **************************************************************************
 OPT| Estimated peak process memory after this step [MiB]                    172

 --------------------------
 OPTIMIZATION STEP:     11
 --------------------------

 CELL| Volume [angstrom^3]:                                           346.707287
 CELL| Vector a [angstrom]:       8.065     0.000     0.000   |a| =     8.064737
 CELL| Vector b [angstrom]:       0.000     6.013     0.000   |b| =     6.012873
 CELL| Vector c [angstrom]:      -4.908    -0.000     7.150   |c| =     8.672194
 CELL| Angle (b,c), alpha [degree]:                                    90.000000
 CELL| Angle (a,c), beta  [degree]:                                   124.467728
 CELL| Angle (a,b), gamma [degree]:                                    90.000000
 CELL| Numerically orthorhombic:                                              NO
 CELL| Periodicity                                                           XYZ

 Extrapolation method: ASPC

 Number of electrons:                                                         96
 Number of occupied orbitals:                                                 48
 Number of molecular orbitals:                                               112

 Number of orbital functions:                                                112
 Number of independent orbital functions:                                    112


 SCF WAVEFUNCTION OPTIMIZATION

  Step     Update method      Time    Convergence         Total energy    Change
  ------------------------------------------------------------------------------
     1 TBLite/Diag 0.40E+00    0.0     0.00120134       -50.9204352163 -5.09E+01
     2 TBLite/Diag 0.40E+00    0.0     0.00009726       -50.9204352646 -4.83E-08
     3 TBLite/Diag 0.40E+00    0.0     0.00003514       -50.9204352684 -3.83E-09
     4 TBLite/Diag 0.40E+00    0.0     0.00001811       -50.9204352711 -2.74E-09
     5 TBLite/Diag 0.40E+00    0.0     0.00000303       -50.9204352713 -1.82E-10
     6 TBLite/Diag 0.40E+00    0.0     0.00000097       -50.9204352713 -6.22E-12
     7 TBLite/Diag 0.40E+00    0.0     0.00000008       -50.9204352713 -1.92E-13
     8 TBLite/Diag 0.40E+00    0.0     0.00000005       -50.9204352713  2.13E-14
     9 TBLite/Diag 0.40E+00    0.0     1.2644E-09       -50.9204352713  7.11E-14
    10 TBLite/Diag 0.40E+00    0.0     6.1787E-10       -50.9204352713  1.42E-14

  *** SCF run converged in    10 steps ***


  Core Hamiltonian energy:                                    -51.80740919855239
  Repulsive potential energy:                                   0.95818258969083
  Electrostatic energy:                                         0.00167315638330
  Self-consistent dispersion energy:                            0.00000000000000
  Non-self consistent dispersion energy:                       -0.07288181884638
  Correction for halogen bonding:                               0.00000000000000
  Electronic entropic energy:                                  -0.00000000000000
  Fermi energy:                                                -0.33726943270115

  Total energy:                                               -50.92043527132465
  Total energy (extrapolated to T->0):                        -50.92043527132465

 ENERGY| Total FORCE_EVAL ( QS ) energy [hartree]            -50.920435271324649

 OPT| **************************************************************************
 OPT| Step number                                                             11
 OPT| Optimization method                                                   BFGS
 OPT| Total energy [hartree]                                      -50.9204352713
 OPT| Internal pressure [bar]                                    1440.2087751024
 OPT| Effective energy change [hartree]                            -0.0000896989
 OPT| Predicted energy change [hartree]                            -0.0000592729
 OPT| Scaling factor                                                0.0000000000
 OPT| Step size                                                     0.0206839937
 OPT| Trust radius                                                  0.4724315332
 OPT| Decrease in energy                                                     YES
 OPT| Used time [s]                                                        0.247
 OPT|
 OPT| Maximum step size                                             0.0206839937
 OPT| Convergence limit for maximum step size                       0.0030000000
 OPT| Maximum step size is converged                                          NO
 OPT|
 OPT| RMS step size                                                 0.0028677411
 OPT| Convergence limit for RMS step size                           0.0015000000
 OPT| RMS step size is converged                                              NO
 OPT|
 OPT| Maximum gradient                                              0.0019174044
 OPT| Convergence limit for maximum gradient                        0.0004500000
 OPT| Maximum gradient is converged                                           NO
 OPT|
 OPT| RMS gradient                                                  0.0007104721
 OPT| Convergence limit for RMS gradient                            0.0003000000
 OPT| RMS gradient is converged                                               NO
 OPT|
 OPT| Pressure deviation [bar]                                   1440.2087751024
 OPT| Pressure tolerance [bar]                                    100.0000000000
 OPT| Pressure is converged                                                   NO
 OPT| **************************************************************************
 OPT| Estimated peak process memory after this step [MiB]                    172

 --------------------------
 OPTIMIZATION STEP:     12
 --------------------------

 CELL| Volume [angstrom^3]:                                           345.733654
 CELL| Vector a [angstrom]:       8.057     0.000     0.000   |a| =     8.057020
 CELL| Vector b [angstrom]:       0.000     6.000     0.000   |b| =     5.999915
 CELL| Vector c [angstrom]:      -4.913    -0.000     7.152   |c| =     8.676661
 CELL| Angle (b,c), alpha [degree]:                                    90.000000
 CELL| Angle (a,c), beta  [degree]:                                   124.485462
 CELL| Angle (a,b), gamma [degree]:                                    90.000000
 CELL| Numerically orthorhombic:                                              NO
 CELL| Periodicity                                                           XYZ

 Extrapolation method: ASPC

 Number of electrons:                                                         96
 Number of occupied orbitals:                                                 48
 Number of molecular orbitals:                                               112

 Number of orbital functions:                                                112
 Number of independent orbital functions:                                    112


 SCF WAVEFUNCTION OPTIMIZATION

  Step     Update method      Time    Convergence         Total energy    Change
  ------------------------------------------------------------------------------
     1 TBLite/Diag 0.40E+00    0.0     0.00157177       -50.9205388386 -5.09E+01
     2 TBLite/Diag 0.40E+00    0.0     0.00004468       -50.9205388588 -2.01E-08
     3 TBLite/Diag 0.40E+00    0.0     0.00003019       -50.9205388571  1.69E-09
     4 TBLite/Diag 0.40E+00    0.0     0.00001921       -50.9205388608 -3.71E-09
     5 TBLite/Diag 0.40E+00    0.0     0.00000272       -50.9205388609 -1.13E-10
     6 TBLite/Diag 0.40E+00    0.0     0.00000135       -50.9205388609 -4.15E-12
     7 TBLite/Diag 0.40E+00    0.0     0.00000014       -50.9205388609 -3.41E-13
     8 TBLite/Diag 0.40E+00    0.0     0.00000003       -50.9205388609  1.28E-13
     9 TBLite/Diag 0.40E+00    0.0     9.4789E-10       -50.9205388609 -1.71E-13

  *** SCF run converged in     9 steps ***


  Core Hamiltonian energy:                                    -51.80586285449856
  Repulsive potential energy:                                   0.95676149981442
  Electrostatic energy:                                         0.00167458722135
  Self-consistent dispersion energy:                            0.00000000000000
  Non-self consistent dispersion energy:                       -0.07311209343907
  Correction for halogen bonding:                               0.00000000000000
  Electronic entropic energy:                                  -0.00000000000000
  Fermi energy:                                                -0.33736396539584

  Total energy:                                               -50.92053886090187
  Total energy (extrapolated to T->0):                        -50.92053886090187

 ENERGY| Total FORCE_EVAL ( QS ) energy [hartree]            -50.920538860901871

 OPT| **************************************************************************
 OPT| Step number                                                             12
 OPT| Optimization method                                                   BFGS
 OPT| Total energy [hartree]                                      -50.9205388609
 OPT| Internal pressure [bar]                                     719.5005253064
[...]
 CELL| Numerically orthorhombic:                                              NO
 CELL| Periodicity                                                           XYZ

 Extrapolation method: ASPC

 Number of electrons:                                                         96
 Number of occupied orbitals:                                                 48
 Number of molecular orbitals:                                               112

 Number of orbital functions:                                                112
 Number of independent orbital functions:                                    112


 SCF WAVEFUNCTION OPTIMIZATION

  Step     Update method      Time    Convergence         Total energy    Change
  ------------------------------------------------------------------------------
     1 TBLite/Diag 0.40E+00    0.0     0.00027210       -51.0191795071 -5.10E+01
     2 TBLite/Diag 0.40E+00    0.0     0.00000486       -51.0191795074 -3.00E-10
     3 TBLite/Diag 0.40E+00    0.0     0.00000109       -51.0191795074 -7.17E-12
     4 TBLite/Diag 0.40E+00    0.0     0.00000048       -51.0191795074 -6.32E-13
     5 TBLite/Diag 0.40E+00    0.0     0.00000010       -51.0191795074 -1.07E-13
     6 TBLite/Diag 0.40E+00    0.0     0.00000008       -51.0191795074 -4.97E-14
     7 TBLite/Diag 0.40E+00    0.0     8.2793E-09       -51.0191795074  1.49E-13
     8 TBLite/Diag 0.40E+00    0.0     1.1533E-09       -51.0191795074 -1.42E-14
     9 TBLite/Diag 0.40E+00    0.0     2.5865E-10       -51.0191795074 -9.24E-14

  *** SCF run converged in     9 steps ***


  Core Hamiltonian energy:                                    -51.80224512663663
  Repulsive potential energy:                                   0.86257603341202
  Electrostatic energy:                                         0.00177775603429
  Self-consistent dispersion energy:                            0.00000000000000
  Non-self consistent dispersion energy:                       -0.08128817021363
  Correction for halogen bonding:                               0.00000000000000
  Electronic entropic energy:                                  -0.00000000000000
  Fermi energy:                                                -0.29826287016421

  Total energy:                                               -51.01917950740395
  Total energy (extrapolated to T->0):                        -51.01917950740395

 ENERGY| Total FORCE_EVAL ( QS ) energy [hartree]            -51.019179507403948

 OPT| **************************************************************************
 OPT| Step number                                                            171
 OPT| Optimization method                                                   BFGS
 OPT| Total energy [hartree]                                      -51.0191795074
 OPT| Internal pressure [bar]                                     -30.7216569970
 OPT| Effective energy change [hartree]                            -0.0000000675
 OPT| Predicted energy change [hartree]                            -0.0000000635
 OPT| Scaling factor                                                0.7907920940
 OPT| Step size                                                     0.0019574457
 OPT| Trust radius                                                  0.4724315332
 OPT| Decrease in energy                                                     YES
 OPT| Used time [s]                                                        0.298
 OPT|
 OPT| Maximum step size                                             0.0019574457
 OPT| Convergence limit for maximum step size                       0.0030000000
 OPT| Maximum step size is converged                                         YES
 OPT|
 OPT| RMS step size                                                 0.0004162356
 OPT| Convergence limit for RMS step size                           0.0015000000
 OPT| RMS step size is converged                                             YES
 OPT|
 OPT| Maximum gradient                                              0.0000269621
 OPT| Convergence limit for maximum gradient                        0.0004500000
 OPT| Maximum gradient is converged                                          YES
 OPT|
 OPT| RMS gradient                                                  0.0000062674
 OPT| Convergence limit for RMS gradient                            0.0003000000
 OPT| RMS gradient is converged                                              YES
 OPT|
 OPT| Pressure deviation [bar]                                    -30.7216569970
 OPT| Pressure tolerance [bar]                                    100.0000000000
 OPT| Pressure is converged                                                  YES
 OPT| **************************************************************************
 OPT| Estimated peak process memory after this step [MiB]                    172

 *******************************************************************************
 ***                    GEOMETRY OPTIMIZATION COMPLETED                      ***
 *******************************************************************************

 write_final_structure: Optimization converged, writing XYZ file gladly:
  naphthalene_GFN1_gamma_cell_opt-FINAL-1_171.xyz

 write_final_structure: Optimization converged, writing CIF file gladly:
  naphthalene_GFN1_gamma_cell_opt-FINAL-1_171.cif

 write_final_structure: Done!

                    Reevaluating energy at the minimum

 CELL| Volume [angstrom^3]:                                           284.294294
 CELL| Vector a [angstrom]:       8.945     0.000     0.000   |a| =     8.945394
 CELL| Vector b [angstrom]:      -0.000     4.029     0.000   |b| =     4.029083
 CELL| Vector c [angstrom]:      -4.057     0.000     7.888   |c| =     8.869992
 CELL| Angle (b,c), alpha [degree]:                                    90.000000
 CELL| Angle (a,c), beta  [degree]:                                   117.216893
 CELL| Angle (a,b), gamma [degree]:                                    90.000000
 CELL| Numerically orthorhombic:                                              NO
 CELL| Periodicity                                                           XYZ

 Extrapolation method: ASPC

 Number of electrons:                                                         96
 Number of occupied orbitals:                                                 48
 Number of molecular orbitals:                                               112

 Number of orbital functions:                                                112
 Number of independent orbital functions:                                    112


 SCF WAVEFUNCTION OPTIMIZATION

  Step     Update method      Time    Convergence         Total energy    Change
  ------------------------------------------------------------------------------
     1 TBLite/Diag 0.40E+00    0.0     1.1294E-11       -51.0191795074 -5.10E+01

  *** SCF run converged in     1 steps ***


  Core Hamiltonian energy:                                    -51.80224512663651
  Repulsive potential energy:                                   0.86257603341202
  Electrostatic energy:                                         0.00177775603414
  Self-consistent dispersion energy:                            0.00000000000000
  Non-self consistent dispersion energy:                       -0.08128817021363
  Correction for halogen bonding:                               0.00000000000000
  Electronic entropic energy:                                  -0.00000000000000
  Fermi energy:                                                -0.29826287016235

  Total energy:                                               -51.01917950740399
  Total energy (extrapolated to T->0):                        -51.01917950740399

 ENERGY| Total FORCE_EVAL ( QS ) energy [hartree]            -51.019179507403990

 -------------------------------------------------------------------------------
 -                                                                             -
 -                                DBCSR STATISTICS                             -
 -                                                                             -
 -------------------------------------------------------------------------------
 COUNTER                                    TOTAL       BLAS       SMM       ACC
 flops     2 x    16 x     2             27852800       0.0%    100.0%      0.0%     
 flops     2 x    16 x     4             69632000       0.0%    100.0%      0.0%     
 flops     4 x    16 x     2             69632000       0.0%    100.0%      0.0%     
 flops     2 x    32 x     2            167116800       0.0%    100.0%      0.0%     
 flops     4 x    16 x     4            174080000       0.0%    100.0%      0.0%     
 flops     2 x     2 x   112            253826048       0.0%    100.0%      0.0%     
 flops     2 x    32 x     4            417792000       0.0%    100.0%      0.0%     
 flops     4 x    32 x     2            417792000       0.0%    100.0%      0.0%     
 flops     2 x     4 x   112            597237760       0.0%    100.0%      0.0%     
 flops     4 x     2 x   112            597237760       0.0%    100.0%      0.0%     
 flops     4 x    32 x     4           1044480000       0.0%    100.0%      0.0%     
 flops     4 x     4 x   112           1567749120       0.0%    100.0%      0.0%     
 flops inhomo. stacks                           0       0.0%      0.0%      0.0%
 flops total                         5.404428E+09       0.0%    100.0%      0.0%
 flops max/rank                      5.404428E+09       0.0%    100.0%      0.0%
 matmuls inhomo. stacks                         0       0.0%      0.0%      0.0%
 matmuls total                            5793678       0.0%    100.0%      0.0%
 number of processed stacks                 15982       0.0%    100.0%      0.0%
 average stack size                                     0.0     362.5       0.0
 marketing flops                     4.896776E+09
 -------------------------------------------------------------------------------
 # multiplications                           2933
 max memory usage/rank              13.675278E+09
 # max total images/rank                        1
 # max 3D layers                                1
 # MPI messages exchanged                       0
 -------------------------------------------------------------------------------
 -                                                                             -
 -                      DBCSR MESSAGE PASSING PERFORMANCE                      -
 -                                                                             -
 -------------------------------------------------------------------------------
 ROUTINE             CALLS      AVE VOLUME [Bytes]
 MP_Bcast               13                     12.
 MP_Allreduce        13008                      8.
 MP_Alltoall         92914                  66717.
 MP_ISend            11732                   6219.
 MP_IRecv            11732                   6219.
 -------------------------------------------------------------------------------

 -------------------------------------------------------------------------------
 -                                                                             -
 -                          OFFLOAD MEMPOOL STATISTICS                         -
 -                                                                             -
 -------------------------------------------------------------------------------
 Memory consumption                Number of allocations  Used [MiB]  Size [MiB]
 Device                                                1           0           0
 Host                                                  1           0           0
 -------------------------------------------------------------------------------

 MEMORY| Estimated peak process memory [MiB]                                 172

 -------------------------------------------------------------------------------
 -                                                                             -
 -                         MESSAGE PASSING PERFORMANCE                         -
 -                                                                             -
 -------------------------------------------------------------------------------

 ROUTINE             CALLS      AVE VOLUME [Bytes]
 MP_Group              172
 MP_Bcast             4164                    451.
 MP_Allreduce        30302                    278.
 MP_Sync              2254
 MP_comm_split        2082
 -------------------------------------------------------------------------------


 -------------------------------------------------------------------------------
 -                                                                             -
 -                           R E F E R E N C E S                               -
 -                                                                             -
 -------------------------------------------------------------------------------
 
 CP2K version 2026.1 (Development Version), the CP2K developers group (2026).
 CP2K is freely available from https://www.cp2k.org/ .
 
 M. Iannuzzi, J. Wilhelm, F. Stein, A. Bussy, H. Elgabarty, D. Golze, A. Hehn, 
 M. Graml, S. Marek, B. Sertcan Gökmen, C. Schran, H. Forbert, R. Z. 
 Khaliullin, A. Kozhevnikov, M. Taillefumier, R. Meli, V. V. Rybkin, M. Brehm, 
 R. Schade, O. Schütt, J. V. Pototschnig, H. Mirhosseini, A. Knüpfer, D. Marx, 
 M. Krack, J. Hutter, T. D. Kühne.
 J. Phys. Chem. B 130, 1237-1310 (2026).
 The CP2K Program Package Made Simple.
 https://doi.org/10.1021/acs.jpcb.5c05851

 A. Katbashev, M. Stahn, T. Rose, V. Alizadeh, M. Friede, C. Plett, P. 
 Steinbach, S. Ehlert.
 J. Phys. Chem. A 129, 2667-2682 (2025).
 Overview on Building Blocks and Applications of Efficient and Robust Extended 
 Tight Binding.
 https://doi.org/10.1021/acs.jpca.4c08263

 T. D. Kühne, M. Iannuzzi, M. Del Ben, V. V. Rybkin, P. Seewald, F. Stein, T. 
 Laino, R. Z. Khaliullin, O. Schütt, F. Schiffmann, D. Golze, J. Wilhelm, S. 
 Chulkov, M. H. Bani-Hashemian, V. Weber, U. Borstnik, M. Taillefumier, A. S. 
 Jakobovits, A. Lazzaro, H. Pabst, T. Müller, R. Schade, M. Guidon, S. 
 Andermatt, N. Holmberg, G. K. Schenter, A. Hehn, A. Bussy, F. Belleflamme, G. 
 Tabacchi, A. Glöß, M. Lass, I. Bethune, C. J. Mundy, C. Plessl, M. Watkins, 
 J. VandeVondele, M. Krack, J. Hutter.
 J. Chem. Phys. 152, 194103 (2020).
 CP2K: An electronic structure and molecular dynamics software package - 
 Quickstep: Efficient and accurate electronic structure calculations.
 https://doi.org/10.1063/5.0007045

 P. Pracht, E. Caldeweyher, S. Ehlert, S. Grimme.
 ChemRxiv, (2019).
 A Robust Non-Self-Consistent Tight-Binding Quantum Chemistry Method for large 
 Molecules.
 https://doi.org/10.26434/chemrxiv.8326202.v1

 S. Grimme, C. Bannwarth, P. Shushkov.
 J. Chem. Theory Comput. 13, 1989 (2017).
 A Robust and Accurate Tight-Binding Quantum Chemical Method for Structures, 
 Vibrational Frequencies, and Noncovalent Interactions of Large Molecular 
 Systems Parametrized for All spd-Block Elements (Z = 1-86).
 https://doi.org/10.1021/acs.jctc.7b00118

 O. Schuett, P. Messmer, J. Hutter, J. VandeVondele.
 Electronic Structure Calculations on Graphics Processing Units, 173-190 (2016).
 GPU-Accelerated Sparse Matrix-Matrix Multiplication for Linear Scaling Density 
 Functional Theory.
 https://doi.org/10.1002/9781118670712.ch8

 A. Heinecke, G. Henry, M. Hutchinson, H. Pabst.
 Proceedings of Intl. Supercomputing Conference, 981-991 (2016).
 LIBXSMM: Accelerating Small Matrix Multiplications by Runtime Code Generation.
 https://doi.org/10.1109/SC.2016.83

 U. Borstnik, J. VandeVondele, V. Weber, J. Hutter.
 Parallel Comput. 40, 47-58 (2014).
 Sparse matrix multiplication: The distributed block-compressed sparse row 
 library.
 https://doi.org/10.1016/j.parco.2014.03.012

 T. D. Kühne, M. Krack, F. R. Mohamed, M. Parrinello.
 Phys. Rev. Lett. 98, 066401 (2007).
 Efficient and accurate Car-Parrinello-like approach to Born-Oppenheimer 
 molecular dynamics.
 https://doi.org/10.1103/PhysRevLett.98.066401

 M. Frigo, S. G. Johnson.
 Proc. IEEE 93, 216-231 (2005).
 The design and implementation of FFTW3.
 https://doi.org/10.1109/JPROC.2004.840301

 J. Kolafa.
 J. Comput. Chem. 25, 335-342 (2004).
 Time-reversible always stable predictor-corrector method for molecular dynamics 
 of polarizable molecules.
 https://doi.org/10.1002/jcc.10385

 N. D. Mermin.
 Phys. Rev. 137, A1441-A1443 (1965).
 Thermal Properties of the Inhomogeneous Electron Gas.
 https://doi.org/10.1103/PhysRev.137.A1441


 -------------------------------------------------------------------------------
 -                                                                             -
 -                                T I M I N G                                  -
 -                                                                             -
 -------------------------------------------------------------------------------
 SUBROUTINE                       CALLS  ASD         SELF TIME        TOTAL TIME
                                MAXIMUM       AVERAGE  MAXIMUM  AVERAGE  MAXIMUM
 CP2K                                 1  1.0    0.002    0.002   50.666   50.666
 cp_cell_opt                          1  2.0    0.000    0.000   50.659   50.659
 geoopt_bfgs                          1  3.0    0.015    0.015   50.659   50.659
 cp_eval_at                         173  4.0    0.015    0.015   50.399   50.399
 qs_forces                          172  5.0    0.007    0.007   50.317   50.317
 build_tblite_matrices              345  7.0   21.829   21.829   22.092   22.092
 rebuild_ks_matrix                 1911  9.7    0.001    0.001   21.907   21.907
 build_tblite_ks_matrix            1911 10.7   21.892   21.892   21.905   21.905
 qs_ks_update_qs_env_forces         172  6.0    0.000    0.000   21.571   21.571
 qs_energies                        173  6.0    0.004    0.004   15.697   15.697
 qs_energies_init_hamiltonians      173  7.0    0.001    0.001    9.315    9.315
 scf_env_do_scf                     173  7.0    0.002    0.002    5.070    5.070
 scf_env_do_scf_inner_loop         1739  8.0    0.114    0.114    5.058    5.058
 qs_scf_new_mos                    1739  9.0    0.006    0.006    4.327    4.327
 eigensolver                       1739 10.0    0.018    0.018    1.730    1.730
 cp_fm_syevd                       2082 10.6    0.003    0.003    1.637    1.637
 cp_fm_syevd_base                  2082 11.6    1.536    1.536    1.536    1.536
 cp_dbcsr_plus_fm_fm_t             2083 10.8    0.008    0.008    1.461    1.461
 calculate_dm_sparse               1911 10.0    0.006    0.006    1.357    1.357
 dbcsr_multiply_generic            2933 12.0    0.048    0.048    1.338    1.338
 dbcsr_complete_redistribute       9344 12.2    0.960    0.960    1.215    1.215
 copy_dbcsr_to_fm                  4328 10.6    0.015    0.015    1.145    1.145
 init_scf_run                       173  7.0    0.001    0.001    1.096    1.096
 scf_env_initial_rho_setup          173  8.0    0.001    0.001    1.025    1.025
 wfi_extrapolate                    173  9.0    0.004    0.004    1.024    1.024
 -------------------------------------------------------------------------------

 The number of warnings for this run is : 0
 
 -------------------------------------------------------------------------------
  **** **** ******  **  PROGRAM ENDED AT                 2026-05-23 22:47:43.466
 ***** ** ***  *** **   PROGRAM RAN ON                                spark-c86c
 **    ****   ******    PROGRAM RAN BY                                  kuehne88
 ***** **    ** ** **   PROGRAM PROCESS ID                               2265774
  **** **  *******  **  PROGRAM STOPPED IN /home/kuehne88/periodic-gfn2-benchmar
                                           ks/X23b/runs/cellopt_gamma/GFN1/napht
                                           halene_GFN1_gamma_cellopt
