 DBCSR| CPU Multiplication driver                                           BLAS (U)
 DBCSR| Multrec recursion limit                                              512 (U)
 DBCSR| Multiplication stack size                                           1000 (D)
 DBCSR| Maximum elements for images                                    UNLIMITED (U)
 DBCSR| Multiplicative factor virtual images                                   1 (U)
 DBCSR| Use multiplication densification                                       T (D)
 DBCSR| Multiplication size stacks                                             3 (U)
 DBCSR| Use memory pool for CPU allocation                                     F (U)
 DBCSR| Number of 3D layers                                               SINGLE (U)
 DBCSR| Use MPI memory allocation                                              F (U)
 DBCSR| Use RMA algorithm                                                      F (U)
 DBCSR| Use Communication thread                                               T (U)
 DBCSR| Communication thread load                                             87 (D)
 DBCSR| MPI: My process id                                                     0
 DBCSR| MPI: Number of processes                                               1
 DBCSR| OMP: Current number of threads                                         1
 DBCSR| OMP: Max number of threads                                             1
 DBCSR| Split modifier for TAS multiplication algorithm                  1.0E+00 (U)


  **** **** ******  **  PROGRAM STARTED AT               2026-07-21 12:49:22.731
 ***** ** ***  *** **   PROGRAM STARTED ON                                 terok
 **    ****   ******    PROGRAM STARTED BY                              kuehne88
 ***** **    ** ** **   PROGRAM PROCESS ID                                538632
  **** **  *******  **  PROGRAM STARTED IN /home/kuehne88/work/gxtb-lowk-rerun-2
                                           0260721/results/derivative/H2O_gxtb_g
                                           amma_force_stress

 CP2K| version string:                 CP2K version 2026.2 (Development Version)
 CP2K| source code revision number:                                    8520b2e59
 CP2K| cp2kflags: omp parallel scalapack spglib s_dftd3 mctc-lib tblite tblite_g
 CP2K|            xtb
 CP2K| is freely available from                            https://www.cp2k.org/
 CP2K| Program compiled at                                   2026-07-18 23:48:15
 CP2K| Program compiled on                                                 terok
 CP2K| Program compiled for                                               x86_64
 CP2K| Data directory path                            /usr/local/share/cp2k/data
 CP2K| Input file name        /home/kuehne88/work/gxtb-lowk-rerun-20260721/input

 GLOBAL| Force Environment number                                              1
 GLOBAL| Basis set file name                                           BASIS_SET
 GLOBAL| Potential file name                                           POTENTIAL
 GLOBAL| MM Potential file name                                     MM_POTENTIAL
 GLOBAL| Coordinate file name                                      __STD_INPUT__
 GLOBAL| Method name                                                        CP2K
 GLOBAL| Project name                                H2O_gxtb_gamma_force_stress
 GLOBAL| Run type                                                          DEBUG
 GLOBAL| FFT library                                                       FFTW3
 GLOBAL| Diagonalization library                                       ScaLAPACK
 GLOBAL| Cholesky decomposition library                                ScaLAPACK
 GLOBAL| DGEMM library                                                      BLAS
 GLOBAL| Direct generalized diagonalization requested                          F
 GLOBAL| Orthonormality check for eigenvectors                          DISABLED
 GLOBAL| Matrix multiplication library                                 ScaLAPACK
 GLOBAL| All-to-all communication in single precision                          F
 GLOBAL| FFTs using library dependent lengths                                  F
 GLOBAL| Grid backend                                                       AUTO
 GLOBAL| Global print level                                               MEDIUM
 GLOBAL| MPI I/O enabled                                                       T
 GLOBAL| Total number of message passing processes                             1
 GLOBAL| Number of distributed systems (nodes)                                 1
 GLOBAL| Number of threads for this process                                    1
 GLOBAL| This output is from process                                           0
 GLOBAL| OpenMP stack size per thread (OMP_STACKSIZE)                    default
 GLOBAL| CPU model name                                       AMD EPYC Processor
 GLOBAL| CPUID                                                              1002

 MEMORY| system memory details [Kb]
 MEMORY|                        rank 0           min           max       average
 MEMORY| MemTotal            528104804     528104804     528104804     528104804
 MEMORY| MemFree             511521568     511521568     511521568     511521568
 MEMORY| Buffers                    20            20            20            20
 MEMORY| Cached               12077528      12077528      12077528      12077528
 MEMORY| Slab                  2342944       2342944       2342944       2342944
 MEMORY| SReclaimable           994104        994104        994104        994104
 MEMORY| MemLikelyFree       524593220     524593220     524593220     524593220


 *** WARNING in environment.F:1098 :: FFT library FFTW3 is not available. ***
 *** Trying FFT library FFTSG.                                            ***


 *** Fundamental physical constants (SI units) ***

 *** Literature: B. J. Mohr and B. N. Taylor,
 ***             CODATA recommended values of the fundamental physical
 ***             constants: 2006, Web Version 5.1
 ***             http://physics.nist.gov/constants

 Speed of light in vacuum [m/s]                             2.99792458000000E+08
 Magnetic constant or permeability of vacuum [N/A**2]       1.25663706143592E-06
 Electric constant or permittivity of vacuum [F/m]          8.85418781762039E-12
 Planck constant (h) [J*s]                                  6.62606896000000E-34
 Planck constant (h-bar) [J*s]                              1.05457162825177E-34
 Elementary charge [C]                                      1.60217648700000E-19
 Electron mass [kg]                                         9.10938215000000E-31
 Electron g factor [ ]                                     -2.00231930436220E+00
 Proton mass [kg]                                           1.67262163700000E-27
 Fine-structure constant                                    7.29735253760000E-03
 Rydberg constant [1/m]                                     1.09737315685270E+07
 Avogadro constant [1/mol]                                  6.02214179000000E+23
 Boltzmann constant [J/K]                                   1.38065040000000E-23
 Atomic mass unit [kg]                                      1.66053878200000E-27
 Bohr radius [m]                                            5.29177208590000E-11

 *** Conversion factors ***

 [u] -> [a.u.]                                              1.82288848426455E+03
 [Angstrom] -> [Bohr] = [a.u.]                              1.88972613288564E+00
 [a.u.] = [Bohr] -> [Angstrom]                              5.29177208590000E-01
 [a.u.] -> [s]                                              2.41888432650478E-17
 [a.u.] -> [fs]                                             2.41888432650478E-02
 [a.u.] -> [J]                                              4.35974393937059E-18
 [a.u.] -> [N]                                              8.23872205491840E-08
 [a.u.] -> [K]                                              3.15774647902944E+05
 [a.u.] -> [kJ/mol]                                         2.62549961709828E+03
 [a.u.] -> [kcal/mol]                                       6.27509468713739E+02
 [a.u.] -> [Pa]                                             2.94210107994716E+13
 [a.u.] -> [bar]                                            2.94210107994716E+08
 [a.u.] -> [atm]                                            2.90362800883016E+08
 [a.u.] -> [eV]                                             2.72113838565563E+01
 [a.u.] -> [Hz]                                             6.57968392072181E+15
 [a.u.] -> [1/cm] (wave numbers)                            2.19474631370540E+05
 [a.u./Bohr**2] -> [1/cm]                                   5.14048714338585E+03
 

 CELL| Volume [angstrom^3]:                                           611.520000
 CELL| Vector a [angstrom]:       8.000     0.000     0.000   |a| =     8.000000
 CELL| Vector b [angstrom]:       0.300     8.400     0.000   |b| =     8.405355
 CELL| Vector c [angstrom]:       0.200     0.400     9.100   |c| =     9.110982
 CELL| Angle (b,c), alpha [degree]:                                    87.440401
 CELL| Angle (a,c), beta  [degree]:                                    88.742169
 CELL| Angle (a,b), gamma [degree]:                                    87.954592
 CELL| Numerically orthorhombic:                                              NO
 CELL| Periodicity                                                           XYZ

 CELL_REF| Volume [angstrom^3]:                                       611.520000
 CELL_REF| Vector a [angstrom     8.000     0.000     0.000   |a| =     8.000000
 CELL_REF| Vector b [angstrom     0.300     8.400     0.000   |b| =     8.405355
 CELL_REF| Vector c [angstrom     0.200     0.400     9.100   |c| =     9.110982
 CELL_REF| Angle (b,c), alpha [degree]:                                87.440401
 CELL_REF| Angle (a,c), beta  [degree]:                                88.742169
 CELL_REF| Angle (a,b), gamma [degree]:                                87.954592
 CELL_REF| Numerically orthorhombic:                                          NO
 CELL_REF| Periodicity                                                       XYZ

 GENERATE|  Preliminary Number of Bonds generated:                             0
 GENERATE|  Achieved consistency in connectivity generation.


                  #####   #####        #     #   #     #       #          
                 #     # #     #      #    ##### #     #   # #####  ####  
                 #     # #           #       #   ###   #       #   #    # 
                 #     #  #####     #        #   #  #  #   #   #   ###### 
                 #   # #       #   #         #   #   # #   #   #   #      
                 #    #  #     #  #          #   #  #  # # #   #    #   # 
                  #### #  #####  #           #   ###   ##  #   #     ###  

                                     g-xTB   
                                 Version 0.0                       
                            Johann V. Pototschnig                  

                tblite provider: SAVE
                tblite source revision: 15915c9435644eb257178ca8f8bf7220c38b1a84
                g-xTB support: enabled

 xTB| Parameter file                                             xTB1_parameters
 xTB| Basis expansion STO-NG                                                   6
 xTB| Basis expansion STO-NG for Hydrogen                                      4
 xTB| Repulsive pair potential accuracy                               0.1000E-09
 xTB| Repulsive enhancement factor                                      0.000000
 xTB| Halogen interaction potential                                            T
 xTB| Halogen interaction potential cutoff radius                         20.000
 xTB| Nonbonded interactions                                                   F
 xTB| vdW potential type:                                              DFTD3(BJ)
 xTB| D3 Dispersion: Parameter                                         dftd3.dat
 xTB| Huckel constants ks kp kd                        1.850     2.250     2.000
 xTB| Huckel constants ksp k2sh                                  2.080     2.850
 xTB| Mataga-Nishimoto exponent                                            2.000
 xTB| Repulsion potential exponent                                         1.500
 xTB| Coordination number scaling kcn(s) kcn(p) kc     0.006    -0.003    -0.005
 xTB| Electronegativity scaling                                           -0.007
 xTB| Halogen potential scaling kxr kx2                          1.300     0.440
 xTB| SCC mixer:                                                       AUTO
 xTB| tblite accuracy:                                                 1.000E+00
 xTB| tblite SCC mixer damping:                                            0.400
 xTB| tblite SCC mixer iterations:                                           250
 xTB| tblite SCC mixer memory:                                               250
 xTB| tblite SCC mixer solver:                                         GVD
 xTB| tblite SCC mixer omega0:                                         1.000E-02
 xTB| tblite SCC mixer min weight:                                     1.000E+00
 xTB| tblite SCC mixer max weight:                                     1.000E+05
 xTB| tblite SCC mixer weight factor:                                  1.000E-02




 ATOMIC KIND INFORMATION

  1. Atomic kind: O                                     Number of atoms:       1

     Orbital Basis Set                                                 O _STO-6G

       Number of orbital shell sets:                                           2
       Number of orbital shells:                                               2
       Number of primitive Cartesian functions:                               12
       Number of Cartesian basis functions:                                    4
       Number of spherical basis functions:                                    4
       Norm type:                                                              3

       Normalised Cartesian orbitals:

                        Set   Shell   Orbital            Exponent    Coefficient

                          1       1    1s                3.483595      -1.312989
                                                         2.859866       1.114839
                                                         0.740681       0.294538
                                                         0.344927       0.081388
                                                         0.261979       0.039457
                                                         0.094616       0.012369

                          2       1    2px              37.641471       1.474597
                                                         9.713089       1.794042
                                                         3.137177       1.303489
                                                         1.121381       0.633276
                                                         0.398078       0.183083
                                                         0.123048       0.019135
                          2       1    2py              37.641471       1.474597
                                                         9.713089       1.794042
                                                         3.137177       1.303489
                                                         1.121381       0.633276
                                                         0.398078       0.183083
                                                         0.123048       0.019135
                          2       1    2pz              37.641471       1.474597
                                                         9.713089       1.794042
                                                         3.137177       1.303489
                                                         1.121381       0.633276
                                                         0.398078       0.183083
                                                         0.123048       0.019135

     AE Potential information for                                         Oxygen

       Description:                                       Bare Coulomb Potential
                                                             Valence charge only

       Gaussian exponent of the core charge distribution:               3.753049
       Electronic configuration (s p d ...):                       2   4   0   0

  2. Atomic kind: H                                     Number of atoms:       2

     Orbital Basis Set                                                 H _STO-8G

       Number of orbital shell sets:                                           1
       Number of orbital shells:                                               1
       Number of primitive Cartesian functions:                                8
       Number of Cartesian basis functions:                                    1
       Number of spherical basis functions:                                    1
       Norm type:                                                              3

       Normalised Cartesian orbitals:

                        Set   Shell   Orbital            Exponent    Coefficient

                          1       1    1s              337.005012       0.038563
                                                        53.310531       0.064306
                                                        12.208253       0.118985
                                                         3.418827       0.178894
                                                         1.108790       0.225334
                                                         0.478718       0.127451
                                                         0.212137       0.089331
                                                         0.069058      -0.000405

     AE Potential information for                                       Hydrogen

       Description:                                       Bare Coulomb Potential
                                                              Full atomic charge

       Gaussian exponent of the core charge distribution:              12.500000
       Electronic configuration (s p d ...):                       1   0   0   0


 MOLECULE KIND INFORMATION


 All atoms are their own molecule, skipping detailed information


 TOTAL NUMBERS AND MAXIMUM NUMBERS

  Total number of            - Atomic kinds:                                   2
                             - Atoms:                                          3
                             - Shell sets:                                     4
                             - Shells:                                         4
                             - Primitive Cartesian functions:                 28
                             - Cartesian basis functions:                      6
                             - Spherical basis functions:                      6

  Maximum angular momentum of the orbital basis functions:                     1


 MODULE QUICKSTEP: ATOMIC COORDINATES IN ANGSTROM

   Atom Kind Element         X             Y             Z       Z(eff)     Mass
      1    1 O     8      1.831000      2.147000      2.593000   6.0000  15.9994
      2    2 H     1      2.612000      2.203000      3.071000   1.0000   1.0079
      3    2 H     1      1.096000      2.268000      3.142000   1.0000   1.0079



 SCF PARAMETERS         Density guess:                                     MOPAC
                        --------------------------------------------------------
                        max_scf:                                             300
                        max_scf_history:                                       0
                        max_diis:                                              4
                        --------------------------------------------------------
                        eps_scf:                                        1.00E-10
                        eps_scf_history:                                0.00E+00
                        eps_diis:                                       1.00E-01
                        eps_eigval:                                     1.00E-05
                        --------------------------------------------------------
                        level_shift [a.u.]:                             0.000000
                        added MOs                                         2    0
                        --------------------------------------------------------
                        Mixing method:                           DIRECT_P_MIXING
                        --------------------------------------------------------
                        No outer SCF

 PW_GRID| Information for grid number                                          1
 PW_GRID| Cutoff [a.u.]                                                      1.0
 PW_GRID| spherical cutoff:                                                   NO
 PW_GRID|   Bounds   1             -4       3                Points:           8
 PW_GRID|   Bounds   2             -4       3                Points:           8
 PW_GRID|   Bounds   3             -4       3                Points:           8
 PW_GRID| Volume element (a.u.^3)   8.060         Volume (a.u.^3)      4126.7416
 PW_GRID| Grid span                                                    FULLSPACE

 POISSON| Solver                                                        PERIODIC
 POISSON| Periodicity                                                        XYZ

 RS_GRID| Information for grid number                                          1
 RS_GRID|   Bounds   1             -4       3                Points:           8
 RS_GRID|   Bounds   2             -4       3                Points:           8
 RS_GRID|   Bounds   3             -4       3                Points:           8

 Extrapolation method: initial_guess

 Number of electrons:                                                          8
 Number of occupied orbitals:                                                  4
 Number of molecular orbitals:                                                 6

 Number of orbital functions:                                                  6
 Number of independent orbital functions:                                      6


 SCF WAVEFUNCTION OPTIMIZATION

  Step     Update method      Time    Convergence         Total energy    Change
  ------------------------------------------------------------------------------
     1 GXTB-Raw    0.10E+01    0.0     0.77249388       -76.4984292280 -7.65E+01
     2 GXTB-Simple 0.20E+00    0.0     0.06593312       -76.5140572266 -1.56E-02
     3 GXTB-Simple 0.20E+00    0.0     0.04620618       -76.5220718885 -8.01E-03
     4 GXTB-FDIIS  0.10E+01    0.0     0.10516146       -76.5305968886 -8.53E-03
     5 GXTB-FDIIS  0.10E+01    0.0     0.01047815       -76.5306825452 -8.57E-05
     6 GXTB-FDIIS  0.10E+01    0.0     0.00150369       -76.5306837293 -1.18E-06
     7 GXTB-FDIIS  0.10E+01    0.0     0.00012629       -76.5306837336 -4.26E-09
     8 GXTB-FDIIS  0.10E+01    0.0     0.00000749       -76.5306837336 -1.23E-11
     9 GXTB-FDIIS  0.10E+01    0.0     0.00000059       -76.5306837336 -1.99E-13
    10 GXTB-FDIIS  0.10E+01    0.0     0.00000015       -76.5306837336  0.00E+00
    11 GXTB-FDIIS  0.10E+01    0.0     1.8297E-09       -76.5306837336  0.00E+00
    12 GXTB-FDIIS  0.10E+01    0.0     2.7037E-10       -76.5306837336 -1.42E-14
    13 GXTB-FDIIS  0.10E+01    0.0     9.5133E-12       -76.5306837336  1.42E-14

  *** SCF run converged in    13 steps ***


  Core Hamiltonian energy:                                     -6.32476797620243
  Repulsive potential energy:                                   0.39271211809126
  Electrostatic energy:                                         0.15840596024443
  Self-consistent dispersion energy:                           -0.00004846728912
  Non-self consistent dispersion energy:                        0.00000012720118
  Correction for halogen bonding:                               0.00000000000000

  Total energy:                                               -76.53068373361373


 MULLIKEN POPULATION ANALYSIS

  # Atom   Element   Kind        Atomic population                    Net charge
       1     O          1                 6.689637                     -0.689637
       2     H          2                 0.654993                      0.345007
       3     H          2                 0.655370                      0.344630
 # Total charge                           8.000000                      0.000000


 ENERGY| Total FORCE_EVAL ( QS ) energy [hartree]            -76.530683733613728

 -------------------------------------------------------------------------------
 ----                             MULTIGRID INFO                            ----
 -------------------------------------------------------------------------------
 total grid count     :           420              cutoff [a.u.]            1.00

 PW_GRID| Information for grid number                                          2
 PW_GRID| Cutoff [a.u.]                                                      1.0
 PW_GRID| spherical cutoff:                                                   NO
 PW_GRID|   Bounds   1             -4       3                Points:           8
 PW_GRID|   Bounds   2             -4       3                Points:           8
 PW_GRID|   Bounds   3             -4       3                Points:           8
 PW_GRID| Volume element (a.u.^3)   8.060         Volume (a.u.^3)      4126.7689
 PW_GRID| Grid span                                                    FULLSPACE

 POISSON| Solver                                                        PERIODIC
 POISSON| Periodicity                                                        XYZ

 RS_GRID| Information for grid number                                          2
 RS_GRID|   Bounds   1             -4       3                Points:           8
 RS_GRID|   Bounds   2             -4       3                Points:           8
 RS_GRID|   Bounds   3             -4       3                Points:           8

 Parameters for the always stable predictor-corrector (ASPC) method:

  ASPC order: 0

  B(1) =   1.000000

 Extrapolation method: ASPC

 Number of electrons:                                                          8
 Number of occupied orbitals:                                                  4
 Number of molecular orbitals:                                                 6

 Number of orbital functions:                                                  6
 Number of independent orbital functions:                                      6


 SCF WAVEFUNCTION OPTIMIZATION

  Step     Update method      Time    Convergence         Total energy    Change
  ------------------------------------------------------------------------------
     1 GXTB-Raw    0.10E+01    0.0     0.00000489       -76.5306830601 -7.65E+01
     2 GXTB-Simple 0.20E+00    0.0     0.00000059       -76.5306830601 -8.38E-13
     3 GXTB-Simple 0.20E+00    0.0     0.00000048       -76.5306830601 -5.26E-13
     4 GXTB-FDIIS  0.10E+01    0.0     0.00000219       -76.5306830601 -1.08E-12
     5 GXTB-FDIIS  0.10E+01    0.0     0.00000010       -76.5306830601  0.00E+00
     6 GXTB-FDIIS  0.10E+01    0.0     0.00000004       -76.5306830601 -1.42E-14
     7 GXTB-FDIIS  0.10E+01    0.0     8.5767E-10       -76.5306830601  0.00E+00
     8 GXTB-FDIIS  0.10E+01    0.0     4.1118E-11       -76.5306830601  1.42E-14

  *** SCF run converged in     8 steps ***


  Core Hamiltonian energy:                                     -6.32476226034865
  Repulsive potential energy:                                   0.39270524179841
  Electrostatic energy:                                         0.15840622949767
  Self-consistent dispersion energy:                           -0.00004846763023
  Non-self consistent dispersion energy:                        0.00000012720073
  Correction for halogen bonding:                               0.00000000000000

  Total energy:                                               -76.53068306009507


 MULLIKEN POPULATION ANALYSIS

  # Atom   Element   Kind        Atomic population                    Net charge
       1     O          1                 6.689637                     -0.689637
       2     H          2                 0.654993                      0.345007
       3     H          2                 0.655370                      0.344630
 # Total charge                           8.000000                     -0.000000


 ENERGY| Total FORCE_EVAL ( QS ) energy [hartree]            -76.530683060095072

 -------------------------------------------------------------------------------
 ----                             MULTIGRID INFO                            ----
 -------------------------------------------------------------------------------
 total grid count     :           420              cutoff [a.u.]            1.00

 PW_GRID| Information for grid number                                          3
 PW_GRID| Cutoff [a.u.]                                                      1.0
 PW_GRID| spherical cutoff:                                                   NO
 PW_GRID|   Bounds   1             -4       3                Points:           8
 PW_GRID|   Bounds   2             -4       3                Points:           8
 PW_GRID|   Bounds   3             -4       3                Points:           8
 PW_GRID| Volume element (a.u.^3)   8.060         Volume (a.u.^3)      4126.7143
 PW_GRID| Grid span                                                    FULLSPACE

 POISSON| Solver                                                        PERIODIC
 POISSON| Periodicity                                                        XYZ

 RS_GRID| Information for grid number                                          3
 RS_GRID|   Bounds   1             -4       3                Points:           8
 RS_GRID|   Bounds   2             -4       3                Points:           8
 RS_GRID|   Bounds   3             -4       3                Points:           8

 Parameters for the always stable predictor-corrector (ASPC) method:

  ASPC order: 0

  B(1) =   2.000000
  B(2) =  -1.000000

 Extrapolation method: ASPC

 Number of electrons:                                                          8
 Number of occupied orbitals:                                                  4
 Number of molecular orbitals:                                                 6

 Number of orbital functions:                                                  6
 Number of independent orbital functions:                                      6


 SCF WAVEFUNCTION OPTIMIZATION

  Step     Update method      Time    Convergence         Total energy    Change
  ------------------------------------------------------------------------------
     1 GXTB-Raw    0.10E+01    0.0     0.00000978       -76.5306844071 -7.65E+01
     2 GXTB-Simple 0.20E+00    0.0     0.00000118       -76.5306844071 -3.30E-12
     3 GXTB-Simple 0.20E+00    0.0     0.00000097       -76.5306844071 -2.15E-12
     4 GXTB-FDIIS  0.10E+01    0.0     0.00000437       -76.5306844071 -4.31E-12
     5 GXTB-FDIIS  0.10E+01    0.0     0.00000020       -76.5306844071 -1.42E-14
     6 GXTB-FDIIS  0.10E+01    0.0     0.00000008       -76.5306844071  0.00E+00
     7 GXTB-FDIIS  0.10E+01    0.0     1.7154E-09       -76.5306844071  0.00E+00
     8 GXTB-FDIIS  0.10E+01    0.0     8.2223E-11       -76.5306844071  1.42E-14

  *** SCF run converged in     8 steps ***


  Core Hamiltonian energy:                                     -6.32477369206685
  Repulsive potential energy:                                   0.39271899448636
  Electrostatic energy:                                         0.15840569099714
  Self-consistent dispersion energy:                           -0.00004846694802
  Non-self consistent dispersion energy:                        0.00000012720163
  Correction for halogen bonding:                               0.00000000000000

  Total energy:                                               -76.53068440706542


 MULLIKEN POPULATION ANALYSIS

  # Atom   Element   Kind        Atomic population                    Net charge
       1     O          1                 6.689638                     -0.689638
       2     H          2                 0.654993                      0.345007
       3     H          2                 0.655369                      0.344631
 # Total charge                           8.000000                      0.000000


 ENERGY| Total FORCE_EVAL ( QS ) energy [hartree]            -76.530684407065422

 -------------------------------------------------------------------------------
 ----                             MULTIGRID INFO                            ----
 -------------------------------------------------------------------------------
 total grid count     :           420              cutoff [a.u.]            1.00

 PW_GRID| Information for grid number                                          4
 PW_GRID| Cutoff [a.u.]                                                      1.0
 PW_GRID| spherical cutoff:                                                   NO
 PW_GRID|   Bounds   1             -4       3                Points:           8
 PW_GRID|   Bounds   2             -4       3                Points:           8
 PW_GRID|   Bounds   3             -4       3                Points:           8
 PW_GRID| Volume element (a.u.^3)   8.060         Volume (a.u.^3)      4126.7416
 PW_GRID| Grid span                                                    FULLSPACE

 POISSON| Solver                                                        PERIODIC
 POISSON| Periodicity                                                        XYZ

 RS_GRID| Information for grid number                                          4
 RS_GRID|   Bounds   1             -4       3                Points:           8
 RS_GRID|   Bounds   2             -4       3                Points:           8
 RS_GRID|   Bounds   3             -4       3                Points:           8

 Parameters for the always stable predictor-corrector (ASPC) method:

  ASPC order: 1

  B(1) =   2.500000
  B(2) =  -2.000000
  B(3) =   0.500000

 Extrapolation method: ASPC

 Number of electrons:                                                          8
 Number of occupied orbitals:                                                  4
 Number of molecular orbitals:                                                 6

 Number of orbital functions:                                                  6
 Number of independent orbital functions:                                      6


 SCF WAVEFUNCTION OPTIMIZATION

  Step     Update method      Time    Convergence         Total energy    Change
  ------------------------------------------------------------------------------
     1 GXTB-Raw    0.10E+01    0.0     0.00000472       -76.5306837196 -7.65E+01
     2 GXTB-Simple 0.20E+00    0.0     0.00000057       -76.5306837196 -7.82E-13
     3 GXTB-Simple 0.20E+00    0.0     0.00000047       -76.5306837196 -4.97E-13
     4 GXTB-FDIIS  0.10E+01    0.0     0.00000213       -76.5306837196 -1.02E-12
     5 GXTB-FDIIS  0.10E+01    0.0     0.00000010       -76.5306837196  0.00E+00
     6 GXTB-FDIIS  0.10E+01    0.0     0.00000004       -76.5306837196  0.00E+00
     7 GXTB-FDIIS  0.10E+01    0.0     6.9334E-10       -76.5306837196  0.00E+00
     8 GXTB-FDIIS  0.10E+01    0.0     1.4916E-10       -76.5306837196  0.00E+00
     9 GXTB-FDIIS  0.10E+01    0.0     6.5715E-12       -76.5306837196  0.00E+00

  *** SCF run converged in     9 steps ***


  Core Hamiltonian energy:                                     -6.32476817074411
  Repulsive potential energy:                                   0.39271235684150
  Electrostatic energy:                                         0.15840594597083
  Self-consistent dispersion energy:                           -0.00004846726753
  Non-self consistent dispersion energy:                        0.00000012720135
  Correction for halogen bonding:                               0.00000000000000

  Total energy:                                               -76.53068371960322


 MULLIKEN POPULATION ANALYSIS

  # Atom   Element   Kind        Atomic population                    Net charge
       1     O          1                 6.689637                     -0.689637
       2     H          2                 0.654993                      0.345007
       3     H          2                 0.655370                      0.344630
 # Total charge                           8.000000                      0.000000


 ENERGY| Total FORCE_EVAL ( QS ) energy [hartree]            -76.530683719603218

 -------------------------------------------------------------------------------
 ----                             MULTIGRID INFO                            ----
 -------------------------------------------------------------------------------
 total grid count     :           420              cutoff [a.u.]            1.00

 PW_GRID| Information for grid number                                          5
 PW_GRID| Cutoff [a.u.]                                                      1.0
 PW_GRID| spherical cutoff:                                                   NO
 PW_GRID|   Bounds   1             -4       3                Points:           8
 PW_GRID|   Bounds   2             -4       3                Points:           8
 PW_GRID|   Bounds   3             -4       3                Points:           8
 PW_GRID| Volume element (a.u.^3)   8.060         Volume (a.u.^3)      4126.7416
 PW_GRID| Grid span                                                    FULLSPACE

 POISSON| Solver                                                        PERIODIC
 POISSON| Periodicity                                                        XYZ

 RS_GRID| Information for grid number                                          5
 RS_GRID|   Bounds   1             -4       3                Points:           8
 RS_GRID|   Bounds   2             -4       3                Points:           8
 RS_GRID|   Bounds   3             -4       3                Points:           8

 Parameters for the always stable predictor-corrector (ASPC) method:

  ASPC order: 2

  B(1) =   2.800000
  B(2) =  -2.800000
  B(3) =   1.200000
  B(4) =  -0.200000

 Extrapolation method: ASPC

 Number of electrons:                                                          8
 Number of occupied orbitals:                                                  4
 Number of molecular orbitals:                                                 6

 Number of orbital functions:                                                  6
 Number of independent orbital functions:                                      6


 SCF WAVEFUNCTION OPTIMIZATION

  Step     Update method      Time    Convergence         Total energy    Change
  ------------------------------------------------------------------------------
     1 GXTB-Raw    0.10E+01    0.0     0.00000047       -76.5306837476 -7.65E+01
     2 GXTB-Simple 0.20E+00    0.0     0.00000005       -76.5306837476 -4.26E-14
     3 GXTB-Simple 0.20E+00    0.0     0.00000004       -76.5306837476 -1.42E-14
     4 GXTB-FDIIS  0.10E+01    0.0     0.00000019       -76.5306837476 -2.84E-14
     5 GXTB-FDIIS  0.10E+01    0.0     9.5344E-09       -76.5306837476  0.00E+00
     6 GXTB-FDIIS  0.10E+01    0.0     3.6001E-09       -76.5306837476  0.00E+00
     7 GXTB-FDIIS  0.10E+01    0.0     3.2417E-10       -76.5306837476  0.00E+00
     8 GXTB-FDIIS  0.10E+01    0.0     4.8279E-11       -76.5306837476 -1.42E-14

  *** SCF run converged in     8 steps ***


  Core Hamiltonian energy:                                     -6.32476778166079
  Repulsive potential energy:                                   0.39271187934174
  Electrostatic energy:                                         0.15840597451801
  Self-consistent dispersion energy:                           -0.00004846731071
  Non-self consistent dispersion energy:                        0.00000012720100
  Correction for halogen bonding:                               0.00000000000000

  Total energy:                                               -76.53068374762368


 MULLIKEN POPULATION ANALYSIS

  # Atom   Element   Kind        Atomic population                    Net charge
       1     O          1                 6.689637                     -0.689637
       2     H          2                 0.654993                      0.345007
       3     H          2                 0.655370                      0.344630
 # Total charge                           8.000000                      0.000000


 ENERGY| Total FORCE_EVAL ( QS ) energy [hartree]            -76.530683747623684

 -------------------------------------------------------------------------------
 ----                             MULTIGRID INFO                            ----
 -------------------------------------------------------------------------------
 total grid count     :           420              cutoff [a.u.]            1.00

 PW_GRID| Information for grid number                                          6
 PW_GRID| Cutoff [a.u.]                                                      1.0
 PW_GRID| spherical cutoff:                                                   NO
 PW_GRID|   Bounds   1             -4       3                Points:           8
 PW_GRID|   Bounds   2             -4       3                Points:           8
 PW_GRID|   Bounds   3             -4       3                Points:           8
 PW_GRID| Volume element (a.u.^3)   8.060         Volume (a.u.^3)      4126.7416
 PW_GRID| Grid span                                                    FULLSPACE

 POISSON| Solver                                                        PERIODIC
 POISSON| Periodicity                                                        XYZ

 RS_GRID| Information for grid number                                          6
 RS_GRID|   Bounds   1             -4       3                Points:           8
 RS_GRID|   Bounds   2             -4       3                Points:           8
 RS_GRID|   Bounds   3             -4       3                Points:           8

 Parameters for the always stable predictor-corrector (ASPC) method:

  ASPC order: 3

  B(1) =   3.000000
  B(2) =  -3.428571
  B(3) =   1.928571
  B(4) =  -0.571429
  B(5) =   0.071429

 Extrapolation method: ASPC

 Number of electrons:                                                          8
 Number of occupied orbitals:                                                  4
 Number of molecular orbitals:                                                 6

 Number of orbital functions:                                                  6
 Number of independent orbital functions:                                      6


 SCF WAVEFUNCTION OPTIMIZATION

  Step     Update method      Time    Convergence         Total energy    Change
  ------------------------------------------------------------------------------
     1 GXTB-Raw    0.10E+01    0.0     0.00000152       -76.5306837652 -7.65E+01
     2 GXTB-Simple 0.20E+00    0.0     0.00000016       -76.5306837652 -4.12E-13
     3 GXTB-Simple 0.20E+00    0.0     0.00000014       -76.5306837652 -2.70E-13
     4 GXTB-FDIIS  0.10E+01    0.0     0.00000063       -76.5306837652 -5.68E-13
     5 GXTB-FDIIS  0.10E+01    0.0     0.00000003       -76.5306837652 -1.42E-14
     6 GXTB-FDIIS  0.10E+01    0.0     4.6402E-09       -76.5306837652  1.42E-14
     7 GXTB-FDIIS  0.10E+01    0.0     7.1823E-10       -76.5306837652  0.00E+00
     8 GXTB-FDIIS  0.10E+01    0.0     1.7254E-10       -76.5306837652 -1.42E-14
     9 GXTB-FDIIS  0.10E+01    0.0     7.2863E-13       -76.5306837652  1.42E-14

  *** SCF run converged in     9 steps ***


  Core Hamiltonian energy:                                     -6.32476805301064
  Repulsive potential energy:                                   0.39271220071495
  Electrostatic energy:                                         0.15840593989183
  Self-consistent dispersion energy:                           -0.00004846727290
  Non-self consistent dispersion energy:                        0.00000012720174
  Correction for halogen bonding:                               0.00000000000000

  Total energy:                                               -76.53068376520773


 MULLIKEN POPULATION ANALYSIS

  # Atom   Element   Kind        Atomic population                    Net charge
       1     O          1                 6.689637                     -0.689637
       2     H          2                 0.654993                      0.345007
       3     H          2                 0.655370                      0.344630
 # Total charge                           8.000000                      0.000000


 ENERGY| Total FORCE_EVAL ( QS ) energy [hartree]            -76.530683765207726

 -------------------------------------------------------------------------------
 ----                             MULTIGRID INFO                            ----
 -------------------------------------------------------------------------------
 total grid count     :           420              cutoff [a.u.]            1.00

 PW_GRID| Information for grid number                                          7
 PW_GRID| Cutoff [a.u.]                                                      1.0
 PW_GRID| spherical cutoff:                                                   NO
 PW_GRID|   Bounds   1             -4       3                Points:           8
 PW_GRID|   Bounds   2             -4       3                Points:           8
 PW_GRID|   Bounds   3             -4       3                Points:           8
 PW_GRID| Volume element (a.u.^3)   8.060         Volume (a.u.^3)      4126.7416
 PW_GRID| Grid span                                                    FULLSPACE

 POISSON| Solver                                                        PERIODIC
 POISSON| Periodicity                                                        XYZ

 RS_GRID| Information for grid number                                          7
 RS_GRID|   Bounds   1             -4       3                Points:           8
 RS_GRID|   Bounds   2             -4       3                Points:           8
 RS_GRID|   Bounds   3             -4       3                Points:           8

 Parameters for the always stable predictor-corrector (ASPC) method:

  ASPC order: 3

  B(1) =   3.000000
  B(2) =  -3.428571
  B(3) =   1.928571
  B(4) =  -0.571429
  B(5) =   0.071429

 Extrapolation method: ASPC

 Number of electrons:                                                          8
 Number of occupied orbitals:                                                  4
 Number of molecular orbitals:                                                 6

 Number of orbital functions:                                                  6
 Number of independent orbital functions:                                      6


 SCF WAVEFUNCTION OPTIMIZATION

  Step     Update method      Time    Convergence         Total energy    Change
  ------------------------------------------------------------------------------
     1 GXTB-Raw    0.10E+01    0.0     0.00000267       -76.5306837020 -7.65E+01
     2 GXTB-Simple 0.20E+00    0.0     0.00000030       -76.5306837020 -1.24E-12
     3 GXTB-Simple 0.20E+00    0.0     0.00000025       -76.5306837020 -8.38E-13
     4 GXTB-FDIIS  0.10E+01    0.0     0.00000114       -76.5306837020 -1.76E-12
     5 GXTB-FDIIS  0.10E+01    0.0     0.00000005       -76.5306837020  0.00E+00
     6 GXTB-FDIIS  0.10E+01    0.0     3.7158E-09       -76.5306837020 -1.42E-14
     7 GXTB-FDIIS  0.10E+01    0.0     8.3674E-10       -76.5306837020  1.42E-14
     8 GXTB-FDIIS  0.10E+01    0.0     2.7599E-10       -76.5306837020 -1.42E-14
     9 GXTB-FDIIS  0.10E+01    0.0     9.4910E-13       -76.5306837020  0.00E+00

  *** SCF run converged in     9 steps ***


  Core Hamiltonian energy:                                     -6.32476789939811
  Repulsive potential energy:                                   0.39271203549993
  Electrostatic energy:                                         0.15840598059910
  Self-consistent dispersion energy:                           -0.00004846730534
  Non-self consistent dispersion energy:                        0.00000012720061
  Correction for halogen bonding:                               0.00000000000000

  Total energy:                                               -76.53068370199433


 MULLIKEN POPULATION ANALYSIS

  # Atom   Element   Kind        Atomic population                    Net charge
       1     O          1                 6.689637                     -0.689637
       2     H          2                 0.654993                      0.345007
       3     H          2                 0.655370                      0.344630
 # Total charge                           8.000000                      0.000000


 ENERGY| Total FORCE_EVAL ( QS ) energy [hartree]            -76.530683701994334

 -------------------------------------------------------------------------------
 ----                             MULTIGRID INFO                            ----
 -------------------------------------------------------------------------------
 total grid count     :           420              cutoff [a.u.]            1.00

 PW_GRID| Information for grid number                                          8
 PW_GRID| Cutoff [a.u.]                                                      1.0
 PW_GRID| spherical cutoff:                                                   NO
 PW_GRID|   Bounds   1             -4       3                Points:           8
 PW_GRID|   Bounds   2             -4       3                Points:           8
 PW_GRID|   Bounds   3             -4       3                Points:           8
 PW_GRID| Volume element (a.u.^3)   8.060         Volume (a.u.^3)      4126.7406
 PW_GRID| Grid span                                                    FULLSPACE

 POISSON| Solver                                                        PERIODIC
 POISSON| Periodicity                                                        XYZ

 RS_GRID| Information for grid number                                          8
 RS_GRID|   Bounds   1             -4       3                Points:           8
 RS_GRID|   Bounds   2             -4       3                Points:           8
 RS_GRID|   Bounds   3             -4       3                Points:           8

 Parameters for the always stable predictor-corrector (ASPC) method:

  ASPC order: 3

  B(1) =   3.000000
  B(2) =  -3.428571
  B(3) =   1.928571
  B(4) =  -0.571429
  B(5) =   0.071429

 Extrapolation method: ASPC

 Number of electrons:                                                          8
 Number of occupied orbitals:                                                  4
 Number of molecular orbitals:                                                 6

 Number of orbital functions:                                                  6
 Number of independent orbital functions:                                      6


 SCF WAVEFUNCTION OPTIMIZATION

  Step     Update method      Time    Convergence         Total energy    Change
  ------------------------------------------------------------------------------
     1 GXTB-Raw    0.10E+01    0.0     0.00000152       -76.5306837192 -7.65E+01
     2 GXTB-Simple 0.20E+00    0.0     0.00000059       -76.5306837192 -1.56E-12
     3 GXTB-Simple 0.20E+00    0.0     0.00000050       -76.5306837192 -1.11E-12
     4 GXTB-FDIIS  0.10E+01    0.0     0.00000257       -76.5306837192 -2.69E-12
     5 GXTB-FDIIS  0.10E+01    0.0     0.00000019       -76.5306837192 -1.42E-14
     6 GXTB-FDIIS  0.10E+01    0.0     7.6620E-09       -76.5306837192  0.00E+00
     7 GXTB-FDIIS  0.10E+01    0.0     2.0952E-09       -76.5306837192  0.00E+00
     8 GXTB-FDIIS  0.10E+01    0.0     3.7580E-10       -76.5306837192  0.00E+00
     9 GXTB-FDIIS  0.10E+01    0.0     5.9610E-12       -76.5306837192  1.42E-14

  *** SCF run converged in     9 steps ***


  Core Hamiltonian energy:                                     -6.32476819869817
  Repulsive potential energy:                                   0.39271238757846
  Electrostatic energy:                                         0.15840594443853
  Self-consistent dispersion energy:                           -0.00004846727022
  Non-self consistent dispersion energy:                        0.00000012720151
  Correction for halogen bonding:                               0.00000000000000

  Total energy:                                               -76.53068371920764


 MULLIKEN POPULATION ANALYSIS

  # Atom   Element   Kind        Atomic population                    Net charge
       1     O          1                 6.689637                     -0.689637
       2     H          2                 0.654993                      0.345007
       3     H          2                 0.655370                      0.344630
 # Total charge                           8.000000                      0.000000


 ENERGY| Total FORCE_EVAL ( QS ) energy [hartree]            -76.530683719207644

 -------------------------------------------------------------------------------
 ----                             MULTIGRID INFO                            ----
 -------------------------------------------------------------------------------
 total grid count     :           420              cutoff [a.u.]            1.00

 PW_GRID| Information for grid number                                          9
 PW_GRID| Cutoff [a.u.]                                                      1.0
 PW_GRID| spherical cutoff:                                                   NO
 PW_GRID|   Bounds   1             -4       3                Points:           8
 PW_GRID|   Bounds   2             -4       3                Points:           8
 PW_GRID|   Bounds   3             -4       3                Points:           8
 PW_GRID| Volume element (a.u.^3)   8.060         Volume (a.u.^3)      4126.7425
 PW_GRID| Grid span                                                    FULLSPACE

 POISSON| Solver                                                        PERIODIC
 POISSON| Periodicity                                                        XYZ

 RS_GRID| Information for grid number                                          9
 RS_GRID|   Bounds   1             -4       3                Points:           8
 RS_GRID|   Bounds   2             -4       3                Points:           8
 RS_GRID|   Bounds   3             -4       3                Points:           8

 Parameters for the always stable predictor-corrector (ASPC) method:

  ASPC order: 3

  B(1) =   3.000000
  B(2) =  -3.428571
  B(3) =   1.928571
  B(4) =  -0.571429
  B(5) =   0.071429

 Extrapolation method: ASPC

 Number of electrons:                                                          8
 Number of occupied orbitals:                                                  4
 Number of molecular orbitals:                                                 6

 Number of orbital functions:                                                  6
 Number of independent orbital functions:                                      6


 SCF WAVEFUNCTION OPTIMIZATION

  Step     Update method      Time    Convergence         Total energy    Change
  ------------------------------------------------------------------------------
     1 GXTB-Raw    0.10E+01    0.0     0.00000165       -76.5306837480 -7.65E+01
     2 GXTB-Simple 0.20E+00    0.0     0.00000120       -76.5306837480 -5.07E-12
     3 GXTB-Simple 0.20E+00    0.0     0.00000101       -76.5306837480 -3.62E-12
     4 GXTB-FDIIS  0.10E+01    0.0     0.00000529       -76.5306837480 -9.12E-12
     5 GXTB-FDIIS  0.10E+01    0.0     0.00000030       -76.5306837480 -2.84E-14
     6 GXTB-FDIIS  0.10E+01    0.0     0.00000001       -76.5306837480  0.00E+00
     7 GXTB-FDIIS  0.10E+01    0.0     1.1824E-09       -76.5306837480  0.00E+00
     8 GXTB-FDIIS  0.10E+01    0.0     1.9853E-10       -76.5306837480 -1.42E-14
     9 GXTB-FDIIS  0.10E+01    0.0     9.8926E-12       -76.5306837480  0.00E+00

  *** SCF run converged in     9 steps ***


  Core Hamiltonian energy:                                     -6.32476775366960
  Repulsive potential energy:                                   0.39271184856055
  Electrostatic energy:                                         0.15840597605219
  Self-consistent dispersion energy:                           -0.00004846730803
  Non-self consistent dispersion energy:                        0.00000012720084
  Correction for halogen bonding:                               0.00000000000000

  Total energy:                                               -76.53068374801421


 MULLIKEN POPULATION ANALYSIS

  # Atom   Element   Kind        Atomic population                    Net charge
       1     O          1                 6.689637                     -0.689637
       2     H          2                 0.654993                      0.345007
       3     H          2                 0.655370                      0.344630
 # Total charge                           8.000000                      0.000000


 ENERGY| Total FORCE_EVAL ( QS ) energy [hartree]            -76.530683748014212

 -------------------------------------------------------------------------------
 ----                             MULTIGRID INFO                            ----
 -------------------------------------------------------------------------------
 total grid count     :           420              cutoff [a.u.]            1.00

 PW_GRID| Information for grid number                                         10
 PW_GRID| Cutoff [a.u.]                                                      1.0
 PW_GRID| spherical cutoff:                                                   NO
 PW_GRID|   Bounds   1             -4       3                Points:           8
 PW_GRID|   Bounds   2             -4       3                Points:           8
 PW_GRID|   Bounds   3             -4       3                Points:           8
 PW_GRID| Volume element (a.u.^3)   8.060         Volume (a.u.^3)      4126.7676
 PW_GRID| Grid span                                                    FULLSPACE

 POISSON| Solver                                                        PERIODIC
 POISSON| Periodicity                                                        XYZ

 RS_GRID| Information for grid number                                         10
 RS_GRID|   Bounds   1             -4       3                Points:           8
 RS_GRID|   Bounds   2             -4       3                Points:           8
 RS_GRID|   Bounds   3             -4       3                Points:           8

 Parameters for the always stable predictor-corrector (ASPC) method:

  ASPC order: 3

  B(1) =   3.000000
  B(2) =  -3.428571
  B(3) =   1.928571
  B(4) =  -0.571429
  B(5) =   0.071429

 Extrapolation method: ASPC

 Number of electrons:                                                          8
 Number of occupied orbitals:                                                  4
 Number of molecular orbitals:                                                 6

 Number of orbital functions:                                                  6
 Number of independent orbital functions:                                      6


 SCF WAVEFUNCTION OPTIMIZATION

  Step     Update method      Time    Convergence         Total energy    Change
  ------------------------------------------------------------------------------
     1 GXTB-Raw    0.10E+01    0.0     0.00000081       -76.5306837405 -7.65E+01
     2 GXTB-Simple 0.20E+00    0.0     0.00000058       -76.5306837405 -1.19E-12
     3 GXTB-Simple 0.20E+00    0.0     0.00000049       -76.5306837405 -8.38E-13
     4 GXTB-FDIIS  0.10E+01    0.0     0.00000255       -76.5306837405 -2.13E-12
     5 GXTB-FDIIS  0.10E+01    0.0     0.00000015       -76.5306837405  0.00E+00
     6 GXTB-FDIIS  0.10E+01    0.0     4.9404E-09       -76.5306837405  0.00E+00
     7 GXTB-FDIIS  0.10E+01    0.0     5.9966E-10       -76.5306837405 -1.42E-14
     8 GXTB-FDIIS  0.10E+01    0.0     1.1619E-10       -76.5306837405  0.00E+00
     9 GXTB-FDIIS  0.10E+01    0.0     3.9137E-12       -76.5306837405  0.00E+00

  *** SCF run converged in     9 steps ***


  Core Hamiltonian energy:                                     -6.32476790496932
  Repulsive potential energy:                                   0.39271204279772
  Electrostatic energy:                                         0.15840596056921
  Self-consistent dispersion energy:                           -0.00004846715374
  Non-self consistent dispersion energy:                        0.00000012719715
  Correction for halogen bonding:                               0.00000000000000

  Total energy:                                               -76.53068374052636


 MULLIKEN POPULATION ANALYSIS

  # Atom   Element   Kind        Atomic population                    Net charge
       1     O          1                 6.689637                     -0.689637
       2     H          2                 0.654993                      0.345007
       3     H          2                 0.655370                      0.344630
 # Total charge                           8.000000                     -0.000000


 ENERGY| Total FORCE_EVAL ( QS ) energy [hartree]            -76.530683740526356

 -------------------------------------------------------------------------------
 ----                             MULTIGRID INFO                            ----
 -------------------------------------------------------------------------------
 total grid count     :           420              cutoff [a.u.]            1.00

 PW_GRID| Information for grid number                                         11
 PW_GRID| Cutoff [a.u.]                                                      1.0
 PW_GRID| spherical cutoff:                                                   NO
 PW_GRID|   Bounds   1             -4       3                Points:           8
 PW_GRID|   Bounds   2             -4       3                Points:           8
 PW_GRID|   Bounds   3             -4       3                Points:           8
 PW_GRID| Volume element (a.u.^3)   8.060         Volume (a.u.^3)      4126.7156
 PW_GRID| Grid span                                                    FULLSPACE

 POISSON| Solver                                                        PERIODIC
 POISSON| Periodicity                                                        XYZ

 RS_GRID| Information for grid number                                         11
 RS_GRID|   Bounds   1             -4       3                Points:           8
 RS_GRID|   Bounds   2             -4       3                Points:           8
 RS_GRID|   Bounds   3             -4       3                Points:           8

 Parameters for the always stable predictor-corrector (ASPC) method:

  ASPC order: 3

  B(1) =   3.000000
  B(2) =  -3.428571
  B(3) =   1.928571
  B(4) =  -0.571429
  B(5) =   0.071429

 Extrapolation method: ASPC

 Number of electrons:                                                          8
 Number of occupied orbitals:                                                  4
 Number of molecular orbitals:                                                 6

 Number of orbital functions:                                                  6
 Number of independent orbital functions:                                      6


 SCF WAVEFUNCTION OPTIMIZATION

  Step     Update method      Time    Convergence         Total energy    Change
  ------------------------------------------------------------------------------
     1 GXTB-Raw    0.10E+01    0.0     0.00000021       -76.5306837267 -7.65E+01
     2 GXTB-Simple 0.20E+00    0.0     0.00000013       -76.5306837267 -4.26E-14
     3 GXTB-Simple 0.20E+00    0.0     0.00000011       -76.5306837267 -2.84E-14
     4 GXTB-FDIIS  0.10E+01    0.0     0.00000055       -76.5306837267 -7.11E-14
     5 GXTB-FDIIS  0.10E+01    0.0     0.00000002       -76.5306837267  0.00E+00
     6 GXTB-FDIIS  0.10E+01    0.0     2.0412E-09       -76.5306837267  0.00E+00
     7 GXTB-FDIIS  0.10E+01    0.0     2.4839E-10       -76.5306837267  0.00E+00
     8 GXTB-FDIIS  0.10E+01    0.0     6.4878E-11       -76.5306837267  0.00E+00

  *** SCF run converged in     8 steps ***


  Core Hamiltonian energy:                                     -6.32476804743521
  Repulsive potential energy:                                   0.39271219338445
  Electrostatic energy:                                         0.15840595991986
  Self-consistent dispersion energy:                           -0.00004846742450
  Non-self consistent dispersion energy:                        0.00000012720520
  Correction for halogen bonding:                               0.00000000000000

  Total energy:                                               -76.53068372670111


 MULLIKEN POPULATION ANALYSIS

  # Atom   Element   Kind        Atomic population                    Net charge
       1     O          1                 6.689637                     -0.689637
       2     H          2                 0.654993                      0.345007
       3     H          2                 0.655370                      0.344630
 # Total charge                           8.000000                      0.000000


 ENERGY| Total FORCE_EVAL ( QS ) energy [hartree]            -76.530683726701113

 -------------------------------------------------------------------------------
 ----                             MULTIGRID INFO                            ----
 -------------------------------------------------------------------------------
 total grid count     :           420              cutoff [a.u.]            1.00

 PW_GRID| Information for grid number                                         12
 PW_GRID| Cutoff [a.u.]                                                      1.0
 PW_GRID| spherical cutoff:                                                   NO
 PW_GRID|   Bounds   1             -4       3                Points:           8
 PW_GRID|   Bounds   2             -4       3                Points:           8
 PW_GRID|   Bounds   3             -4       3                Points:           8
 PW_GRID| Volume element (a.u.^3)   8.060         Volume (a.u.^3)      4126.7416
 PW_GRID| Grid span                                                    FULLSPACE

 POISSON| Solver                                                        PERIODIC
 POISSON| Periodicity                                                        XYZ

 RS_GRID| Information for grid number                                         12
 RS_GRID|   Bounds   1             -4       3                Points:           8
 RS_GRID|   Bounds   2             -4       3                Points:           8
 RS_GRID|   Bounds   3             -4       3                Points:           8

 Parameters for the always stable predictor-corrector (ASPC) method:

  ASPC order: 3

  B(1) =   3.000000
  B(2) =  -3.428571
  B(3) =   1.928571
  B(4) =  -0.571429
  B(5) =   0.071429

 Extrapolation method: ASPC

 Number of electrons:                                                          8
 Number of occupied orbitals:                                                  4
 Number of molecular orbitals:                                                 6

 Number of orbital functions:                                                  6
 Number of independent orbital functions:                                      6


 SCF WAVEFUNCTION OPTIMIZATION

  Step     Update method      Time    Convergence         Total energy    Change
  ------------------------------------------------------------------------------
     1 GXTB-Raw    0.10E+01    0.0     0.00000074       -76.5306837742 -7.65E+01
     2 GXTB-Simple 0.20E+00    0.0     0.00000040       -76.5306837742 -5.97E-13
     3 GXTB-Simple 0.20E+00    0.0     0.00000033       -76.5306837742 -3.98E-13
     4 GXTB-FDIIS  0.10E+01    0.0     0.00000169       -76.5306837742 -9.81E-13
     5 GXTB-FDIIS  0.10E+01    0.0     0.00000006       -76.5306837742 -1.42E-14
     6 GXTB-FDIIS  0.10E+01    0.0     8.8447E-09       -76.5306837742  0.00E+00
     7 GXTB-FDIIS  0.10E+01    0.0     3.0241E-10       -76.5306837742  0.00E+00
     8 GXTB-FDIIS  0.10E+01    0.0     1.0268E-10       -76.5306837742  1.42E-14
     9 GXTB-FDIIS  0.10E+01    0.0     3.3173E-12       -76.5306837742 -1.42E-14

  *** SCF run converged in     9 steps ***


  Core Hamiltonian energy:                                     -6.32476750683442
  Repulsive potential energy:                                   0.39271164337554
  Electrostatic energy:                                         0.15840595183019
  Self-consistent dispersion energy:                           -0.00004846730904
  Non-self consistent dispersion energy:                        0.00000012720230
  Correction for halogen bonding:                               0.00000000000000

  Total energy:                                               -76.53068377416000


 MULLIKEN POPULATION ANALYSIS

  # Atom   Element   Kind        Atomic population                    Net charge
       1     O          1                 6.689637                     -0.689637
       2     H          2                 0.654993                      0.345007
       3     H          2                 0.655370                      0.344630
 # Total charge                           8.000000                      0.000000


 ENERGY| Total FORCE_EVAL ( QS ) energy [hartree]            -76.530683774159996

 -------------------------------------------------------------------------------
 ----                             MULTIGRID INFO                            ----
 -------------------------------------------------------------------------------
 total grid count     :           420              cutoff [a.u.]            1.00

 PW_GRID| Information for grid number                                         13
 PW_GRID| Cutoff [a.u.]                                                      1.0
 PW_GRID| spherical cutoff:                                                   NO
 PW_GRID|   Bounds   1             -4       3                Points:           8
 PW_GRID|   Bounds   2             -4       3                Points:           8
 PW_GRID|   Bounds   3             -4       3                Points:           8
 PW_GRID| Volume element (a.u.^3)   8.060         Volume (a.u.^3)      4126.7416
 PW_GRID| Grid span                                                    FULLSPACE

 POISSON| Solver                                                        PERIODIC
 POISSON| Periodicity                                                        XYZ

 RS_GRID| Information for grid number                                         13
 RS_GRID|   Bounds   1             -4       3                Points:           8
 RS_GRID|   Bounds   2             -4       3                Points:           8
 RS_GRID|   Bounds   3             -4       3                Points:           8

 Parameters for the always stable predictor-corrector (ASPC) method:

  ASPC order: 3

  B(1) =   3.000000
  B(2) =  -3.428571
  B(3) =   1.928571
  B(4) =  -0.571429
  B(5) =   0.071429

 Extrapolation method: ASPC

 Number of electrons:                                                          8
 Number of occupied orbitals:                                                  4
 Number of molecular orbitals:                                                 6

 Number of orbital functions:                                                  6
 Number of independent orbital functions:                                      6


 SCF WAVEFUNCTION OPTIMIZATION

  Step     Update method      Time    Convergence         Total energy    Change
  ------------------------------------------------------------------------------
     1 GXTB-Raw    0.10E+01    0.0     0.00000129       -76.5306836931 -7.65E+01
     2 GXTB-Simple 0.20E+00    0.0     0.00000069       -76.5306836931 -1.80E-12
     3 GXTB-Simple 0.20E+00    0.0     0.00000058       -76.5306836931 -1.25E-12
     4 GXTB-FDIIS  0.10E+01    0.0     0.00000293       -76.5306836931 -3.03E-12
     5 GXTB-FDIIS  0.10E+01    0.0     0.00000011       -76.5306836931  0.00E+00
     6 GXTB-FDIIS  0.10E+01    0.0     0.00000002       -76.5306836931  1.42E-14
     7 GXTB-FDIIS  0.10E+01    0.0     3.5377E-10       -76.5306836931  0.00E+00
     8 GXTB-FDIIS  0.10E+01    0.0     1.2919E-10       -76.5306836931 -1.42E-14
     9 GXTB-FDIIS  0.10E+01    0.0     5.9266E-12       -76.5306836931  1.42E-14

  *** SCF run converged in     9 steps ***


  Core Hamiltonian energy:                                     -6.32476844555517
  Repulsive potential energy:                                   0.39271259279201
  Electrostatic energy:                                         0.15840596865842
  Self-consistent dispersion energy:                           -0.00004846726920
  Non-self consistent dispersion energy:                        0.00000012720006
  Correction for halogen bonding:                               0.00000000000000

  Total energy:                                               -76.53068369306834


 MULLIKEN POPULATION ANALYSIS

  # Atom   Element   Kind        Atomic population                    Net charge
       1     O          1                 6.689637                     -0.689637
       2     H          2                 0.654993                      0.345007
       3     H          2                 0.655370                      0.344630
 # Total charge                           8.000000                      0.000000


 ENERGY| Total FORCE_EVAL ( QS ) energy [hartree]            -76.530683693068340

 -------------------------------------------------------------------------------
 ----                             MULTIGRID INFO                            ----
 -------------------------------------------------------------------------------
 total grid count     :           420              cutoff [a.u.]            1.00

 PW_GRID| Information for grid number                                         14
 PW_GRID| Cutoff [a.u.]                                                      1.0
 PW_GRID| spherical cutoff:                                                   NO
 PW_GRID|   Bounds   1             -4       3                Points:           8
 PW_GRID|   Bounds   2             -4       3                Points:           8
 PW_GRID|   Bounds   3             -4       3                Points:           8
 PW_GRID| Volume element (a.u.^3)   8.060         Volume (a.u.^3)      4126.7410
 PW_GRID| Grid span                                                    FULLSPACE

 POISSON| Solver                                                        PERIODIC
 POISSON| Periodicity                                                        XYZ

 RS_GRID| Information for grid number                                         14
 RS_GRID|   Bounds   1             -4       3                Points:           8
 RS_GRID|   Bounds   2             -4       3                Points:           8
 RS_GRID|   Bounds   3             -4       3                Points:           8

 Parameters for the always stable predictor-corrector (ASPC) method:

  ASPC order: 3

  B(1) =   3.000000
  B(2) =  -3.428571
  B(3) =   1.928571
  B(4) =  -0.571429
  B(5) =   0.071429

 Extrapolation method: ASPC

 Number of electrons:                                                          8
 Number of occupied orbitals:                                                  4
 Number of molecular orbitals:                                                 6

 Number of orbital functions:                                                  6
 Number of independent orbital functions:                                      6


 SCF WAVEFUNCTION OPTIMIZATION

  Step     Update method      Time    Convergence         Total energy    Change
  ------------------------------------------------------------------------------
     1 GXTB-Raw    0.10E+01    0.0     0.00000121       -76.5306837625 -7.65E+01
     2 GXTB-Simple 0.20E+00    0.0     0.00000043       -76.5306837625 -1.45E-12
     3 GXTB-Simple 0.20E+00    0.0     0.00000035       -76.5306837625 -9.95E-13
     4 GXTB-FDIIS  0.10E+01    0.0     0.00000159       -76.5306837625 -2.33E-12
     5 GXTB-FDIIS  0.10E+01    0.0     0.00000009       -76.5306837625  0.00E+00
     6 GXTB-FDIIS  0.10E+01    0.0     5.3547E-09       -76.5306837625  0.00E+00
     7 GXTB-FDIIS  0.10E+01    0.0     1.2520E-09       -76.5306837625  0.00E+00
     8 GXTB-FDIIS  0.10E+01    0.0     3.2322E-10       -76.5306837625  1.42E-14
     9 GXTB-FDIIS  0.10E+01    0.0     1.8726E-11       -76.5306837625 -1.42E-14

  *** SCF run converged in     9 steps ***


  Core Hamiltonian energy:                                     -6.32476814522305
  Repulsive potential energy:                                   0.39271229433174
  Electrostatic energy:                                         0.15840593878435
  Self-consistent dispersion energy:                           -0.00004846726919
  Non-self consistent dispersion energy:                        0.00000012720165
  Correction for halogen bonding:                               0.00000000000000

  Total energy:                                               -76.53068376250931


 MULLIKEN POPULATION ANALYSIS

  # Atom   Element   Kind        Atomic population                    Net charge
       1     O          1                 6.689637                     -0.689637
       2     H          2                 0.654993                      0.345007
       3     H          2                 0.655370                      0.344630
 # Total charge                           8.000000                      0.000000


 ENERGY| Total FORCE_EVAL ( QS ) energy [hartree]            -76.530683762509312

 -------------------------------------------------------------------------------
 ----                             MULTIGRID INFO                            ----
 -------------------------------------------------------------------------------
 total grid count     :           420              cutoff [a.u.]            1.00

 PW_GRID| Information for grid number                                         15
 PW_GRID| Cutoff [a.u.]                                                      1.0
 PW_GRID| spherical cutoff:                                                   NO
 PW_GRID|   Bounds   1             -4       3                Points:           8
 PW_GRID|   Bounds   2             -4       3                Points:           8
 PW_GRID|   Bounds   3             -4       3                Points:           8
 PW_GRID| Volume element (a.u.^3)   8.060         Volume (a.u.^3)      4126.7421
 PW_GRID| Grid span                                                    FULLSPACE

 POISSON| Solver                                                        PERIODIC
 POISSON| Periodicity                                                        XYZ

 RS_GRID| Information for grid number                                         15
 RS_GRID|   Bounds   1             -4       3                Points:           8
 RS_GRID|   Bounds   2             -4       3                Points:           8
 RS_GRID|   Bounds   3             -4       3                Points:           8

 Parameters for the always stable predictor-corrector (ASPC) method:

  ASPC order: 3

  B(1) =   3.000000
  B(2) =  -3.428571
  B(3) =   1.928571
  B(4) =  -0.571429
  B(5) =   0.071429

 Extrapolation method: ASPC

 Number of electrons:                                                          8
[...]
 Number of molecular orbitals:                                                 6

 Number of orbital functions:                                                  6
 Number of independent orbital functions:                                      6


 SCF WAVEFUNCTION OPTIMIZATION

  Step     Update method      Time    Convergence         Total energy    Change
  ------------------------------------------------------------------------------
     1 GXTB-Raw    0.10E+01    0.0     0.00001841       -76.5306857255 -7.65E+01
     2 GXTB-Simple 0.20E+00    0.0     0.00000500       -76.5306857257 -1.26E-10
     3 GXTB-Simple 0.20E+00    0.0     0.00000423       -76.5306857257 -8.72E-11
     4 GXTB-FDIIS  0.10E+01    0.0     0.00002116       -76.5306857259 -2.03E-10
     5 GXTB-FDIIS  0.10E+01    0.0     0.00000126       -76.5306857259 -9.66E-13
     6 GXTB-FDIIS  0.10E+01    0.0     0.00000041       -76.5306857259 -8.53E-14
     7 GXTB-FDIIS  0.10E+01    0.0     0.00000002       -76.5306857259 -1.42E-14
     8 GXTB-FDIIS  0.10E+01    0.0     5.4269E-09       -76.5306857259  0.00E+00
     9 GXTB-FDIIS  0.10E+01    0.0     1.6420E-10       -76.5306857259  1.42E-14
    10 GXTB-FDIIS  0.10E+01    0.0     1.0805E-12       -76.5306857259  0.00E+00

  *** SCF run converged in    10 steps ***


  Core Hamiltonian energy:                                     -6.32474307728124
  Repulsive potential energy:                                   0.39268693956452
  Electrostatic energy:                                         0.15840558620652
  Self-consistent dispersion energy:                           -0.00004846846394
  Non-self consistent dispersion energy:                        0.00000012726320
  Correction for halogen bonding:                               0.00000000000000

  Total energy:                                               -76.53068572594384


 MULLIKEN POPULATION ANALYSIS

  # Atom   Element   Kind        Atomic population                    Net charge
       1     O          1                 6.689631                     -0.689631
       2     H          2                 0.654996                      0.345004
       3     H          2                 0.655373                      0.344627
 # Total charge                           8.000000                     -0.000000


 ENERGY| Total FORCE_EVAL ( QS ) energy [hartree]            -76.530685725943840


 MODULE DEBUG: ATOMIC COORDINATES IN ANGSTROM

   Atom Kind Element         X             Y             Z       Z(eff)     Mass
      1    1 O     8      1.831000      2.147000      2.593000   6.0000  15.9994
      2    2 H     1      2.612000      2.203000      3.071000   1.0000   1.0079
      3    2 H     1      1.096000      2.268000      3.141947   1.0000   1.0079


 Parameters for the always stable predictor-corrector (ASPC) method:

  ASPC order: 3

  B(1) =   3.000000
  B(2) =  -3.428571
  B(3) =   1.928571
  B(4) =  -0.571429
  B(5) =   0.071429

 Extrapolation method: ASPC

 Number of electrons:                                                          8
 Number of occupied orbitals:                                                  4
 Number of molecular orbitals:                                                 6

 Number of orbital functions:                                                  6
 Number of independent orbital functions:                                      6


 SCF WAVEFUNCTION OPTIMIZATION

  Step     Update method      Time    Convergence         Total energy    Change
  ------------------------------------------------------------------------------
     1 GXTB-Raw    0.10E+01    0.0     0.00002992       -76.5306817384 -7.65E+01
     2 GXTB-Simple 0.20E+00    0.0     0.00000742       -76.5306817387 -2.36E-10
     3 GXTB-Simple 0.20E+00    0.0     0.00000617       -76.5306817388 -1.62E-10
     4 GXTB-FDIIS  0.10E+01    0.0     0.00002906       -76.5306817392 -3.67E-10
     5 GXTB-FDIIS  0.10E+01    0.0     0.00000163       -76.5306817392 -1.68E-12
     6 GXTB-FDIIS  0.10E+01    0.0     0.00000071       -76.5306817392 -1.99E-13
     7 GXTB-FDIIS  0.10E+01    0.0     0.00000003       -76.5306817392  1.42E-14
     8 GXTB-FDIIS  0.10E+01    0.0     2.8867E-09       -76.5306817392 -1.42E-14
     9 GXTB-FDIIS  0.10E+01    0.0     2.5327E-10       -76.5306817392  0.00E+00
    10 GXTB-FDIIS  0.10E+01    0.0     8.6109E-13       -76.5306817392  1.42E-14

  *** SCF run converged in    10 steps ***


  Core Hamiltonian energy:                                     -6.32479287466030
  Repulsive potential energy:                                   0.39273729807403
  Electrostatic energy:                                         0.15840633460669
  Self-consistent dispersion energy:                           -0.00004846611440
  Non-self consistent dispersion energy:                        0.00000012713915
  Correction for halogen bonding:                               0.00000000000000

  Total energy:                                               -76.53068173918150


 MULLIKEN POPULATION ANALYSIS

  # Atom   Element   Kind        Atomic population                    Net charge
       1     O          1                 6.689644                     -0.689644
       2     H          2                 0.654990                      0.345010
       3     H          2                 0.655366                      0.344634
 # Total charge                           8.000000                      0.000000


 ENERGY| Total FORCE_EVAL ( QS ) energy [hartree]            -76.530681739181503

 DEBUG| Atom    E(z + 0.0001)    E(z - 0.0001)     f(numerical)    f(analytical)
 DEBUG|    3     -76.53068573     -76.53068174       0.01993381       0.01993381

 DEBUG| Atom  Coordinate   f(numerical)   f(analytical)   Difference   Error [%]
 DEBUG|    3      x         -0.02451448     -0.02451448   0.00000000        0.00
 DEBUG|    3      y          0.00434154      0.00434154   0.00000000       -0.00
 DEBUG|    3      z          0.01993381      0.01993381  -0.00000000        0.00

 DEBUG|======================== BEGIN OF SUMMARY ===============================
 DEBUG| Atom  Coordinate   f(numerical)   f(analytical)   Difference   Error [%]
 DEBUG|    1      x         -0.00966614     -0.00966614   0.00000000        0.00
 DEBUG|    1      y         -0.00706996     -0.00706996  -0.00000000       -0.00
 DEBUG|    1      z         -0.04235275     -0.04235275   0.00000000        0.00
 DEBUG|    2      x          0.03418062      0.03418062  -0.00000000        0.00
 DEBUG|    2      y          0.00272842      0.00272842   0.00000000       -0.00
 DEBUG|    2      z          0.02241894      0.02241894   0.00000000       -0.00
 DEBUG|    3      x         -0.02451448     -0.02451448   0.00000000        0.00
 DEBUG|    3      y          0.00434154      0.00434154   0.00000000       -0.00
 DEBUG|    3      z          0.01993381      0.01993381  -0.00000000        0.00
 DEBUG| Sum of differences:                               0.00000001        0.00
 DEBUG|======================== END OF SUMMARY =================================

 -------------------------------------------------------------------------------
 -                                                                             -
 -                                DBCSR STATISTICS                             -
 -                                                                             -
 -------------------------------------------------------------------------------
 COUNTER                                    TOTAL       BLAS       SMM       ACC
 flops     1 x     6 x     1                 6816     100.0%      0.0%      0.0%     
 flops     4 x     6 x     1                13632     100.0%      0.0%      0.0%     
 flops     1 x     6 x     4                13632     100.0%      0.0%      0.0%     
 flops     1 x     1 x     6                13896     100.0%      0.0%      0.0%     
 flops     4 x     1 x     6                18528     100.0%      0.0%      0.0%     
 flops     1 x     4 x     6                18528     100.0%      0.0%      0.0%     
 flops     4 x     6 x     4                27264     100.0%      0.0%      0.0%     
 flops     4 x     4 x     6                74112     100.0%      0.0%      0.0%     
 flops inhomo. stacks                           0       0.0%      0.0%      0.0%
 flops total                       186.408000E+03     100.0%      0.0%      0.0%
 flops max/rank                    186.408000E+03     100.0%      0.0%      0.0%
 matmuls inhomo. stacks                         0       0.0%      0.0%      0.0%
 matmuls total                               3594     100.0%      0.0%      0.0%
 number of processed stacks                  2112     100.0%      0.0%      0.0%
 average stack size                                     1.7       0.0       0.0
 marketing flops                   172.512000E+03
 -------------------------------------------------------------------------------
 # multiplications                            528
 max memory usage/rank               9.875907E+09
 # max total images/rank                        1
 # max 3D layers                                1
 # MPI messages exchanged                       0
 -------------------------------------------------------------------------------
 -                                                                             -
 -                      DBCSR MESSAGE PASSING PERFORMANCE                      -
 -                                                                             -
 -------------------------------------------------------------------------------
 ROUTINE             CALLS      AVE VOLUME [Bytes]
 MP_Bcast                9                     12.
 MP_Allreduce         2391                      8.
 MP_Alltoall         13778                    255.
 MP_ISend             2112                     76.
 MP_IRecv             2112                     76.
 -------------------------------------------------------------------------------

 -------------------------------------------------------------------------------
 -                                                                             -
 -                          OFFLOAD MEMPOOL STATISTICS                         -
 -                                                                             -
 -------------------------------------------------------------------------------
 Memory consumption                Number of allocations  Used [MiB]  Size [MiB]
 Host                                                  1           0           0
 -------------------------------------------------------------------------------

 MEMORY| Estimated peak process memory [MiB]                                 116

 -------------------------------------------------------------------------------
 ----                             MULTIGRID INFO                            ----
 -------------------------------------------------------------------------------
 total grid count     :           420              cutoff [a.u.]            1.00

 -------------------------------------------------------------------------------
 -                                                                             -
 -                         MESSAGE PASSING PERFORMANCE                         -
 -                                                                             -
 -------------------------------------------------------------------------------

 ROUTINE             CALLS      AVE VOLUME [Bytes]
 MP_Group               20
 MP_Bcast              692                     26.
 MP_Allreduce        10996                     51.
 MP_Sync               366
 MP_comm_split         346
 -------------------------------------------------------------------------------


 -------------------------------------------------------------------------------
 -                                                                             -
 -                           R E F E R E N C E S                               -
 -                                                                             -
 -------------------------------------------------------------------------------
 
 CP2K version 2026.2 (Development Version), the CP2K developers group (2026).
 CP2K is freely available from https://www.cp2k.org/ .
 
 M. Iannuzzi, J. Wilhelm, F. Stein, A. Bussy, H. Elgabarty, D. Golze, A. Hehn, 
 M. Graml, S. Marek, B. Sertcan Gökmen, C. Schran, H. Forbert, R. Z. 
 Khaliullin, A. Kozhevnikov, M. Taillefumier, R. Meli, V. V. Rybkin, M. Brehm, 
 R. Schade, O. Schütt, J. V. Pototschnig, H. Mirhosseini, A. Knüpfer, D. Marx, 
 M. Krack, J. Hutter, T. D. Kühne.
 J. Phys. Chem. B 130, 1237-1310 (2026).
 The CP2K Program Package Made Simple.
 https://doi.org/10.1021/acs.jpcb.5c05851

 A. Katbashev, M. Stahn, T. Rose, V. Alizadeh, M. Friede, C. Plett, P. 
 Steinbach, S. Ehlert.
 J. Phys. Chem. A 129, 2667-2682 (2025).
 Overview on Building Blocks and Applications of Efficient and Robust Extended 
 Tight Binding.
 https://doi.org/10.1021/acs.jpca.4c08263

 T. D. Kühne, M. Iannuzzi, M. Del Ben, V. V. Rybkin, P. Seewald, F. Stein, T. 
 Laino, R. Z. Khaliullin, O. Schütt, F. Schiffmann, D. Golze, J. Wilhelm, S. 
 Chulkov, M. H. Bani-Hashemian, V. Weber, U. Borstnik, M. Taillefumier, A. S. 
 Jakobovits, A. Lazzaro, H. Pabst, T. Müller, R. Schade, M. Guidon, S. 
 Andermatt, N. Holmberg, G. K. Schenter, A. Hehn, A. Bussy, F. Belleflamme, G. 
 Tabacchi, A. Glöß, M. Lass, I. Bethune, C. J. Mundy, C. Plessl, M. Watkins, 
 J. VandeVondele, M. Krack, J. Hutter.
 J. Chem. Phys. 152, 194103 (2020).
 CP2K: An electronic structure and molecular dynamics software package - 
 Quickstep: Efficient and accurate electronic structure calculations.
 https://doi.org/10.1063/5.0007045

 P. Pracht, E. Caldeweyher, S. Ehlert, S. Grimme.
 ChemRxiv, (2019).
 A Robust Non-Self-Consistent Tight-Binding Quantum Chemistry Method for large 
 Molecules.
 https://doi.org/10.26434/chemrxiv.8326202.v1

 S. Grimme, C. Bannwarth, P. Shushkov.
 J. Chem. Theory Comput. 13, 1989 (2017).
 A Robust and Accurate Tight-Binding Quantum Chemical Method for Structures, 
 Vibrational Frequencies, and Noncovalent Interactions of Large Molecular 
 Systems Parametrized for All spd-Block Elements (Z = 1-86).
 https://doi.org/10.1021/acs.jctc.7b00118

 O. Schuett, P. Messmer, J. Hutter, J. VandeVondele.
 Electronic Structure Calculations on Graphics Processing Units, 173-190 (2016).
 GPU-Accelerated Sparse Matrix-Matrix Multiplication for Linear Scaling Density 
 Functional Theory.
 https://doi.org/10.1002/9781118670712.ch8

 U. Borstnik, J. VandeVondele, V. Weber, J. Hutter.
 Parallel Comput. 40, 47-58 (2014).
 Sparse matrix multiplication: The distributed block-compressed sparse row 
 library.
 https://doi.org/10.1016/j.parco.2014.03.012

 T. D. Kühne, M. Krack, F. R. Mohamed, M. Parrinello.
 Phys. Rev. Lett. 98, 066401 (2007).
 Efficient and accurate Car-Parrinello-like approach to Born-Oppenheimer 
 molecular dynamics.
 https://doi.org/10.1103/PhysRevLett.98.066401

 M. Frigo, S. G. Johnson.
 Proc. IEEE 93, 216-231 (2005).
 The design and implementation of FFTW3.
 https://doi.org/10.1109/JPROC.2004.840301

 J. Kolafa.
 J. Comput. Chem. 25, 335-342 (2004).
 Time-reversible always stable predictor-corrector method for molecular dynamics 
 of polarizable molecules.
 https://doi.org/10.1002/jcc.10385


 -------------------------------------------------------------------------------
 -                                                                             -
 -                                T I M I N G                                  -
 -                                                                             -
 -------------------------------------------------------------------------------
 SUBROUTINE                       CALLS  ASD         SELF TIME        TOTAL TIME
                                MAXIMUM       AVERAGE  MAXIMUM  AVERAGE  MAXIMUM
 CP2K                                 1  1.0    0.004    0.004    0.572    0.572
 qs_energies                         39  2.1    0.001    0.001    0.546    0.546
 scf_env_do_scf                      39  3.1    0.000    0.000    0.347    0.347
 scf_env_do_scf_inner_loop          346  4.0    0.040    0.040    0.346    0.346
 qs_scf_new_mos                     346  5.0    0.004    0.004    0.246    0.246
 calculate_dm_sparse                384  6.0    0.001    0.001    0.170    0.170
 cp_dbcsr_plus_fm_fm_t              386  7.0    0.002    0.002    0.170    0.170
 dbcsr_multiply_generic             528  8.0    0.010    0.010    0.152    0.152
 build_tblite_matrices               41  4.0    0.085    0.085    0.100    0.100
 qs_energies_init_hamiltonians       39  3.1    0.000    0.000    0.097    0.097
 init_scf_run                        39  3.1    0.000    0.000    0.085    0.085
 make_m2s                          1056  9.0    0.005    0.005    0.081    0.081
 scf_env_initial_rho_setup           39  4.1    0.000    0.000    0.080    0.080
 wfi_extrapolate                     39  5.1    0.002    0.002    0.079    0.079
 dbcsr_complete_redistribute       1441  8.2    0.025    0.025    0.063    0.063
 copy_dbcsr_to_fm                   527  6.2    0.003    0.003    0.059    0.059
 rebuild_ks_matrix                  385  5.8    0.000    0.000    0.055    0.055
 build_tblite_ks_matrix             385  6.8    0.046    0.046    0.055    0.055
 cp_dbcsr_sm_fm_multiply            142  6.0    0.001    0.001    0.052    0.052
 qs_ks_update_qs_env                383  4.8    0.001    0.001    0.049    0.049
 eigensolver                        346  6.0    0.012    0.012    0.047    0.047
 copy_fm_to_dbcsr                   914  7.9    0.002    0.002    0.044    0.044
 qs_forces                            2  2.0    0.000    0.000    0.040    0.040
 multiply_cannon                    528  9.0    0.022    0.022    0.037    0.037
 make_images                       1056 10.0    0.009    0.009    0.036    0.036
 cp_fm_syevd                        346  7.0    0.001    0.001    0.031    0.031
 dbcsr_finalize                    7506  8.9    0.009    0.009    0.029    0.029
 cp_dbcsr_sm_fm_multiply_core       142  7.0    0.000    0.000    0.027    0.027
 dbcsr_create_new                 11903  9.4    0.020    0.020    0.026    0.026
 dbcsr_crop_matrix                  772 10.0    0.003    0.003    0.021    0.021
 dbcsr_iterator_start             22234  8.5    0.013    0.013    0.016    0.016
 dbcsr_copy_submatrix               772 11.0    0.004    0.004    0.016    0.016
 dbcsr_merge_all                   2599 11.0    0.009    0.009    0.015    0.015
 tb_get_multipole                    41  5.0    0.010    0.010    0.015    0.015
 dbcsr_desymmetrize_deep            527  7.2    0.005    0.005    0.014    0.014
 cp_fm_redistribute_start           346  8.0    0.009    0.009    0.013    0.013
 dbcsr_iterator_stop              22234  8.5    0.011    0.011    0.013    0.013
 make_images_data                  1056 11.0    0.005    0.005    0.013    0.013
 copy_fm_to_dbcsr_bc                914  8.9    0.004    0.004    0.012    0.012
 cp_fm_syevd_base                   346  8.0    0.012    0.012    0.012    0.012
 -------------------------------------------------------------------------------

 The number of warnings for this run is : 1
 
 -------------------------------------------------------------------------------
  **** **** ******  **  PROGRAM ENDED AT                 2026-07-21 12:49:25.066
 ***** ** ***  *** **   PROGRAM RAN ON                                     terok
 **    ****   ******    PROGRAM RAN BY                                  kuehne88
 ***** **    ** ** **   PROGRAM PROCESS ID                                538632
  **** **  *******  **  PROGRAM STOPPED IN /home/kuehne88/work/gxtb-lowk-rerun-2
                                           0260721/results/derivative/H2O_gxtb_g
                                           amma_force_stress
