 DBCSR| CPU Multiplication driver                                           XSMM (U)
 DBCSR| Multrec recursion limit                                              512 (U)
 DBCSR| Multiplication stack size                                           1000 (D)
 DBCSR| Maximum elements for images                                    UNLIMITED (U)
 DBCSR| Multiplicative factor virtual images                                   1 (U)
 DBCSR| Use multiplication densification                                       T (D)
 DBCSR| Multiplication size stacks                                             3 (U)
 DBCSR| Use memory pool for CPU allocation                                     F (U)
 DBCSR| Number of 3D layers                                               SINGLE (U)
 DBCSR| Use MPI memory allocation                                              F (U)
 DBCSR| Use RMA algorithm                                                      F (U)
 DBCSR| Use Communication thread                                               T (U)
 DBCSR| Communication thread load                                             87 (D)
 DBCSR| MPI: My process id                                                     0
 DBCSR| MPI: Number of processes                                               1
 DBCSR| OMP: Current number of threads                                         1
 DBCSR| OMP: Max number of threads                                             1
 DBCSR| Split modifier for TAS multiplication algorithm                  1.0E+00 (U)


  **** **** ******  **  PROGRAM STARTED AT               2026-05-23 22:46:45.909
 ***** ** ***  *** **   PROGRAM STARTED ON                            spark-c86c
 **    ****   ******    PROGRAM STARTED BY                              kuehne88
 ***** **    ** ** **   PROGRAM PROCESS ID                               2262550
  **** **  *******  **  PROGRAM STARTED IN /home/kuehne88/periodic-gfn2-benchmar
                                           ks/X23b/runs/crystal_sp/k333/GFN2/suc
                                           cinic_acid_GFN2_k333_sp

 CP2K| version string:                 CP2K version 2026.1 (Development Version)
 CP2K| source code revision number:                                   0622d442e4
 CP2K| cp2kflags: omp fftw3 libxc parallel scalapack mpi_f08 xsmm spglib libdftd
 CP2K|            4 dftd4_v3 mctc-lib tblite
 CP2K| is freely available from                            https://www.cp2k.org/
 CP2K| Program compiled at                                   2026-05-23 22:05:08
 CP2K| Program compiled on                                            spark-c86c
 CP2K| Program compiled for                                              aarch64
 CP2K| Data directory path    /home/kuehne88/cp2k-master-tblite-20260523/install
 CP2K| Input file name                            succinic_acid_GFN2_k333_sp.inp

 GLOBAL| Force Environment number                                              1
 GLOBAL| Basis set file name                                           BASIS_SET
 GLOBAL| Potential file name                                           POTENTIAL
 GLOBAL| MM Potential file name                                     MM_POTENTIAL
 GLOBAL| Coordinate file name                                      __STD_INPUT__
 GLOBAL| Method name                                                        CP2K
 GLOBAL| Project name                             succinic_acid_GFN2_k333_energy
 GLOBAL| Run type                                                         ENERGY
 GLOBAL| FFT library                                                       FFTW3
 GLOBAL| Diagonalization library                                       ScaLAPACK
 GLOBAL| Cholesky decomposition library                                ScaLAPACK
 GLOBAL| DGEMM library                                                      BLAS
 GLOBAL| Direct generalized diagonalization requested                          F
 GLOBAL| Orthonormality check for eigenvectors                          DISABLED
 GLOBAL| Matrix multiplication library                                 ScaLAPACK
 GLOBAL| All-to-all communication in single precision                          F
 GLOBAL| FFTs using library dependent lengths                                  F
 GLOBAL| Grid backend                                                       AUTO
 GLOBAL| Global print level                                                  LOW
 GLOBAL| MPI I/O enabled                                                       T
 GLOBAL| Total number of message passing processes                             1
 GLOBAL| Number of distributed systems (nodes)                                 1
 GLOBAL| Number of threads for this process                                    1
 GLOBAL| This output is from process                                           0
 GLOBAL| OpenMP stack size per thread (OMP_STACKSIZE)                    default
 GLOBAL| CPU model name                                                  UNKNOWN
 GLOBAL| CPUID                                                              2200
 GLOBAL| Compiled for CPUID                                                 2000

 *** HINT in environment.F:970 :: The compiler target flags (arm_arch64)   ***
 *** used to build this binary cannot exploit all extensions of this CPU   ***
 *** model (arm_sve256). Consider compiler target flags as part of FCFLAGS ***
 *** and CFLAGS (ARCH file).                                               ***


 MEMORY| system memory details [Kb]
 MEMORY|                        rank 0           min           max       average
 MEMORY| MemTotal            125508532     125508532     125508532     125508532
 MEMORY| MemFree             101369824     101369824     101369824     101369824
 MEMORY| Buffers                867368        867368        867368        867368
 MEMORY| Cached               13864576      13864576      13864576      13864576
 MEMORY| Slab                  1587060       1587060       1587060       1587060
 MEMORY| SReclaimable           908860        908860        908860        908860
 MEMORY| MemLikelyFree       117010628     117010628     117010628     117010628


 GENERATE|  Preliminary Number of Bonds generated:                             0
 GENERATE|  Achieved consistency in connectivity generation.


                  #####   #####        #     #   #     #       #          
                 #     # #     #      #    ##### #     #   # #####  ####  
                 #     # #           #       #   ###   #       #   #    # 
                 #     #  #####     #        #   #  #  #   #   #   ###### 
                 #   # #       #   #         #   #   # #   #   #   #      
                 #    #  #     #  #          #   #  #  # # #   #    #   # 
                  #### #  #####  #           #   ###   ##  #   #     ###  

                                   GFN2-xTB  
                                 Version 0.0                       
                            Johann V. Pototschnig                  



 TOTAL NUMBERS AND MAXIMUM NUMBERS

  Total number of            - Atomic kinds:                                   3
                             - Atoms:                                         28
                             - Shell sets:                                    44
                             - Shells:                                        44
                             - Primitive Cartesian functions:                164
                             - Cartesian basis functions:                     76
                             - Spherical basis functions:                     76

  Maximum angular momentum of the orbital basis functions:                     1


 SCF PARAMETERS         Density guess:                                     MOPAC
                        --------------------------------------------------------
                        max_scf:                                             300
                        max_scf_history:                                       0
                        max_diis:                                              4
                        --------------------------------------------------------
                        eps_scf:                                        1.00E-09
                        eps_scf_history:                                0.00E+00
                        eps_diis:                                       1.00E-01
                        eps_eigval:                                     1.00E-05
                        --------------------------------------------------------
                        level_shift [a.u.]:                             0.000000
                        added MOs                                        30    0
                        --------------------------------------------------------
                        Mixing method:                           DIRECT_P_MIXING
                        --------------------------------------------------------
                        Smear method:                                FERMI_DIRAC
                        Electronic temperature [K]:                        300.0
                        Electronic temperature [a.u.]:                  9.50E-04
                        Accuracy threshold:                             1.00E-06
                        --------------------------------------------------------
                        No outer SCF

 Extrapolation method: initial_guess

 Number of electrons:                                                         92
 Number of occupied orbitals:                                                 46
 Number of molecular orbitals:                                                76

 Number of orbital functions:                                                 76
 Number of independent orbital functions:                                     76


 SCF WAVEFUNCTION OPTIMIZATION

  Step     Update method      Time    Convergence         Total energy    Change
  ------------------------------------------------------------------------------
     1 TBLite/Diag 0.40E+00    0.4     0.71722472       -55.1477832717 -5.51E+01
     2 TBLite/Diag 0.40E+00    0.4     0.28567304       -55.8727272506 -7.25E-01
     3 TBLite/Diag 0.40E+00    0.4     0.08394966       -55.9027706845 -3.00E-02
     4 TBLite/Diag 0.40E+00    0.4     0.03640629       -55.9100593249 -7.29E-03
     5 TBLite/Diag 0.40E+00    0.4     0.01489945       -55.9116436461 -1.58E-03
     6 TBLite/Diag 0.40E+00    0.2     0.00310695       -55.9116905074 -4.69E-05
     7 TBLite/Diag 0.40E+00    0.2     0.00175006       -55.9117100391 -1.95E-05
     8 TBLite/Diag 0.40E+00    0.2     0.00027971       -55.9117110457 -1.01E-06
     9 TBLite/Diag 0.40E+00    0.2     0.00009283       -55.9117110563 -1.06E-08
    10 TBLite/Diag 0.40E+00    0.2     0.00009120       -55.9117110759 -1.96E-08
    11 TBLite/Diag 0.40E+00    0.2     0.00004305       -55.9117110881 -1.23E-08
    12 TBLite/Diag 0.40E+00    0.2     0.00000385       -55.9117110882 -5.82E-11
    13 TBLite/Diag 0.40E+00    0.2     0.00000504       -55.9117110883 -1.30E-10
    14 TBLite/Diag 0.40E+00    0.2     0.00000039       -55.9117110883 -1.27E-12
    15 TBLite/Diag 0.40E+00    0.2     0.00000007       -55.9117110883 -1.28E-13
    16 TBLite/Diag 0.40E+00    0.2     7.5190E-09       -55.9117110883  4.97E-14
    17 TBLite/Diag 0.40E+00    0.2     0.00000001       -55.9117110883  4.26E-14
    18 TBLite/Diag 0.40E+00    0.2     1.5937E-09       -55.9117110883  0.00E+00
    19 TBLite/Diag 0.40E+00    0.2     3.3870E-10       -55.9117110883 -8.53E-14

  *** SCF run converged in    19 steps ***


  Core Hamiltonian energy:                                    -56.47394376391292
  Repulsive potential energy:                                   0.45038128574375
  Electrostatic energy:                                         0.16614025301163
  Self-consistent dispersion energy:                           -0.06863901332496
  Non-self consistent dispersion energy:                        0.01435015015830
  Correction for halogen bonding:                               0.00000000000000
  Electronic entropic energy:                                  -0.00000000000000
  Fermi energy:                                                -0.36678895831639

  Total energy:                                               -55.91171108832421
  Total energy (extrapolated to T->0):                        -55.91171108832421

 ENERGY| Total FORCE_EVAL ( QS ) energy [hartree]            -55.911711088324211

 -------------------------------------------------------------------------------
 -                                                                             -
 -                                DBCSR STATISTICS                             -
 -                                                                             -
 -------------------------------------------------------------------------------
 COUNTER                                    TOTAL       BLAS       SMM       ACC
 flops inhomo. stacks                           0       0.0%      0.0%      0.0%
 flops total                         0.000000E+00       0.0%      0.0%      0.0%
 flops max/rank                      0.000000E+00       0.0%      0.0%      0.0%
 matmuls inhomo. stacks                         0       0.0%      0.0%      0.0%
 matmuls total                                  0       0.0%      0.0%      0.0%
 number of processed stacks                     0       0.0%      0.0%      0.0%
 average stack size                                     0.0       0.0       0.0
 marketing flops                     0.000000E+00
 -------------------------------------------------------------------------------
 -                                                                             -
 -                      DBCSR MESSAGE PASSING PERFORMANCE                      -
 -                                                                             -
 -------------------------------------------------------------------------------
 ROUTINE             CALLS      AVE VOLUME [Bytes]
 MP_Bcast                1                     12.
 MP_Allreduce           19                     21.
 MP_Alltoall         43704                  36759.
 -------------------------------------------------------------------------------

 -------------------------------------------------------------------------------
 -                                                                             -
 -                          OFFLOAD MEMPOOL STATISTICS                         -
 -                                                                             -
 -------------------------------------------------------------------------------
 Memory consumption                Number of allocations  Used [MiB]  Size [MiB]
 Device                                                1           0           0
 Host                                                  1           0           0
 -------------------------------------------------------------------------------

 MEMORY| Estimated peak process memory [MiB]                                 243

 -------------------------------------------------------------------------------
 -                                                                             -
 -                         MESSAGE PASSING PERFORMANCE                         -
 -                                                                             -
 -------------------------------------------------------------------------------

 ROUTINE             CALLS      AVE VOLUME [Bytes]
 MP_Group                1
 MP_Bcast            18811                      7.
 MP_Allreduce        28145                    250.
 MP_Sync                 1
 MP_Wait             15660
 MP_ISend            21924                   6607.
 MP_IRecv            21924                   6607.
 -------------------------------------------------------------------------------


 -------------------------------------------------------------------------------
 -                                                                             -
 -                           R E F E R E N C E S                               -
 -                                                                             -
 -------------------------------------------------------------------------------
 
 CP2K version 2026.1 (Development Version), the CP2K developers group (2026).
 CP2K is freely available from https://www.cp2k.org/ .
 
 M. Iannuzzi, J. Wilhelm, F. Stein, A. Bussy, H. Elgabarty, D. Golze, A. Hehn, 
 M. Graml, S. Marek, B. Sertcan Gökmen, C. Schran, H. Forbert, R. Z. 
 Khaliullin, A. Kozhevnikov, M. Taillefumier, R. Meli, V. V. Rybkin, M. Brehm, 
 R. Schade, O. Schütt, J. V. Pototschnig, H. Mirhosseini, A. Knüpfer, D. Marx, 
 M. Krack, J. Hutter, T. D. Kühne.
 J. Phys. Chem. B 130, 1237-1310 (2026).
 The CP2K Program Package Made Simple.
 https://doi.org/10.1021/acs.jpcb.5c05851

 A. Katbashev, M. Stahn, T. Rose, V. Alizadeh, M. Friede, C. Plett, P. 
 Steinbach, S. Ehlert.
 J. Phys. Chem. A 129, 2667-2682 (2025).
 Overview on Building Blocks and Applications of Efficient and Robust Extended 
 Tight Binding.
 https://doi.org/10.1021/acs.jpca.4c08263

 T. D. Kühne, M. Iannuzzi, M. Del Ben, V. V. Rybkin, P. Seewald, F. Stein, T. 
 Laino, R. Z. Khaliullin, O. Schütt, F. Schiffmann, D. Golze, J. Wilhelm, S. 
 Chulkov, M. H. Bani-Hashemian, V. Weber, U. Borstnik, M. Taillefumier, A. S. 
 Jakobovits, A. Lazzaro, H. Pabst, T. Müller, R. Schade, M. Guidon, S. 
 Andermatt, N. Holmberg, G. K. Schenter, A. Hehn, A. Bussy, F. Belleflamme, G. 
 Tabacchi, A. Glöß, M. Lass, I. Bethune, C. J. Mundy, C. Plessl, M. Watkins, 
 J. VandeVondele, M. Krack, J. Hutter.
 J. Chem. Phys. 152, 194103 (2020).
 CP2K: An electronic structure and molecular dynamics software package - 
 Quickstep: Efficient and accurate electronic structure calculations.
 https://doi.org/10.1063/5.0007045

 P. Pracht, E. Caldeweyher, S. Ehlert, S. Grimme.
 ChemRxiv, (2019).
 A Robust Non-Self-Consistent Tight-Binding Quantum Chemistry Method for large 
 Molecules.
 https://doi.org/10.26434/chemrxiv.8326202.v1

 S. Grimme, C. Bannwarth, P. Shushkov.
 J. Chem. Theory Comput. 13, 1989 (2017).
 A Robust and Accurate Tight-Binding Quantum Chemical Method for Structures, 
 Vibrational Frequencies, and Noncovalent Interactions of Large Molecular 
 Systems Parametrized for All spd-Block Elements (Z = 1-86).
 https://doi.org/10.1021/acs.jctc.7b00118

 O. Schuett, P. Messmer, J. Hutter, J. VandeVondele.
 Electronic Structure Calculations on Graphics Processing Units, 173-190 (2016).
 GPU-Accelerated Sparse Matrix-Matrix Multiplication for Linear Scaling Density 
 Functional Theory.
 https://doi.org/10.1002/9781118670712.ch8

 A. Heinecke, G. Henry, M. Hutchinson, H. Pabst.
 Proceedings of Intl. Supercomputing Conference, 981-991 (2016).
 LIBXSMM: Accelerating Small Matrix Multiplications by Runtime Code Generation.
 https://doi.org/10.1109/SC.2016.83

 U. Borstnik, J. VandeVondele, V. Weber, J. Hutter.
 Parallel Comput. 40, 47-58 (2014).
 Sparse matrix multiplication: The distributed block-compressed sparse row 
 library.
 https://doi.org/10.1016/j.parco.2014.03.012

 M. Frigo, S. G. Johnson.
 Proc. IEEE 93, 216-231 (2005).
 The design and implementation of FFTW3.
 https://doi.org/10.1109/JPROC.2004.840301

 N. D. Mermin.
 Phys. Rev. 137, A1441-A1443 (1965).
 Thermal Properties of the Inhomogeneous Electron Gas.
 https://doi.org/10.1103/PhysRev.137.A1441


 -------------------------------------------------------------------------------
 -                                                                             -
 -                                T I M I N G                                  -
 -                                                                             -
 -------------------------------------------------------------------------------
 SUBROUTINE                       CALLS  ASD         SELF TIME        TOTAL TIME
                                MAXIMUM       AVERAGE  MAXIMUM  AVERAGE  MAXIMUM
 CP2K                                 1  1.0    0.006    0.006    5.138    5.138
 qs_energies                          1  2.0    0.000    0.000    5.127    5.127
 scf_env_do_scf                       1  3.0    0.000    0.000    4.478    4.478
 scf_env_do_scf_inner_loop           19  4.0    0.465    0.465    4.478    4.478
 qs_scf_new_mos_kp                   19  5.0    0.000    0.000    3.229    3.229
 do_general_diag_kp                  19  6.0    0.011    0.011    3.229    3.229
 rskp_transform                    1053  6.9    0.794    0.794    0.794    0.794
 kpoint_density_transform            19  7.0    0.002    0.002    0.761    0.761
 qs_ks_update_qs_env                 19  5.0    0.000    0.000    0.685    0.685
 rebuild_ks_matrix                   19  6.0    0.000    0.000    0.651    0.651
 build_tblite_ks_matrix              19  7.0    0.631    0.631    0.650    0.650
 qs_energies_init_hamiltonians        1  3.0    0.000    0.000    0.601    0.601
 build_tblite_matrices                1  4.0    0.395    0.395    0.591    0.591
 copy_dbcsr_to_fm                  2166  6.9    0.009    0.009    0.551    0.551
 cp_cfm_geeig                       513  7.0    0.002    0.002    0.546    0.546
 dbcsr_complete_redistribute       3192  8.3    0.391    0.391    0.516    0.516
 cp_cfm_heevd                       513  8.0    0.000    0.000    0.363    0.363
 cp_cfm_heevd_base                  513  9.0    0.363    0.363    0.363    0.363
 transform_dmat                     513  8.0    0.354    0.354    0.354    0.354
 copy_fm_to_dbcsr                  1026  8.0    0.003    0.003    0.322    0.322
 dbcsr_desymmetrize_deep           4272  7.4    0.211    0.211    0.304    0.304
 cp_dbcsr_alloc_block_from_nbl     1458  5.8    0.176    0.176    0.209    0.209
 tb_get_multipole                     1  5.0    0.015    0.015    0.182    0.182
 qs_diis_b_calc_err_kp              486  7.0    0.008    0.008    0.147    0.147
 cp_fm_start_copy_general          3132  7.3    0.119    0.119    0.145    0.145
 parallel_gemm_cfm                 1944  8.0    0.001    0.001    0.136    0.136
 parallel_gemm_cfm_gemm            1944  9.0    0.001    0.001    0.135    0.135
 cp_cfm_gemm                       1944 10.0    0.134    0.134    0.134    0.134
 dbcsr_copy                        3306  7.3    0.008    0.008    0.132    0.132
 cp_cfm_triangular_multiply        1539  8.0    0.128    0.128    0.128    0.128
 dbcsr_copy_into_existing          1026 10.0    0.120    0.120    0.123    0.123
 -------------------------------------------------------------------------------

 The number of warnings for this run is : 0
 
 -------------------------------------------------------------------------------
  **** **** ******  **  PROGRAM ENDED AT                 2026-05-23 22:46:51.411
 ***** ** ***  *** **   PROGRAM RAN ON                                spark-c86c
 **    ****   ******    PROGRAM RAN BY                                  kuehne88
 ***** **    ** ** **   PROGRAM PROCESS ID                               2262550
  **** **  *******  **  PROGRAM STOPPED IN /home/kuehne88/periodic-gfn2-benchmar
                                           ks/X23b/runs/crystal_sp/k333/GFN2/suc
                                           cinic_acid_GFN2_k333_sp
