 DBCSR| CPU Multiplication driver                                           XSMM (U)
 DBCSR| Multrec recursion limit                                              512 (U)
 DBCSR| Multiplication stack size                                           1000 (D)
 DBCSR| Maximum elements for images                                    UNLIMITED (U)
 DBCSR| Multiplicative factor virtual images                                   1 (U)
 DBCSR| Use multiplication densification                                       T (D)
 DBCSR| Multiplication size stacks                                             3 (U)
 DBCSR| Use memory pool for CPU allocation                                     F (U)
 DBCSR| Number of 3D layers                                               SINGLE (U)
 DBCSR| Use MPI memory allocation                                              F (U)
 DBCSR| Use RMA algorithm                                                      F (U)
 DBCSR| Use Communication thread                                               T (U)
 DBCSR| Communication thread load                                             87 (D)
 DBCSR| MPI: My process id                                                     0
 DBCSR| MPI: Number of processes                                               1
 DBCSR| OMP: Current number of threads                                         1
 DBCSR| OMP: Max number of threads                                             1
 DBCSR| Split modifier for TAS multiplication algorithm                  1.0E+00 (U)


  **** **** ******  **  PROGRAM STARTED AT               2026-05-23 22:47:16.972
 ***** ** ***  *** **   PROGRAM STARTED ON                            spark-c86c
 **    ****   ******    PROGRAM STARTED BY                              kuehne88
 ***** **    ** ** **   PROGRAM PROCESS ID                               2268285
  **** **  *******  **  PROGRAM STARTED IN /home/kuehne88/periodic-gfn2-benchmar
                                           ks/X23b/runs/cellopt_gamma/GFN2/anthr
                                           acene_GFN2_gamma_cellopt

 CP2K| version string:                 CP2K version 2026.1 (Development Version)
 CP2K| source code revision number:                                   0622d442e4
 CP2K| cp2kflags: omp fftw3 libxc parallel scalapack mpi_f08 xsmm spglib libdftd
 CP2K|            4 dftd4_v3 mctc-lib tblite
 CP2K| is freely available from                            https://www.cp2k.org/
 CP2K| Program compiled at                                   2026-05-23 22:05:08
 CP2K| Program compiled on                                            spark-c86c
 CP2K| Program compiled for                                              aarch64
 CP2K| Data directory path    /home/kuehne88/cp2k-master-tblite-20260523/install
 CP2K| Input file name                         anthracene_GFN2_gamma_cellopt.inp

 GLOBAL| Force Environment number                                              1
 GLOBAL| Basis set file name                                           BASIS_SET
 GLOBAL| Potential file name                                           POTENTIAL
 GLOBAL| MM Potential file name                                     MM_POTENTIAL
 GLOBAL| Coordinate file name                                      __STD_INPUT__
 GLOBAL| Method name                                                        CP2K
 GLOBAL| Project name                             anthracene_GFN2_gamma_cell_opt
 GLOBAL| Run type                                                       CELL_OPT
 GLOBAL| FFT library                                                       FFTW3
 GLOBAL| Diagonalization library                                       ScaLAPACK
 GLOBAL| Cholesky decomposition library                                ScaLAPACK
 GLOBAL| DGEMM library                                                      BLAS
 GLOBAL| Direct generalized diagonalization requested                          F
 GLOBAL| Orthonormality check for eigenvectors                          DISABLED
 GLOBAL| Matrix multiplication library                                 ScaLAPACK
 GLOBAL| All-to-all communication in single precision                          F
 GLOBAL| FFTs using library dependent lengths                                  F
 GLOBAL| Grid backend                                                       AUTO
 GLOBAL| Global print level                                                  LOW
 GLOBAL| MPI I/O enabled                                                       T
 GLOBAL| Total number of message passing processes                             1
 GLOBAL| Number of distributed systems (nodes)                                 1
 GLOBAL| Number of threads for this process                                    1
 GLOBAL| This output is from process                                           0
 GLOBAL| OpenMP stack size per thread (OMP_STACKSIZE)                    default
 GLOBAL| CPU model name                                                  UNKNOWN
 GLOBAL| CPUID                                                              2200
 GLOBAL| Compiled for CPUID                                                 2000

 *** HINT in environment.F:970 :: The compiler target flags (arm_arch64)   ***
 *** used to build this binary cannot exploit all extensions of this CPU   ***
 *** model (arm_sve256). Consider compiler target flags as part of FCFLAGS ***
 *** and CFLAGS (ARCH file).                                               ***


 MEMORY| system memory details [Kb]
 MEMORY|                        rank 0           min           max       average
 MEMORY| MemTotal            125508532     125508532     125508532     125508532
 MEMORY| MemFree             104442188     104442188     104442188     104442188
 MEMORY| Buffers                867900        867900        867900        867900
 MEMORY| Cached               14071320      14071320      14071320      14071320
 MEMORY| Slab                  1595736       1595736       1595736       1595736
 MEMORY| SReclaimable           917468        917468        917468        917468
 MEMORY| MemLikelyFree       120298876     120298876     120298876     120298876


 GENERATE|  Preliminary Number of Bonds generated:                             0
 GENERATE|  Achieved consistency in connectivity generation.


                  #####   #####        #     #   #     #       #          
                 #     # #     #      #    ##### #     #   # #####  ####  
                 #     # #           #       #   ###   #       #   #    # 
                 #     #  #####     #        #   #  #  #   #   #   ###### 
                 #   # #       #   #         #   #   # #   #   #   #      
                 #    #  #     #  #          #   #  #  # # #   #    #   # 
                  #### #  #####  #           #   ###   ##  #   #     ###  

                                   GFN2-xTB  
                                 Version 0.0                       
                            Johann V. Pototschnig                  



 TOTAL NUMBERS AND MAXIMUM NUMBERS

  Total number of            - Atomic kinds:                                   2
                             - Atoms:                                         48
                             - Shell sets:                                    76
                             - Shells:                                        76
                             - Primitive Cartesian functions:                284
                             - Cartesian basis functions:                    132
                             - Spherical basis functions:                    132

  Maximum angular momentum of the orbital basis functions:                     1


 SCF PARAMETERS         Density guess:                                     MOPAC
                        --------------------------------------------------------
                        max_scf:                                             300
                        max_scf_history:                                       0
                        max_diis:                                              4
                        --------------------------------------------------------
                        eps_scf:                                        1.00E-09
                        eps_scf_history:                                0.00E+00
                        eps_diis:                                       1.00E-01
                        eps_eigval:                                     1.00E-05
                        --------------------------------------------------------
                        level_shift [a.u.]:                             0.000000
                        added MOs                                        66    0
                        --------------------------------------------------------
                        Mixing method:                           DIRECT_P_MIXING
                        --------------------------------------------------------
                        Smear method:                                FERMI_DIRAC
                        Electronic temperature [K]:                        300.0
                        Electronic temperature [a.u.]:                  9.50E-04
                        Accuracy threshold:                             1.00E-06
                        --------------------------------------------------------
                        No outer SCF

 CELL_OPT| Pressure tolerance [bar]:                                       100.0
 CELL_OPT| Keep volume of cell:                                               NO
 CELL_OPT| Keep angles between the cell vectors:                              NO
 CELL_OPT| Keep cell symmetry:                                                NO
 CELL_OPT| Constraint:                                                      NONE

 BFGS| Use rational function optimization for step estimation:                NO
 BFGS| Use model Hessian for initial guess:                                   NO
 BFGS| Restart Hessian:                                                       NO
 BFGS| Trust radius:                                                       0.472

 *******************************************************************************
 ***                     STARTING   CELL   OPTIMIZATION                      ***
 ***                                   BFGS                                  ***
 *******************************************************************************

 CELL| Volume [angstrom^3]:                                           456.469453
 CELL| Vector a [angstrom]:       8.414     0.000     0.000   |a| =     8.414400
 CELL| Vector b [angstrom]:       0.000     5.990     0.000   |b| =     5.990300
 CELL| Vector c [angstrom]:      -6.410     0.000     9.056   |c| =    11.095300
 CELL| Angle (b,c), alpha [degree]:                                    90.000000
 CELL| Angle (a,c), beta  [degree]:                                   125.293000
 CELL| Angle (a,b), gamma [degree]:                                    90.000000
 CELL| Numerically orthorhombic:                                              NO
 CELL| Periodicity                                                           XYZ

 Extrapolation method: initial_guess

 Number of electrons:                                                        132
 Number of occupied orbitals:                                                 66
 Number of molecular orbitals:                                               132

 Number of orbital functions:                                                132
 Number of independent orbital functions:                                    132


 SCF WAVEFUNCTION OPTIMIZATION

  Step     Update method      Time    Convergence         Total energy    Change
  ------------------------------------------------------------------------------
     1 TBLite/Diag 0.40E+00    0.0     0.48257123       -70.0504099807 -7.01E+01
     2 TBLite/Diag 0.40E+00    0.0     0.02203434       -70.0576839473 -7.27E-03
     3 TBLite/Diag 0.40E+00    0.0     0.02683641       -70.0563925761  1.29E-03
     4 TBLite/Diag 0.40E+00    0.0     0.02301099       -70.0590379430 -2.65E-03
     5 TBLite/Diag 0.40E+00    0.0     0.00844050       -70.0594742500 -4.36E-04
     6 TBLite/Diag 0.40E+00    0.0     0.00294389       -70.0595629735 -8.87E-05
     7 TBLite/Diag 0.40E+00    0.0     0.00069333       -70.0595658617 -2.89E-06
     8 TBLite/Diag 0.40E+00    0.0     0.00027671       -70.0595669460 -1.08E-06
     9 TBLite/Diag 0.40E+00    0.0     0.00018619       -70.0595670656 -1.20E-07
    10 TBLite/Diag 0.40E+00    0.0     0.00010957       -70.0595671655 -9.99E-08
    11 TBLite/Diag 0.40E+00    0.0     0.00002886       -70.0595671733 -7.79E-09
    12 TBLite/Diag 0.40E+00    0.0     0.00001152       -70.0595671738 -4.51E-10
    13 TBLite/Diag 0.40E+00    0.0     0.00000235       -70.0595671738 -4.53E-11
    14 TBLite/Diag 0.40E+00    0.0     0.00000088       -70.0595671738  5.54E-13
    15 TBLite/Diag 0.40E+00    0.0     0.00000075       -70.0595671738 -1.08E-12
    16 TBLite/Diag 0.40E+00    0.0     0.00000022       -70.0595671738 -1.71E-13
    17 TBLite/Diag 0.40E+00    0.0     0.00000003       -70.0595671738  1.42E-13
    18 TBLite/Diag 0.40E+00    0.0     0.00000002       -70.0595671738 -1.14E-13
    19 TBLite/Diag 0.40E+00    0.0     8.7621E-09       -70.0595671738 -1.42E-14
    20 TBLite/Diag 0.40E+00    0.0     9.7529E-10       -70.0595671738  1.42E-14

  *** SCF run converged in    20 steps ***


  Core Hamiltonian energy:                                    -71.70629874696921
  Repulsive potential energy:                                   1.72394139656993
  Electrostatic energy:                                         0.04220073639826
  Self-consistent dispersion energy:                           -0.14935359039855
  Non-self consistent dispersion energy:                        0.02994303058059
  Correction for halogen bonding:                               0.00000000000000
  Electronic entropic energy:                                  -0.00000000000000
  Fermi energy:                                                -0.33191807652315

  Total energy:                                               -70.05956717381898
  Total energy (extrapolated to T->0):                        -70.05956717381898

 ENERGY| Total FORCE_EVAL ( QS ) energy [hartree]            -70.059567173818976

 OPT| **************************************************************************
 OPT| Step number                                                              0
 OPT| Optimization method                                                   BFGS
 OPT| Total energy [hartree]                                      -70.0595671738
 OPT| Internal pressure [bar]                                   84978.0351332972
 OPT| Used time [s]                                                        2.972
 OPT| **************************************************************************
 OPT| Estimated peak process memory [MiB]                                    169

 --------------------------
 OPTIMIZATION STEP:      1
 --------------------------

 CELL| Volume [angstrom^3]:                                           464.018339
 CELL| Vector a [angstrom]:       8.425     0.000     0.000   |a| =     8.425486
 CELL| Vector b [angstrom]:      -0.000     6.068     0.000   |b| =     6.068021
 CELL| Vector c [angstrom]:      -6.412     0.000     9.076   |c| =    11.112302
 CELL| Angle (b,c), alpha [degree]:                                    90.000000
 CELL| Angle (a,c), beta  [degree]:                                   125.239250
 CELL| Angle (a,b), gamma [degree]:                                    90.000000
 CELL| Numerically orthorhombic:                                              NO
 CELL| Periodicity                                                           XYZ

 Extrapolation method: ASPC

 Number of electrons:                                                        132
 Number of occupied orbitals:                                                 66
 Number of molecular orbitals:                                               132

 Number of orbital functions:                                                132
 Number of independent orbital functions:                                    132


 SCF WAVEFUNCTION OPTIMIZATION

  Step     Update method      Time    Convergence         Total energy    Change
  ------------------------------------------------------------------------------
     1 TBLite/Diag 0.40E+00    0.0     0.09445610       -70.1798107556 -7.02E+01
     2 TBLite/Diag 0.40E+00    0.0     0.00724149       -70.1803549362 -5.44E-04
     3 TBLite/Diag 0.40E+00    0.0     0.00602091       -70.1802087828  1.46E-04
     4 TBLite/Diag 0.40E+00    0.0     0.00605287       -70.1804148928 -2.06E-04
     5 TBLite/Diag 0.40E+00    0.0     0.00214284       -70.1804681720 -5.33E-05
     6 TBLite/Diag 0.40E+00    0.0     0.00060026       -70.1804697981 -1.63E-06
     7 TBLite/Diag 0.40E+00    0.0     0.00017661       -70.1804698322 -3.42E-08
     8 TBLite/Diag 0.40E+00    0.0     0.00009164       -70.1804698968 -6.46E-08
     9 TBLite/Diag 0.40E+00    0.0     0.00001272       -70.1804698979 -1.08E-09
    10 TBLite/Diag 0.40E+00    0.0     0.00001107       -70.1804698986 -6.63E-10
    11 TBLite/Diag 0.40E+00    0.0     0.00000336       -70.1804698987 -9.26E-11
    12 TBLite/Diag 0.40E+00    0.0     0.00000358       -70.1804698987 -1.69E-11
    13 TBLite/Diag 0.40E+00    0.0     0.00000227       -70.1804698987 -1.53E-11
    14 TBLite/Diag 0.40E+00    0.0     0.00000033       -70.1804698987 -3.84E-13
    15 TBLite/Diag 0.40E+00    0.0     0.00000012       -70.1804698987  2.84E-14
    16 TBLite/Diag 0.40E+00    0.0     0.00000004       -70.1804698987 -1.42E-14
    17 TBLite/Diag 0.40E+00    0.0     0.00000001       -70.1804698987 -5.68E-14
    18 TBLite/Diag 0.40E+00    0.0     2.8332E-09       -70.1804698987  1.99E-13
    19 TBLite/Diag 0.40E+00    0.0     5.2449E-10       -70.1804698987 -1.14E-13

  *** SCF run converged in    19 steps ***


  Core Hamiltonian energy:                                    -71.59331533878147
  Repulsive potential energy:                                   1.48428025380643
  Electrostatic energy:                                         0.04751034236090
  Self-consistent dispersion energy:                           -0.14791898011636
  Non-self consistent dispersion energy:                        0.02897382401785
  Correction for halogen bonding:                               0.00000000000000
  Electronic entropic energy:                                  -0.00000000000000
  Fermi energy:                                                -0.33279852331795

  Total energy:                                               -70.18046989871263
  Total energy (extrapolated to T->0):                        -70.18046989871263

 ENERGY| Total FORCE_EVAL ( QS ) energy [hartree]            -70.180469898712630

 OPT| **************************************************************************
 OPT| Step number                                                              1
 OPT| Optimization method                                                   BFGS
 OPT| Total energy [hartree]                                      -70.1804698987
 OPT| Internal pressure [bar]                                   31413.5552501777
 OPT| Effective energy change [hartree]                            -0.1209027249
 OPT| Predicted energy change [hartree]                            -0.1474950694
 OPT| Scaling factor                                                0.0000000000
 OPT| Step size                                                     0.1468713539
 OPT| Trust radius                                                  0.4724315332
 OPT| Decrease in energy                                                     YES
 OPT| Used time [s]                                                        2.177
 OPT|
 OPT| Maximum step size                                             0.1468713539
 OPT| Convergence limit for maximum step size                       0.0030000000
 OPT| Maximum step size is converged                                          NO
 OPT|
 OPT| RMS step size                                                 0.0443463744
 OPT| Convergence limit for RMS step size                           0.0015000000
 OPT| RMS step size is converged                                              NO
 OPT|
 OPT| Maximum gradient                                              0.0355040310
 OPT| Convergence limit for maximum gradient                        0.0004500000
 OPT| Maximum gradient is converged                                           NO
 OPT|
 OPT| RMS gradient                                                  0.0121318206
 OPT| Convergence limit for RMS gradient                            0.0003000000
 OPT| RMS gradient is converged                                               NO
 OPT|
 OPT| Pressure deviation [bar]                                  31413.5552501777
 OPT| Pressure tolerance [bar]                                    100.0000000000
 OPT| Pressure is converged                                                   NO
 OPT| **************************************************************************
 OPT| Estimated peak process memory after this step [MiB]                    171

 --------------------------
 OPTIMIZATION STEP:      2
 --------------------------

 CELL| Volume [angstrom^3]:                                           466.470082
 CELL| Vector a [angstrom]:       8.427     0.000     0.000   |a| =     8.426610
 CELL| Vector b [angstrom]:      -0.000     6.090     0.000   |b| =     6.089980
 CELL| Vector c [angstrom]:      -6.417     0.000     9.090   |c| =    11.126848
 CELL| Angle (b,c), alpha [degree]:                                    90.000000
 CELL| Angle (a,c), beta  [degree]:                                   125.221723
 CELL| Angle (a,b), gamma [degree]:                                    90.000000
 CELL| Numerically orthorhombic:                                              NO
 CELL| Periodicity                                                           XYZ

 Extrapolation method: ASPC

 Number of electrons:                                                        132
 Number of occupied orbitals:                                                 66
 Number of molecular orbitals:                                               132

 Number of orbital functions:                                                132
 Number of independent orbital functions:                                    132


 SCF WAVEFUNCTION OPTIMIZATION

  Step     Update method      Time    Convergence         Total energy    Change
  ------------------------------------------------------------------------------
     1 TBLite/Diag 0.40E+00    0.0     0.02193953       -70.1912346759 -7.02E+01
     2 TBLite/Diag 0.40E+00    0.0     0.00339511       -70.1913114913 -7.68E-05
     3 TBLite/Diag 0.40E+00    0.0     0.00463996       -70.1911784248  1.33E-04
     4 TBLite/Diag 0.40E+00    0.0     0.00385071       -70.1913551540 -1.77E-04
     5 TBLite/Diag 0.40E+00    0.0     0.00093629       -70.1913608993 -5.75E-06
     6 TBLite/Diag 0.40E+00    0.0     0.00011870       -70.1913610132 -1.14E-07
     7 TBLite/Diag 0.40E+00    0.0     0.00008992       -70.1913610511 -3.79E-08
     8 TBLite/Diag 0.40E+00    0.0     0.00003161       -70.1913610561 -4.99E-09
     9 TBLite/Diag 0.40E+00    0.0     0.00001864       -70.1913610596 -3.51E-09
    10 TBLite/Diag 0.40E+00    0.0     0.00000922       -70.1913610599 -3.23E-10
    11 TBLite/Diag 0.40E+00    0.0     0.00000318       -70.1913610600 -5.46E-12
    12 TBLite/Diag 0.40E+00    0.0     0.00000309       -70.1913610600 -6.95E-12
    13 TBLite/Diag 0.40E+00    0.0     0.00000154       -70.1913610600 -5.27E-12
    14 TBLite/Diag 0.40E+00    0.0     0.00000019       -70.1913610600 -3.13E-13
    15 TBLite/Diag 0.40E+00    0.0     0.00000007       -70.1913610600  2.70E-13
    16 TBLite/Diag 0.40E+00    0.0     0.00000006       -70.1913610600 -3.13E-13
    17 TBLite/Diag 0.40E+00    0.0     0.00000001       -70.1913610600  2.84E-14
    18 TBLite/Diag 0.40E+00    0.0     8.1715E-10       -70.1913610600  1.71E-13

  *** SCF run converged in    18 steps ***


  Core Hamiltonian energy:                                    -71.54047032065674
  Repulsive potential energy:                                   1.41826308315344
  Electrostatic energy:                                         0.04917613152721
  Self-consistent dispersion energy:                           -0.14699852299885
  Non-self consistent dispersion energy:                        0.02866856900978
  Correction for halogen bonding:                               0.00000000000000
  Electronic entropic energy:                                  -0.00000000000000
  Fermi energy:                                                -0.33704466679766

  Total energy:                                               -70.19136105996516
  Total energy (extrapolated to T->0):                        -70.19136105996516

 ENERGY| Total FORCE_EVAL ( QS ) energy [hartree]            -70.191361059965161

 OPT| **************************************************************************
 OPT| Step number                                                              2
 OPT| Optimization method                                                   BFGS
 OPT| Total energy [hartree]                                      -70.1913610600
 OPT| Internal pressure [bar]                                    8038.7799552047
 OPT| Effective energy change [hartree]                            -0.0108911613
 OPT| Predicted energy change [hartree]                            -0.0095296787
 OPT| Scaling factor                                                0.0000000000
 OPT| Step size                                                     0.0414969533
 OPT| Trust radius                                                  0.4724315332
 OPT| Decrease in energy                                                     YES
 OPT| Used time [s]                                                        1.450
 OPT|
 OPT| Maximum step size                                             0.0414969533
 OPT| Convergence limit for maximum step size                       0.0030000000
 OPT| Maximum step size is converged                                          NO
 OPT|
 OPT| RMS step size                                                 0.0107652492
 OPT| Convergence limit for RMS step size                           0.0015000000
 OPT| RMS step size is converged                                              NO
 OPT|
 OPT| Maximum gradient                                              0.0175988147
 OPT| Convergence limit for maximum gradient                        0.0004500000
 OPT| Maximum gradient is converged                                           NO
 OPT|
 OPT| RMS gradient                                                  0.0034770215
 OPT| Convergence limit for RMS gradient                            0.0003000000
 OPT| RMS gradient is converged                                               NO
 OPT|
 OPT| Pressure deviation [bar]                                   8038.7799552047
 OPT| Pressure tolerance [bar]                                    100.0000000000
 OPT| Pressure is converged                                                   NO
 OPT| **************************************************************************
 OPT| Estimated peak process memory after this step [MiB]                    172

 --------------------------
 OPTIMIZATION STEP:      3
 --------------------------

 CELL| Volume [angstrom^3]:                                           467.693189
 CELL| Vector a [angstrom]:       8.427     0.000     0.000   |a| =     8.426884
 CELL| Vector b [angstrom]:      -0.000     6.104     0.000   |b| =     6.103523
 CELL| Vector c [angstrom]:      -6.418     0.000     9.093   |c| =    11.129833
 CELL| Angle (b,c), alpha [degree]:                                    90.000000
 CELL| Angle (a,c), beta  [degree]:                                   125.213880
 CELL| Angle (a,b), gamma [degree]:                                    90.000000
 CELL| Numerically orthorhombic:                                              NO
 CELL| Periodicity                                                           XYZ

 Extrapolation method: ASPC

 Number of electrons:                                                        132
 Number of occupied orbitals:                                                 66
 Number of molecular orbitals:                                               132

 Number of orbital functions:                                                132
 Number of independent orbital functions:                                    132


 SCF WAVEFUNCTION OPTIMIZATION

  Step     Update method      Time    Convergence         Total energy    Change
  ------------------------------------------------------------------------------
     1 TBLite/Diag 0.40E+00    0.0     0.00799891       -70.1929089592 -7.02E+01
     2 TBLite/Diag 0.40E+00    0.0     0.00201639       -70.1929157666 -6.81E-06
     3 TBLite/Diag 0.40E+00    0.0     0.00270279       -70.1928776224  3.81E-05
     4 TBLite/Diag 0.40E+00    0.0     0.00182910       -70.1929265968 -4.90E-05
     5 TBLite/Diag 0.40E+00    0.0     0.00020400       -70.1929267052 -1.08E-07
     6 TBLite/Diag 0.40E+00    0.0     0.00008831       -70.1929267462 -4.10E-08
     7 TBLite/Diag 0.40E+00    0.0     0.00003466       -70.1929267555 -9.34E-09
     8 TBLite/Diag 0.40E+00    0.0     0.00001403       -70.1929267576 -2.12E-09
     9 TBLite/Diag 0.40E+00    0.0     0.00000471       -70.1929267578 -1.39E-10
    10 TBLite/Diag 0.40E+00    0.0     0.00000359       -70.1929267578 -4.40E-11
    11 TBLite/Diag 0.40E+00    0.0     0.00000199       -70.1929267578 -4.76E-12
    12 TBLite/Diag 0.40E+00    0.0     0.00000150       -70.1929267578 -2.90E-12
    13 TBLite/Diag 0.40E+00    0.0     0.00000054       -70.1929267578 -7.25E-13
    14 TBLite/Diag 0.40E+00    0.0     0.00000006       -70.1929267578 -1.14E-13
    15 TBLite/Diag 0.40E+00    0.0     0.00000004       -70.1929267578  9.95E-14
    16 TBLite/Diag 0.40E+00    0.0     0.00000003       -70.1929267578  1.42E-14
    17 TBLite/Diag 0.40E+00    0.0     2.5946E-09       -70.1929267578 -2.27E-13
    18 TBLite/Diag 0.40E+00    0.0     1.0204E-09       -70.1929267578  1.71E-13
    19 TBLite/Diag 0.40E+00    0.0     1.6517E-10       -70.1929267578 -1.42E-14

  *** SCF run converged in    19 steps ***


  Core Hamiltonian energy:                                    -71.52048662368830
  Repulsive potential energy:                                   1.39579077339004
  Electrostatic energy:                                         0.04984617428319
  Self-consistent dispersion energy:                           -0.14658878878960
  Non-self consistent dispersion energy:                        0.02851170696538
  Correction for halogen bonding:                               0.00000000000000
  Electronic entropic energy:                                  -0.00000000000000
  Fermi energy:                                                -0.33685968819840

  Total energy:                                               -70.19292675783930
  Total energy (extrapolated to T->0):                        -70.19292675783930

 ENERGY| Total FORCE_EVAL ( QS ) energy [hartree]            -70.192926757839302

 OPT| **************************************************************************
 OPT| Step number                                                              3
 OPT| Optimization method                                                   BFGS
 OPT| Total energy [hartree]                                      -70.1929267578
 OPT| Internal pressure [bar]                                   -1174.3302309097
 OPT| Effective energy change [hartree]                            -0.0015656979
 OPT| Predicted energy change [hartree]                            -0.0011556702
 OPT| Scaling factor                                                0.0000000000
 OPT| Step size                                                     0.0255916005
 OPT| Trust radius                                                  0.4724315332
 OPT| Decrease in energy                                                     YES
 OPT| Used time [s]                                                        1.460
 OPT|
 OPT| Maximum step size                                             0.0255916005
 OPT| Convergence limit for maximum step size                       0.0030000000
 OPT| Maximum step size is converged                                          NO
 OPT|
 OPT| RMS step size                                                 0.0045260273
 OPT| Convergence limit for RMS step size                           0.0015000000
 OPT| RMS step size is converged                                              NO
 OPT|
 OPT| Maximum gradient                                              0.0041418451
 OPT| Convergence limit for maximum gradient                        0.0004500000
 OPT| Maximum gradient is converged                                           NO
 OPT|
 OPT| RMS gradient                                                  0.0017248550
 OPT| Convergence limit for RMS gradient                            0.0003000000
 OPT| RMS gradient is converged                                               NO
 OPT|
 OPT| Pressure deviation [bar]                                  -1174.3302309097
 OPT| Pressure tolerance [bar]                                    100.0000000000
 OPT| Pressure is converged                                                   NO
 OPT| **************************************************************************
 OPT| Estimated peak process memory after this step [MiB]                    172

 --------------------------
 OPTIMIZATION STEP:      4
 --------------------------

 CELL| Volume [angstrom^3]:                                           468.193533
 CELL| Vector a [angstrom]:       8.426     0.000     0.000   |a| =     8.425728
 CELL| Vector b [angstrom]:      -0.000     6.111     0.000   |b| =     6.111015
 CELL| Vector c [angstrom]:      -6.417     0.000     9.093   |c| =    11.129159
 CELL| Angle (b,c), alpha [degree]:                                    90.000000
 CELL| Angle (a,c), beta  [degree]:                                   125.210617
 CELL| Angle (a,b), gamma [degree]:                                    90.000000
 CELL| Numerically orthorhombic:                                              NO
 CELL| Periodicity                                                           XYZ

 Extrapolation method: ASPC

 Number of electrons:                                                        132
 Number of occupied orbitals:                                                 66
 Number of molecular orbitals:                                               132

 Number of orbital functions:                                                132
 Number of independent orbital functions:                                    132


 SCF WAVEFUNCTION OPTIMIZATION

  Step     Update method      Time    Convergence         Total energy    Change
  ------------------------------------------------------------------------------
     1 TBLite/Diag 0.40E+00    0.0     0.00340901       -70.1934779922 -7.02E+01
     2 TBLite/Diag 0.40E+00    0.0     0.00104153       -70.1934807750 -2.78E-06
     3 TBLite/Diag 0.40E+00    0.0     0.00131358       -70.1934686425  1.21E-05
     4 TBLite/Diag 0.40E+00    0.0     0.00105564       -70.1934830692 -1.44E-05
     5 TBLite/Diag 0.40E+00    0.0     0.00014856       -70.1934832202 -1.51E-07
     6 TBLite/Diag 0.40E+00    0.0     0.00003252       -70.1934832338 -1.36E-08
     7 TBLite/Diag 0.40E+00    0.0     0.00002814       -70.1934832383 -4.52E-09
     8 TBLite/Diag 0.40E+00    0.0     0.00001890       -70.1934832395 -1.18E-09
     9 TBLite/Diag 0.40E+00    0.0     0.00000630       -70.1934832400 -4.68E-10
    10 TBLite/Diag 0.40E+00    0.0     0.00000170       -70.1934832400 -2.28E-11
    11 TBLite/Diag 0.40E+00    0.0     0.00000104       -70.1934832400 -1.28E-12
    12 TBLite/Diag 0.40E+00    0.0     0.00000093       -70.1934832400 -9.24E-13
    13 TBLite/Diag 0.40E+00    0.0     0.00000038       -70.1934832400 -2.98E-13
    14 TBLite/Diag 0.40E+00    0.0     0.00000004       -70.1934832400  1.42E-14
    15 TBLite/Diag 0.40E+00    0.0     0.00000002       -70.1934832400  2.84E-14
    16 TBLite/Diag 0.40E+00    0.0     0.00000001       -70.1934832400 -1.14E-13
    17 TBLite/Diag 0.40E+00    0.0     3.7500E-09       -70.1934832400 -8.53E-14
    18 TBLite/Diag 0.40E+00    0.0     9.8628E-10       -70.1934832400  1.28E-13

  *** SCF run converged in    18 steps ***


  Core Hamiltonian energy:                                    -71.51023068711223
  Repulsive potential energy:                                   1.38454960482806
  Electrostatic energy:                                         0.05020441726041
  Self-consistent dispersion energy:                           -0.14644779041550
  Non-self consistent dispersion energy:                        0.02844121546373
  Correction for halogen bonding:                               0.00000000000000
  Electronic entropic energy:                                  -0.00000000000000
  Fermi energy:                                                -0.33656328385067

  Total energy:                                               -70.19348323997552
  Total energy (extrapolated to T->0):                        -70.19348323997552

 ENERGY| Total FORCE_EVAL ( QS ) energy [hartree]            -70.193483239975521

 OPT| **************************************************************************
 OPT| Step number                                                              4
 OPT| Optimization method                                                   BFGS
 OPT| Total energy [hartree]                                      -70.1934832400
 OPT| Internal pressure [bar]                                   -5732.1976261165
 OPT| Effective energy change [hartree]                            -0.0005564821
 OPT| Predicted energy change [hartree]                            -0.0004152125
 OPT| Scaling factor                                                0.0000000000
 OPT| Step size                                                     0.0141581493
 OPT| Trust radius                                                  0.4724315332
 OPT| Decrease in energy                                                     YES
 OPT| Used time [s]                                                        1.452
 OPT|
 OPT| Maximum step size                                             0.0141581493
 OPT| Convergence limit for maximum step size                       0.0030000000
 OPT| Maximum step size is converged                                          NO
 OPT|
 OPT| RMS step size                                                 0.0034758146
 OPT| Convergence limit for RMS step size                           0.0015000000
 OPT| RMS step size is converged                                              NO
 OPT|
 OPT| Maximum gradient                                              0.0046243486
 OPT| Convergence limit for maximum gradient                        0.0004500000
 OPT| Maximum gradient is converged                                           NO
 OPT|
 OPT| RMS gradient                                                  0.0011744825
 OPT| Convergence limit for RMS gradient                            0.0003000000
 OPT| RMS gradient is converged                                               NO
 OPT|
 OPT| Pressure deviation [bar]                                  -5732.1976261165
 OPT| Pressure tolerance [bar]                                    100.0000000000
 OPT| Pressure is converged                                                   NO
 OPT| **************************************************************************
 OPT| Estimated peak process memory after this step [MiB]                    172

 --------------------------
 OPTIMIZATION STEP:      5
 --------------------------

 CELL| Volume [angstrom^3]:                                           468.030971
 CELL| Vector a [angstrom]:       8.423     0.000     0.000   |a| =     8.423430
 CELL| Vector b [angstrom]:      -0.000     6.113     0.000   |b| =     6.112574
 CELL| Vector c [angstrom]:      -6.415     0.000     9.090   |c| =    11.125706
 CELL| Angle (b,c), alpha [degree]:                                    90.000000
 CELL| Angle (a,c), beta  [degree]:                                   125.212179
 CELL| Angle (a,b), gamma [degree]:                                    90.000000
 CELL| Numerically orthorhombic:                                              NO
 CELL| Periodicity                                                           XYZ

 Extrapolation method: ASPC

 Number of electrons:                                                        132
 Number of occupied orbitals:                                                 66
 Number of molecular orbitals:                                               132

 Number of orbital functions:                                                132
 Number of independent orbital functions:                                    132


 SCF WAVEFUNCTION OPTIMIZATION

  Step     Update method      Time    Convergence         Total energy    Change
  ------------------------------------------------------------------------------
     1 TBLite/Diag 0.40E+00    0.0     0.00266367       -70.1937667564 -7.02E+01
     2 TBLite/Diag 0.40E+00    0.0     0.00058797       -70.1937677597 -1.00E-06
     3 TBLite/Diag 0.40E+00    0.0     0.00069629       -70.1937643549  3.40E-06
     4 TBLite/Diag 0.40E+00    0.0     0.00056151       -70.1937684070 -4.05E-06
     5 TBLite/Diag 0.40E+00    0.0     0.00009604       -70.1937684615 -5.45E-08
     6 TBLite/Diag 0.40E+00    0.0     0.00002522       -70.1937684718 -1.03E-08
     7 TBLite/Diag 0.40E+00    0.0     0.00001948       -70.1937684735 -1.73E-09
     8 TBLite/Diag 0.40E+00    0.0     0.00001425       -70.1937684746 -1.07E-09
     9 TBLite/Diag 0.40E+00    0.0     0.00000452       -70.1937684747 -1.25E-10
    10 TBLite/Diag 0.40E+00    0.0     0.00000189       -70.1937684747 -1.79E-11
    11 TBLite/Diag 0.40E+00    0.0     0.00000044       -70.1937684747 -5.54E-13
    12 TBLite/Diag 0.40E+00    0.0     0.00000047       -70.1937684747 -2.13E-13
    13 TBLite/Diag 0.40E+00    0.0     0.00000022       -70.1937684747 -5.68E-14
    14 TBLite/Diag 0.40E+00    0.0     0.00000003       -70.1937684747  5.68E-14
    15 TBLite/Diag 0.40E+00    0.0     7.8609E-09       -70.1937684747 -1.99E-13
    16 TBLite/Diag 0.40E+00    0.0     5.3714E-09       -70.1937684747  2.27E-13
    17 TBLite/Diag 0.40E+00    0.0     2.3907E-09       -70.1937684747 -1.28E-13
    18 TBLite/Diag 0.40E+00    0.0     9.4174E-10       -70.1937684747  9.95E-14

  *** SCF run converged in    18 steps ***


  Core Hamiltonian energy:                                    -71.50859390454784
  Repulsive potential energy:                                   1.38258458519332
  Electrostatic energy:                                         0.05030641713930
  Self-consistent dispersion energy:                           -0.14652554982257
  Non-self consistent dispersion energy:                        0.02845997732430
  Correction for halogen bonding:                               0.00000000000000
  Electronic entropic energy:                                  -0.00000000000000
  Fermi energy:                                                -0.33636544537526

  Total energy:                                               -70.19376847471348
  Total energy (extrapolated to T->0):                        -70.19376847471348

 ENERGY| Total FORCE_EVAL ( QS ) energy [hartree]            -70.193768474713480

 OPT| **************************************************************************
 OPT| Step number                                                              5
 OPT| Optimization method                                                   BFGS
 OPT| Total energy [hartree]                                      -70.1937684747
 OPT| Internal pressure [bar]                                   -6443.6798341252
 OPT| Effective energy change [hartree]                            -0.0002852347
 OPT| Predicted energy change [hartree]                            -0.0001837511
 OPT| Scaling factor                                                0.0000000000
 OPT| Step size                                                     0.0056616108
 OPT| Trust radius                                                  0.4724315332
 OPT| Decrease in energy                                                     YES
 OPT| Used time [s]                                                        1.450
 OPT|
 OPT| Maximum step size                                             0.0056616108
 OPT| Convergence limit for maximum step size                       0.0030000000
 OPT| Maximum step size is converged                                          NO
 OPT|
 OPT| RMS step size                                                 0.0026506355
 OPT| Convergence limit for RMS step size                           0.0015000000
 OPT| RMS step size is converged                                              NO
 OPT|
 OPT| Maximum gradient                                              0.0058876223
 OPT| Convergence limit for maximum gradient                        0.0004500000
 OPT| Maximum gradient is converged                                           NO
 OPT|
 OPT| RMS gradient                                                  0.0010968640
 OPT| Convergence limit for RMS gradient                            0.0003000000
 OPT| RMS gradient is converged                                               NO
 OPT|
 OPT| Pressure deviation [bar]                                  -6443.6798341252
 OPT| Pressure tolerance [bar]                                    100.0000000000
 OPT| Pressure is converged                                                   NO
 OPT| **************************************************************************
 OPT| Estimated peak process memory after this step [MiB]                    173

 --------------------------
 OPTIMIZATION STEP:      6
 --------------------------

 CELL| Volume [angstrom^3]:                                           467.163716
 CELL| Vector a [angstrom]:       8.418     0.000     0.000   |a| =     8.417809
 CELL| Vector b [angstrom]:      -0.000     6.110     0.000   |b| =     6.110301
 CELL| Vector c [angstrom]:      -6.412     0.000     9.083   |c| =    11.117638
 CELL| Angle (b,c), alpha [degree]:                                    90.000000
 CELL| Angle (a,c), beta  [degree]:                                   125.219470
 CELL| Angle (a,b), gamma [degree]:                                    90.000000
 CELL| Numerically orthorhombic:                                              NO
 CELL| Periodicity                                                           XYZ

 Extrapolation method: ASPC

 Number of electrons:                                                        132
 Number of occupied orbitals:                                                 66
 Number of molecular orbitals:                                               132

 Number of orbital functions:                                                132
 Number of independent orbital functions:                                    132


 SCF WAVEFUNCTION OPTIMIZATION

  Step     Update method      Time    Convergence         Total energy    Change
  ------------------------------------------------------------------------------
     1 TBLite/Diag 0.40E+00    0.0     0.00487616       -70.1941458373 -7.02E+01
     2 TBLite/Diag 0.40E+00    0.0     0.00060841       -70.1941476181 -1.78E-06
     3 TBLite/Diag 0.40E+00    0.0     0.00096172       -70.1941419139  5.70E-06
     4 TBLite/Diag 0.40E+00    0.0     0.00074926       -70.1941486703 -6.76E-06
     5 TBLite/Diag 0.40E+00    0.0     0.00013261       -70.1941487478 -7.75E-08
     6 TBLite/Diag 0.40E+00    0.0     0.00004285       -70.1941487723 -2.44E-08
     7 TBLite/Diag 0.40E+00    0.0     0.00003174       -70.1941487759 -3.63E-09
     8 TBLite/Diag 0.40E+00    0.0     0.00002161       -70.1941487791 -3.22E-09
     9 TBLite/Diag 0.40E+00    0.0     0.00000460       -70.1941487792 -1.09E-10
    10 TBLite/Diag 0.40E+00    0.0     0.00000202       -70.1941487793 -3.78E-11
    11 TBLite/Diag 0.40E+00    0.0     0.00000048       -70.1941487793 -8.67E-13
    12 TBLite/Diag 0.40E+00    0.0     0.00000051       -70.1941487793 -3.13E-13
    13 TBLite/Diag 0.40E+00    0.0     0.00000029       -70.1941487793 -1.99E-13
    14 TBLite/Diag 0.40E+00    0.0     0.00000004       -70.1941487793 -8.53E-14
    15 TBLite/Diag 0.40E+00    0.0     8.8817E-09       -70.1941487793  8.53E-14
    16 TBLite/Diag 0.40E+00    0.0     4.5162E-09       -70.1941487793 -4.26E-14
    17 TBLite/Diag 0.40E+00    0.0     2.6192E-09       -70.1941487793  0.00E+00
    18 TBLite/Diag 0.40E+00    0.0     3.6530E-10       -70.1941487793  4.26E-14

  *** SCF run converged in    18 steps ***


  Core Hamiltonian energy:                                    -71.51172978783316
  Repulsive potential energy:                                   1.38556866044723
  Electrostatic energy:                                         0.05029831615634
  Self-consistent dispersion energy:                           -0.14684734308388
  Non-self consistent dispersion energy:                        0.02856137505681
  Correction for halogen bonding:                               0.00000000000000
  Electronic entropic energy:                                  -0.00000000000000
  Fermi energy:                                                -0.33617731198411

  Total energy:                                               -70.19414877925665
  Total energy (extrapolated to T->0):                        -70.19414877925665

 ENERGY| Total FORCE_EVAL ( QS ) energy [hartree]            -70.194148779256651

 OPT| **************************************************************************
 OPT| Step number                                                              6
 OPT| Optimization method                                                   BFGS
 OPT| Total energy [hartree]                                      -70.1941487793
 OPT| Internal pressure [bar]                                   -5031.3849747653
 OPT| Effective energy change [hartree]                            -0.0003803045
 OPT| Predicted energy change [hartree]                            -0.0002692686
 OPT| Scaling factor                                                0.0000000000
 OPT| Step size                                                     0.0139986646
 OPT| Trust radius                                                  0.4724315332
 OPT| Decrease in energy                                                     YES
 OPT| Used time [s]                                                        1.451
 OPT|
 OPT| Maximum step size                                             0.0139986646
 OPT| Convergence limit for maximum step size                       0.0030000000
 OPT| Maximum step size is converged                                          NO
 OPT|
 OPT| RMS step size                                                 0.0046921643
 OPT| Convergence limit for RMS step size                           0.0015000000
 OPT| RMS step size is converged                                              NO
 OPT|
 OPT| Maximum gradient                                              0.0063312036
 OPT| Convergence limit for maximum gradient                        0.0004500000
 OPT| Maximum gradient is converged                                           NO
 OPT|
 OPT| RMS gradient                                                  0.0010752816
 OPT| Convergence limit for RMS gradient                            0.0003000000
 OPT| RMS gradient is converged                                               NO
 OPT|
 OPT| Pressure deviation [bar]                                  -5031.3849747653
 OPT| Pressure tolerance [bar]                                    100.0000000000
 OPT| Pressure is converged                                                   NO
 OPT| **************************************************************************
 OPT| Estimated peak process memory after this step [MiB]                    173

 --------------------------
 OPTIMIZATION STEP:      7
 --------------------------

 CELL| Volume [angstrom^3]:                                           466.025676
 CELL| Vector a [angstrom]:       8.412     0.000     0.000   |a| =     8.411656
 CELL| Vector b [angstrom]:      -0.000     6.105     0.000   |b| =     6.104651
 CELL| Vector c [angstrom]:      -6.409     0.000     9.075   |c| =    11.110334
 CELL| Angle (b,c), alpha [degree]:                                    90.000000
 CELL| Angle (a,c), beta  [degree]:                                   125.229664
 CELL| Angle (a,b), gamma [degree]:                                    90.000000
 CELL| Numerically orthorhombic:                                              NO
 CELL| Periodicity                                                           XYZ

 Extrapolation method: ASPC

 Number of electrons:                                                        132
 Number of occupied orbitals:                                                 66
 Number of molecular orbitals:                                               132

 Number of orbital functions:                                                132
 Number of independent orbital functions:                                    132


 SCF WAVEFUNCTION OPTIMIZATION

  Step     Update method      Time    Convergence         Total energy    Change
  ------------------------------------------------------------------------------
     1 TBLite/Diag 0.40E+00    0.0     0.00450288       -70.1943890486 -7.02E+01
     2 TBLite/Diag 0.40E+00    0.0     0.00017958       -70.1943897045 -6.56E-07
     3 TBLite/Diag 0.40E+00    0.0     0.00049464       -70.1943884194  1.29E-06
     4 TBLite/Diag 0.40E+00    0.0     0.00038131       -70.1943900440 -1.62E-06
     5 TBLite/Diag 0.40E+00    0.0     0.00009236       -70.1943900775 -3.34E-08
     6 TBLite/Diag 0.40E+00    0.0     0.00003503       -70.1943900901 -1.27E-08
     7 TBLite/Diag 0.40E+00    0.0     0.00002035       -70.1943900916 -1.44E-09
     8 TBLite/Diag 0.40E+00    0.0     0.00001414       -70.1943900930 -1.42E-09
     9 TBLite/Diag 0.40E+00    0.0     0.00000281       -70.1943900930 -3.20E-11
    10 TBLite/Diag 0.40E+00    0.0     0.00000138       -70.1943900930 -1.47E-11
    11 TBLite/Diag 0.40E+00    0.0     0.00000036       -70.1943900930 -7.11E-14
    12 TBLite/Diag 0.40E+00    0.0     0.00000024       -70.1943900930 -1.42E-14
    13 TBLite/Diag 0.40E+00    0.0     0.00000014       -70.1943900930 -1.85E-13
    14 TBLite/Diag 0.40E+00    0.0     0.00000005       -70.1943900930  1.28E-13
    15 TBLite/Diag 0.40E+00    0.0     6.3141E-09       -70.1943900930 -4.26E-14
    16 TBLite/Diag 0.40E+00    0.0     1.8024E-09       -70.1943900930  7.11E-14
    17 TBLite/Diag 0.40E+00    0.0     1.2734E-09       -70.1943900930 -1.42E-14
    18 TBLite/Diag 0.40E+00    0.0     8.9564E-10       -70.1943900930 -4.26E-14

  *** SCF run converged in    18 steps ***


  Core Hamiltonian energy:                                    -71.51796625453710
  Repulsive potential energy:                                   1.39195981337818
  Electrostatic energy:                                         0.05016087925646
  Self-consistent dispersion energy:                           -0.14724557956788
  Non-self consistent dispersion energy:                        0.02870104844119
  Correction for halogen bonding:                               0.00000000000000
  Electronic entropic energy:                                  -0.00000000000000
  Fermi energy:                                                -0.33617423200250

  Total energy:                                               -70.19439009302914
  Total energy (extrapolated to T->0):                        -70.19439009302914

 ENERGY| Total FORCE_EVAL ( QS ) energy [hartree]            -70.194390093029142

 OPT| **************************************************************************
 OPT| Step number                                                              7
 OPT| Optimization method                                                   BFGS
 OPT| Total energy [hartree]                                      -70.1943900930
 OPT| Internal pressure [bar]                                   -2272.5824778898
 OPT| Effective energy change [hartree]                            -0.0002413138
 OPT| Predicted energy change [hartree]                            -0.0001755980
 OPT| Scaling factor                                                0.0000000000
 OPT| Step size                                                     0.0134297183
 OPT| Trust radius                                                  0.4724315332
 OPT| Decrease in energy                                                     YES
 OPT| Used time [s]                                                        1.455
 OPT|
 OPT| Maximum step size                                             0.0134297183
 OPT| Convergence limit for maximum step size                       0.0030000000
 OPT| Maximum step size is converged                                          NO
 OPT|
 OPT| RMS step size                                                 0.0040483705
 OPT| Convergence limit for RMS step size                           0.0015000000
 OPT| RMS step size is converged                                              NO
 OPT|
 OPT| Maximum gradient                                              0.0040106807
 OPT| Convergence limit for maximum gradient                        0.0004500000
 OPT| Maximum gradient is converged                                           NO
 OPT|
 OPT| RMS gradient                                                  0.0008494208
 OPT| Convergence limit for RMS gradient                            0.0003000000
 OPT| RMS gradient is converged                                               NO
 OPT|
 OPT| Pressure deviation [bar]                                  -2272.5824778898
 OPT| Pressure tolerance [bar]                                    100.0000000000
 OPT| Pressure is converged                                                   NO
 OPT| **************************************************************************
 OPT| Estimated peak process memory after this step [MiB]                    173

 --------------------------
 OPTIMIZATION STEP:      8
 --------------------------

 CELL| Volume [angstrom^3]:                                           465.083260
 CELL| Vector a [angstrom]:       8.406     0.000     0.000   |a| =     8.406478
 CELL| Vector b [angstrom]:      -0.000     6.099     0.000   |b| =     6.098830
 CELL| Vector c [angstrom]:      -6.408     0.000     9.071   |c| =    11.106641
 CELL| Angle (b,c), alpha [degree]:                                    90.000000
 CELL| Angle (a,c), beta  [degree]:                                   125.239555
 CELL| Angle (a,b), gamma [degree]:                                    90.000000
 CELL| Numerically orthorhombic:                                              NO
 CELL| Periodicity                                                           XYZ

 Extrapolation method: ASPC

 Number of electrons:                                                        132
 Number of occupied orbitals:                                                 66
 Number of molecular orbitals:                                               132

 Number of orbital functions:                                                132
 Number of independent orbital functions:                                    132


 SCF WAVEFUNCTION OPTIMIZATION

  Step     Update method      Time    Convergence         Total energy    Change
  ------------------------------------------------------------------------------
     1 TBLite/Diag 0.40E+00    0.0     0.00287833       -70.1945201754 -7.02E+01
     2 TBLite/Diag 0.40E+00    0.0     0.00019076       -70.1945203695 -1.94E-07
     3 TBLite/Diag 0.40E+00    0.0     0.00023172       -70.1945201028  2.67E-07
     4 TBLite/Diag 0.40E+00    0.0     0.00018827       -70.1945204595 -3.57E-07
     5 TBLite/Diag 0.40E+00    0.0     0.00003704       -70.1945204653 -5.75E-09
     6 TBLite/Diag 0.40E+00    0.0     0.00001566       -70.1945204683 -3.03E-09
     7 TBLite/Diag 0.40E+00    0.0     0.00000523       -70.1945204686 -2.54E-10
     8 TBLite/Diag 0.40E+00    0.0     0.00000323       -70.1945204687 -7.84E-11
     9 TBLite/Diag 0.40E+00    0.0     0.00000188       -70.1945204687 -1.70E-11
    10 TBLite/Diag 0.40E+00    0.0     0.00000054       -70.1945204687 -3.52E-12
    11 TBLite/Diag 0.40E+00    0.0     0.00000013       -70.1945204687  4.26E-14
    12 TBLite/Diag 0.40E+00    0.0     0.00000006       -70.1945204687 -1.56E-13
    13 TBLite/Diag 0.40E+00    0.0     0.00000006       -70.1945204687  0.00E+00
    14 TBLite/Diag 0.40E+00    0.0     0.00000004       -70.1945204687 -1.42E-14
    15 TBLite/Diag 0.40E+00    0.0     3.2135E-09       -70.1945204687  8.53E-14
    16 TBLite/Diag 0.40E+00    0.0     2.2720E-09       -70.1945204687  4.26E-14
    17 TBLite/Diag 0.40E+00    0.0     1.3590E-09       -70.1945204687 -2.42E-13
    18 TBLite/Diag 0.40E+00    0.0     1.4252E-10       -70.1945204687  1.28E-13

  *** SCF run converged in    18 steps ***


  Core Hamiltonian energy:                                    -71.52302956683076
  Repulsive potential energy:                                   1.39724761926224
  Electrostatic energy:                                         0.05001281202000
  Self-consistent dispersion energy:                           -0.14756746247827
  Non-self consistent dispersion energy:                        0.02881612934141
  Correction for halogen bonding:                               0.00000000000000
  Electronic entropic energy:                                  -0.00000000000000
  Fermi energy:                                                -0.33628523291646

  Total energy:                                               -70.19452046868537
  Total energy (extrapolated to T->0):                        -70.19452046868537

 ENERGY| Total FORCE_EVAL ( QS ) energy [hartree]            -70.194520468685369

 OPT| **************************************************************************
 OPT| Step number                                                              8
 OPT| Optimization method                                                   BFGS
 OPT| Total energy [hartree]                                      -70.1945204687
 OPT| Internal pressure [bar]                                     -83.4179568778
 OPT| Effective energy change [hartree]                            -0.0001303757
 OPT| Predicted energy change [hartree]                            -0.0000961952
 OPT| Scaling factor                                                0.0000000000
 OPT| Step size                                                     0.0110017773
 OPT| Trust radius                                                  0.4724315332
 OPT| Decrease in energy                                                     YES
 OPT| Used time [s]                                                        1.460
 OPT|
 OPT| Maximum step size                                             0.0110017773
 OPT| Convergence limit for maximum step size                       0.0030000000
 OPT| Maximum step size is converged                                          NO
 OPT|
 OPT| RMS step size                                                 0.0026669320
 OPT| Convergence limit for RMS step size                           0.0015000000
 OPT| RMS step size is converged                                              NO
 OPT|
 OPT| Maximum gradient                                              0.0021464935
 OPT| Convergence limit for maximum gradient                        0.0004500000
 OPT| Maximum gradient is converged                                           NO
 OPT|
 OPT| RMS gradient                                                  0.0005895877
 OPT| Convergence limit for RMS gradient                            0.0003000000
 OPT| RMS gradient is converged                                               NO
 OPT|
 OPT| Pressure deviation [bar]                                    -83.4179568778
 OPT| Pressure tolerance [bar]                                    100.0000000000
 OPT| Pressure is converged                                                  YES
 OPT| **************************************************************************
 OPT| Estimated peak process memory after this step [MiB]                    173

 --------------------------
 OPTIMIZATION STEP:      9
 --------------------------

 CELL| Volume [angstrom^3]:                                           464.476634
 CELL| Vector a [angstrom]:       8.402     0.000     0.000   |a| =     8.402340
 CELL| Vector b [angstrom]:      -0.000     6.095     0.000   |b| =     6.094717
 CELL| Vector c [angstrom]:      -6.410     0.000     9.070   |c| =    11.106273
 CELL| Angle (b,c), alpha [degree]:                                    90.000000
 CELL| Angle (a,c), beta  [degree]:                                   125.248080
 CELL| Angle (a,b), gamma [degree]:                                    90.000000
 CELL| Numerically orthorhombic:                                              NO
 CELL| Periodicity                                                           XYZ

 Extrapolation method: ASPC

 Number of electrons:                                                        132
 Number of occupied orbitals:                                                 66
 Number of molecular orbitals:                                               132

 Number of orbital functions:                                                132
 Number of independent orbital functions:                                    132


 SCF WAVEFUNCTION OPTIMIZATION

  Step     Update method      Time    Convergence         Total energy    Change
  ------------------------------------------------------------------------------
     1 TBLite/Diag 0.40E+00    0.0     0.00138232       -70.1945965436 -7.02E+01
     2 TBLite/Diag 0.40E+00    0.0     0.00018528       -70.1945966635 -1.20E-07
     3 TBLite/Diag 0.40E+00    0.0     0.00033148       -70.1945960581  6.05E-07
     4 TBLite/Diag 0.40E+00    0.0     0.00026471       -70.1945967555 -6.97E-07
     5 TBLite/Diag 0.40E+00    0.0     0.00002758       -70.1945967615 -5.99E-09
     6 TBLite/Diag 0.40E+00    0.0     0.00000670       -70.1945967620 -5.16E-10
     7 TBLite/Diag 0.40E+00    0.0     0.00000243       -70.1945967620 -2.27E-11
     8 TBLite/Diag 0.40E+00    0.0     0.00000155       -70.1945967620 -1.91E-11
     9 TBLite/Diag 0.40E+00    0.0     0.00000042       -70.1945967620 -2.13E-13
    10 TBLite/Diag 0.40E+00    0.0     0.00000026       -70.1945967620 -3.27E-13
    11 TBLite/Diag 0.40E+00    0.0     0.00000006       -70.1945967620  2.84E-14
    12 TBLite/Diag 0.40E+00    0.0     0.00000007       -70.1945967620 -4.26E-14
    13 TBLite/Diag 0.40E+00    0.0     0.00000004       -70.1945967620  8.53E-14
    14 TBLite/Diag 0.40E+00    0.0     0.00000002       -70.1945967620  7.11E-14
    15 TBLite/Diag 0.40E+00    0.0     4.2626E-09       -70.1945967620 -5.68E-14
    16 TBLite/Diag 0.40E+00    0.0     2.2733E-09       -70.1945967620 -8.53E-14
    17 TBLite/Diag 0.40E+00    0.0     9.5029E-10       -70.1945967620  1.42E-14

  *** SCF run converged in    17 steps ***


  Core Hamiltonian energy:                                    -71.52479167128078
  Repulsive potential energy:                                   1.39913937995973
  Electrostatic energy:                                         0.04994102256270
  Self-consistent dispersion energy:                           -0.14777707319661
  Non-self consistent dispersion energy:                        0.02889157990644
  Correction for halogen bonding:                               0.00000000000000
  Electronic entropic energy:                                  -0.00000000000000
  Fermi energy:                                                -0.33640327913721

  Total energy:                                               -70.19459676204850
  Total energy (extrapolated to T->0):                        -70.19459676204850

 ENERGY| Total FORCE_EVAL ( QS ) energy [hartree]            -70.194596762048505

 OPT| **************************************************************************
 OPT| Step number                                                              9
 OPT| Optimization method                                                   BFGS
 OPT| Total energy [hartree]                                      -70.1945967620
 OPT| Internal pressure [bar]                                     653.9068589325
 OPT| Effective energy change [hartree]                            -0.0000762934
 OPT| Predicted energy change [hartree]                            -0.0000515353
 OPT| Scaling factor                                                0.0000000000
 OPT| Step size                                                     0.0078198949
 OPT| Trust radius                                                  0.4724315332
 OPT| Decrease in energy                                                     YES
 OPT| Used time [s]                                                        1.454
 OPT|
 OPT| Maximum step size                                             0.0078198949
 OPT| Convergence limit for maximum step size                       0.0030000000
 OPT| Maximum step size is converged                                          NO
 OPT|
 OPT| RMS step size                                                 0.0017215555
 OPT| Convergence limit for RMS step size                           0.0015000000
 OPT| RMS step size is converged                                              NO
 OPT|
 OPT| Maximum gradient                                              0.0020275425
 OPT| Convergence limit for maximum gradient                        0.0004500000
 OPT| Maximum gradient is converged                                           NO
 OPT|
 OPT| RMS gradient                                                  0.0005607191
 OPT| Convergence limit for RMS gradient                            0.0003000000
 OPT| RMS gradient is converged                                               NO
 OPT|
 OPT| Pressure deviation [bar]                                    653.9068589325
 OPT| Pressure tolerance [bar]                                    100.0000000000
 OPT| Pressure is converged                                                   NO
 OPT| **************************************************************************
 OPT| Estimated peak process memory after this step [MiB]                    173

 --------------------------
 OPTIMIZATION STEP:     10
 --------------------------

 CELL| Volume [angstrom^3]:                                           463.672064
 CELL| Vector a [angstrom]:       8.396     0.000     0.000   |a| =     8.395572
 CELL| Vector b [angstrom]:      -0.000     6.089     0.000   |b| =     6.089379
 CELL| Vector c [angstrom]:      -6.413     0.000     9.070   |c| =    11.107653
 CELL| Angle (b,c), alpha [degree]:                                    90.000000
 CELL| Angle (a,c), beta  [degree]:                                   125.262344
 CELL| Angle (a,b), gamma [degree]:                                    90.000000
 CELL| Numerically orthorhombic:                                              NO
 CELL| Periodicity                                                           XYZ

 Extrapolation method: ASPC

 Number of electrons:                                                        132
 Number of occupied orbitals:                                                 66
 Number of molecular orbitals:                                               132

 Number of orbital functions:                                                132
 Number of independent orbital functions:                                    132


 SCF WAVEFUNCTION OPTIMIZATION

  Step     Update method      Time    Convergence         Total energy    Change
  ------------------------------------------------------------------------------
     1 TBLite/Diag 0.40E+00    0.0     0.00227514       -70.1946926049 -7.02E+01
     2 TBLite/Diag 0.40E+00    0.0     0.00021108       -70.1946928004 -1.96E-07
     3 TBLite/Diag 0.40E+00    0.0     0.00048587       -70.1946914090  1.39E-06
     4 TBLite/Diag 0.40E+00    0.0     0.00037313       -70.1946930025 -1.59E-06
     5 TBLite/Diag 0.40E+00    0.0     0.00002260       -70.1946930067 -4.15E-09
     6 TBLite/Diag 0.40E+00    0.0     0.00000861       -70.1946930076 -9.69E-10
     7 TBLite/Diag 0.40E+00    0.0     0.00000410       -70.1946930077 -4.84E-11
     8 TBLite/Diag 0.40E+00    0.0     0.00000291       -70.1946930077 -5.49E-11
     9 TBLite/Diag 0.40E+00    0.0     0.00000100       -70.1946930077 -2.19E-12
    10 TBLite/Diag 0.40E+00    0.0     0.00000061       -70.1946930077 -4.36E-12
    11 TBLite/Diag 0.40E+00    0.0     0.00000018       -70.1946930077 -8.53E-14
    12 TBLite/Diag 0.40E+00    0.0     0.00000020       -70.1946930077 -1.42E-14
    13 TBLite/Diag 0.40E+00    0.0     0.00000011       -70.1946930077  0.00E+00
    14 TBLite/Diag 0.40E+00    0.0     0.00000003       -70.1946930077  1.14E-13
    15 TBLite/Diag 0.40E+00    0.0     6.1746E-09       -70.1946930077 -1.71E-13
    16 TBLite/Diag 0.40E+00    0.0     2.8236E-09       -70.1946930077  1.42E-14
    17 TBLite/Diag 0.40E+00    0.0     1.2727E-09       -70.1946930077  2.84E-14
    18 TBLite/Diag 0.40E+00    0.0     4.9615E-10       -70.1946930077  9.95E-14

  *** SCF run converged in    18 steps ***


  Core Hamiltonian energy:                                    -71.52452984988544
  Repulsive potential energy:                                   1.39899253935492
  Electrostatic energy:                                         0.04991523473332
  Self-consistent dispersion energy:                           -0.14806690327186
  Non-self consistent dispersion energy:                        0.02899597132775
  Correction for halogen bonding:                               0.00000000000000
  Electronic entropic energy:                                  -0.00000000000000
  Fermi energy:                                                -0.33655897375895

  Total energy:                                               -70.19469300774129
  Total energy (extrapolated to T->0):                        -70.19469300774129

 ENERGY| Total FORCE_EVAL ( QS ) energy [hartree]            -70.194693007741293

 OPT| **************************************************************************
 OPT| Step number                                                             10
 OPT| Optimization method                                                   BFGS
 OPT| Total energy [hartree]                                      -70.1946930077
 OPT| Internal pressure [bar]                                     546.8097035257
 OPT| Effective energy change [hartree]                            -0.0000962457
 OPT| Predicted energy change [hartree]                            -0.0000675955
 OPT| Scaling factor                                                0.0000000000
 OPT| Step size                                                     0.0127892749
 OPT| Trust radius                                                  0.4724315332
 OPT| Decrease in energy                                                     YES
 OPT| Used time [s]                                                        1.467
 OPT|
 OPT| Maximum step size                                             0.0127892749
 OPT| Convergence limit for maximum step size                       0.0030000000
 OPT| Maximum step size is converged                                          NO
 OPT|
 OPT| RMS step size                                                 0.0026034011
 OPT| Convergence limit for RMS step size                           0.0015000000
 OPT| RMS step size is converged                                              NO
 OPT|
 OPT| Maximum gradient                                              0.0016875218
 OPT| Convergence limit for maximum gradient                        0.0004500000
 OPT| Maximum gradient is converged                                           NO
 OPT|
 OPT| RMS gradient                                                  0.0006894703
 OPT| Convergence limit for RMS gradient                            0.0003000000
 OPT| RMS gradient is converged                                               NO
 OPT|
 OPT| Pressure deviation [bar]                                    546.8097035257
 OPT| Pressure tolerance [bar]                                    100.0000000000
 OPT| Pressure is converged                                                   NO
 OPT| **************************************************************************
 OPT| Estimated peak process memory after this step [MiB]                    173

 --------------------------
 OPTIMIZATION STEP:     11
 --------------------------

 CELL| Volume [angstrom^3]:                                           462.415448
 CELL| Vector a [angstrom]:       8.384     0.000     0.000   |a| =     8.383954
 CELL| Vector b [angstrom]:      -0.000     6.081     0.000   |b| =     6.081462
 CELL| Vector c [angstrom]:      -6.418     0.000     9.069   |c| =    11.110782
 CELL| Angle (b,c), alpha [degree]:                                    90.000000
 CELL| Angle (a,c), beta  [degree]:                                   125.287432
 CELL| Angle (a,b), gamma [degree]:                                    90.000000
 CELL| Numerically orthorhombic:                                              NO
 CELL| Periodicity                                                           XYZ

 Extrapolation method: ASPC

 Number of electrons:                                                        132
 Number of occupied orbitals:                                                 66
 Number of molecular orbitals:                                               132

 Number of orbital functions:                                                132
 Number of independent orbital functions:                                    132


 SCF WAVEFUNCTION OPTIMIZATION

  Step     Update method      Time    Convergence         Total energy    Change
  ------------------------------------------------------------------------------
     1 TBLite/Diag 0.40E+00    0.0     0.00373565       -70.1948352023 -7.02E+01
     2 TBLite/Diag 0.40E+00    0.0     0.00024365       -70.1948354396 -2.37E-07
     3 TBLite/Diag 0.40E+00    0.0     0.00059865       -70.1948333674  2.07E-06
     4 TBLite/Diag 0.40E+00    0.0     0.00045135       -70.1948357165 -2.35E-06
     5 TBLite/Diag 0.40E+00    0.0     0.00002248       -70.1948357209 -4.39E-09
     6 TBLite/Diag 0.40E+00    0.0     0.00000893       -70.1948357223 -1.37E-09
     7 TBLite/Diag 0.40E+00    0.0     0.00000525       -70.1948357224 -1.28E-10
     8 TBLite/Diag 0.40E+00    0.0     0.00000303       -70.1948357225 -6.64E-11
     9 TBLite/Diag 0.40E+00    0.0     0.00000121       -70.1948357225 -7.73E-12
    10 TBLite/Diag 0.40E+00    0.0     0.00000085       -70.1948357225 -1.59E-12
    11 TBLite/Diag 0.40E+00    0.0     0.00000039       -70.1948357225 -3.98E-13
    12 TBLite/Diag 0.40E+00    0.0     0.00000021       -70.1948357225  1.42E-14
    13 TBLite/Diag 0.40E+00    0.0     0.00000010       -70.1948357225 -4.26E-14
    14 TBLite/Diag 0.40E+00    0.0     0.00000002       -70.1948357225 -1.42E-14
[...]
 CELL| Angle (b,c), alpha [degree]:                                    90.000001
 CELL| Angle (a,c), beta  [degree]:                                   114.825998
 CELL| Angle (a,b), gamma [degree]:                                    89.999997
 CELL| Numerically orthorhombic:                                              NO
 CELL| Periodicity                                                           XYZ

 Extrapolation method: ASPC

 Number of electrons:                                                        132
 Number of occupied orbitals:                                                 66
 Number of molecular orbitals:                                               132

 Number of orbital functions:                                                132
 Number of independent orbital functions:                                    132


 SCF WAVEFUNCTION OPTIMIZATION

  Step     Update method      Time    Convergence         Total energy    Change
  ------------------------------------------------------------------------------
     1 TBLite/Diag 0.40E+00    0.0     0.00044265       -70.3796370033 -7.04E+01
     2 TBLite/Diag 0.40E+00    0.0     0.00011298       -70.3796370108 -7.57E-09
     3 TBLite/Diag 0.40E+00    0.0     0.00011320       -70.3796370042  6.63E-09
     4 TBLite/Diag 0.40E+00    0.0     0.00006958       -70.3796370165 -1.23E-08
     5 TBLite/Diag 0.40E+00    0.0     0.00000242       -70.3796370166 -7.17E-11
     6 TBLite/Diag 0.40E+00    0.0     0.00000346       -70.3796370167 -9.34E-11
     7 TBLite/Diag 0.40E+00    0.0     0.00000204       -70.3796370167 -3.68E-11
     8 TBLite/Diag 0.40E+00    0.0     0.00000211       -70.3796370168 -2.29E-11
     9 TBLite/Diag 0.40E+00    0.0     0.00000070       -70.3796370168 -1.12E-12
    10 TBLite/Diag 0.40E+00    0.0     0.00000018       -70.3796370168 -1.85E-13
    11 TBLite/Diag 0.40E+00    0.0     0.00000005       -70.3796370168  1.28E-13
    12 TBLite/Diag 0.40E+00    0.0     9.2992E-09       -70.3796370168 -2.42E-13
    13 TBLite/Diag 0.40E+00    0.0     4.3909E-09       -70.3796370168  1.14E-13
    14 TBLite/Diag 0.40E+00    0.0     2.5411E-09       -70.3796370168  4.26E-14
    15 TBLite/Diag 0.40E+00    0.0     1.7004E-09       -70.3796370168  1.14E-13
    16 TBLite/Diag 0.40E+00    0.0     4.0335E-10       -70.3796370168 -1.42E-13

  *** SCF run converged in    16 steps ***


  Core Hamiltonian energy:                                    -71.54680039977562
  Repulsive potential energy:                                   1.25527943030328
  Electrostatic energy:                                         0.03800261934580
  Self-consistent dispersion energy:                           -0.16371221670037
  Non-self consistent dispersion energy:                        0.03759355005784
  Correction for halogen bonding:                               0.00000000000000
  Electronic entropic energy:                                  -0.00000000000000
  Fermi energy:                                                -0.27443587546973

  Total energy:                                               -70.37963701676910
  Total energy (extrapolated to T->0):                        -70.37963701676910

 ENERGY| Total FORCE_EVAL ( QS ) energy [hartree]            -70.379637016769095

 OPT| **************************************************************************
 OPT| Step number                                                            167
 OPT| Optimization method                                                   BFGS
 OPT| Total energy [hartree]                                      -70.3796370168
 OPT| Internal pressure [bar]                                     -65.2061036537
 OPT| Effective energy change [hartree]                            -0.0000008102
 OPT| Predicted energy change [hartree]                            -0.0000003412
 OPT| Scaling factor                                                0.8837408613
 OPT| Step size                                                     0.0008439067
 OPT| Trust radius                                                  0.4724315332
 OPT| Decrease in energy                                                      NO
 OPT| Used time [s]                                                        1.986
 OPT|
 OPT| Maximum step size                                             0.0008439067
 OPT| Convergence limit for maximum step size                       0.0030000000
 OPT| Maximum step size is converged                                         YES
 OPT|
 OPT| RMS step size                                                 0.0003342885
 OPT| Convergence limit for RMS step size                           0.0015000000
 OPT| RMS step size is converged                                             YES
 OPT|
 OPT| Maximum gradient                                              0.0001097361
 OPT| Convergence limit for maximum gradient                        0.0004500000
 OPT| Maximum gradient is converged                                          YES
 OPT|
 OPT| RMS gradient                                                  0.0000399365
 OPT| Convergence limit for RMS gradient                            0.0003000000
 OPT| RMS gradient is converged                                              YES
 OPT|
 OPT| Pressure deviation [bar]                                    -65.2061036537
 OPT| Pressure tolerance [bar]                                    100.0000000000
 OPT| Pressure is converged                                                  YES
 OPT| **************************************************************************
 OPT| Estimated peak process memory after this step [MiB]                    173

 *******************************************************************************
 ***                    GEOMETRY OPTIMIZATION COMPLETED                      ***
 *******************************************************************************

 write_final_structure: Optimization converged, writing XYZ file gladly:
  anthracene_GFN2_gamma_cell_opt-FINAL-1_167.xyz

 write_final_structure: Optimization converged, writing CIF file gladly:
  anthracene_GFN2_gamma_cell_opt-FINAL-1_167.cif

 write_final_structure: Done!

                    Reevaluating energy at the minimum

 CELL| Volume [angstrom^3]:                                           380.861042
 CELL| Vector a [angstrom]:       9.254     0.000     0.000   |a| =     9.253538
 CELL| Vector b [angstrom]:       0.000     3.995     0.000   |b| =     3.995289
 CELL| Vector c [angstrom]:      -4.766    -0.000    10.302   |c| =    11.350691
 CELL| Angle (b,c), alpha [degree]:                                    90.000001
 CELL| Angle (a,c), beta  [degree]:                                   114.825998
 CELL| Angle (a,b), gamma [degree]:                                    89.999997
 CELL| Numerically orthorhombic:                                              NO
 CELL| Periodicity                                                           XYZ

 Extrapolation method: ASPC

 Number of electrons:                                                        132
 Number of occupied orbitals:                                                 66
 Number of molecular orbitals:                                               132

 Number of orbital functions:                                                132
 Number of independent orbital functions:                                    132


 SCF WAVEFUNCTION OPTIMIZATION

  Step     Update method      Time    Convergence         Total energy    Change
  ------------------------------------------------------------------------------
     1 TBLite/Diag 0.40E+00    0.0     3.1097E-10       -70.3796370168 -7.04E+01

  *** SCF run converged in     1 steps ***


  Core Hamiltonian energy:                                    -71.54680039977141
  Repulsive potential energy:                                   1.25527943030328
  Electrostatic energy:                                         0.03800261934324
  Self-consistent dispersion energy:                           -0.16371221670200
  Non-self consistent dispersion energy:                        0.03759355005784
  Correction for halogen bonding:                               0.00000000000000
  Electronic entropic energy:                                  -0.00000000000000
  Fermi energy:                                                -0.27443587546415

  Total energy:                                               -70.37963701676905
  Total energy (extrapolated to T->0):                        -70.37963701676905

 ENERGY| Total FORCE_EVAL ( QS ) energy [hartree]            -70.379637016769053

 -------------------------------------------------------------------------------
 -                                                                             -
 -                                DBCSR STATISTICS                             -
 -                                                                             -
 -------------------------------------------------------------------------------
 COUNTER                                    TOTAL       BLAS       SMM       ACC
 flops     1 x     4 x     1              2656000       0.0%    100.0%      0.0%     
 flops     1 x     4 x     4             14873600       0.0%    100.0%      0.0%     
 flops     4 x     4 x     1             14873600       0.0%    100.0%      0.0%     
 flops     4 x     4 x     4             83292160       0.0%    100.0%      0.0%     
 flops     1 x    32 x     1             84992000       0.0%    100.0%      0.0%     
 flops     1 x     1 x   132            183284640       0.0%    100.0%      0.0%     
 flops     1 x    32 x     4            475955200       0.0%    100.0%      0.0%     
 flops     4 x    32 x     1            475955200       0.0%    100.0%      0.0%     
 flops     1 x     4 x   132            977518080       0.0%    100.0%      0.0%     
 flops     4 x     1 x   132            977518080       0.0%    100.0%      0.0%     
 flops     4 x    32 x     4           2665349120       0.0%    100.0%      0.0%     
 flops     4 x     4 x   132           5669604864       0.0%    100.0%      0.0%     
 flops inhomo. stacks                           0       0.0%      0.0%      0.0%
 flops total                        11.625873E+09       0.0%    100.0%      0.0%
 flops max/rank                     11.625873E+09       0.0%    100.0%      0.0%
 matmuls inhomo. stacks                         0       0.0%      0.0%      0.0%
 matmuls total                           13449456       0.0%    100.0%      0.0%
 number of processed stacks                 27334       0.0%    100.0%      0.0%
 average stack size                                     0.0     492.0       0.0
 marketing flops                    11.421365E+09
 -------------------------------------------------------------------------------
 # multiplications                           4136
 max memory usage/rank              13.679862E+09
 # max total images/rank                        1
 # max 3D layers                                1
 # MPI messages exchanged                       0
 -------------------------------------------------------------------------------
 -                                                                             -
 -                      DBCSR MESSAGE PASSING PERFORMANCE                      -
 -                                                                             -
 -------------------------------------------------------------------------------
 ROUTINE             CALLS      AVE VOLUME [Bytes]
 MP_Bcast               13                     12.
 MP_Allreduce        19063                      8.
 MP_Alltoall        141606                  97367.
 MP_ISend            16544                   8942.
 MP_IRecv            16544                   8942.
 -------------------------------------------------------------------------------

 -------------------------------------------------------------------------------
 -                                                                             -
 -                          OFFLOAD MEMPOOL STATISTICS                         -
 -                                                                             -
 -------------------------------------------------------------------------------
 Memory consumption                Number of allocations  Used [MiB]  Size [MiB]
 Device                                                2           0           0
 Host                                                  2           0           0
 -------------------------------------------------------------------------------

 MEMORY| Estimated peak process memory [MiB]                                 173

 -------------------------------------------------------------------------------
 -                                                                             -
 -                         MESSAGE PASSING PERFORMANCE                         -
 -                                                                             -
 -------------------------------------------------------------------------------

 ROUTINE             CALLS      AVE VOLUME [Bytes]
 MP_Group              168
 MP_Bcast             6610                    534.
 MP_Allreduce        96013                    374.
 MP_Sync              3473
 MP_comm_split        3305
 -------------------------------------------------------------------------------


 -------------------------------------------------------------------------------
 -                                                                             -
 -                           R E F E R E N C E S                               -
 -                                                                             -
 -------------------------------------------------------------------------------
 
 CP2K version 2026.1 (Development Version), the CP2K developers group (2026).
 CP2K is freely available from https://www.cp2k.org/ .
 
 M. Iannuzzi, J. Wilhelm, F. Stein, A. Bussy, H. Elgabarty, D. Golze, A. Hehn, 
 M. Graml, S. Marek, B. Sertcan Gökmen, C. Schran, H. Forbert, R. Z. 
 Khaliullin, A. Kozhevnikov, M. Taillefumier, R. Meli, V. V. Rybkin, M. Brehm, 
 R. Schade, O. Schütt, J. V. Pototschnig, H. Mirhosseini, A. Knüpfer, D. Marx, 
 M. Krack, J. Hutter, T. D. Kühne.
 J. Phys. Chem. B 130, 1237-1310 (2026).
 The CP2K Program Package Made Simple.
 https://doi.org/10.1021/acs.jpcb.5c05851

 A. Katbashev, M. Stahn, T. Rose, V. Alizadeh, M. Friede, C. Plett, P. 
 Steinbach, S. Ehlert.
 J. Phys. Chem. A 129, 2667-2682 (2025).
 Overview on Building Blocks and Applications of Efficient and Robust Extended 
 Tight Binding.
 https://doi.org/10.1021/acs.jpca.4c08263

 T. D. Kühne, M. Iannuzzi, M. Del Ben, V. V. Rybkin, P. Seewald, F. Stein, T. 
 Laino, R. Z. Khaliullin, O. Schütt, F. Schiffmann, D. Golze, J. Wilhelm, S. 
 Chulkov, M. H. Bani-Hashemian, V. Weber, U. Borstnik, M. Taillefumier, A. S. 
 Jakobovits, A. Lazzaro, H. Pabst, T. Müller, R. Schade, M. Guidon, S. 
 Andermatt, N. Holmberg, G. K. Schenter, A. Hehn, A. Bussy, F. Belleflamme, G. 
 Tabacchi, A. Glöß, M. Lass, I. Bethune, C. J. Mundy, C. Plessl, M. Watkins, 
 J. VandeVondele, M. Krack, J. Hutter.
 J. Chem. Phys. 152, 194103 (2020).
 CP2K: An electronic structure and molecular dynamics software package - 
 Quickstep: Efficient and accurate electronic structure calculations.
 https://doi.org/10.1063/5.0007045

 P. Pracht, E. Caldeweyher, S. Ehlert, S. Grimme.
 ChemRxiv, (2019).
 A Robust Non-Self-Consistent Tight-Binding Quantum Chemistry Method for large 
 Molecules.
 https://doi.org/10.26434/chemrxiv.8326202.v1

 S. Grimme, C. Bannwarth, P. Shushkov.
 J. Chem. Theory Comput. 13, 1989 (2017).
 A Robust and Accurate Tight-Binding Quantum Chemical Method for Structures, 
 Vibrational Frequencies, and Noncovalent Interactions of Large Molecular 
 Systems Parametrized for All spd-Block Elements (Z = 1-86).
 https://doi.org/10.1021/acs.jctc.7b00118

 O. Schuett, P. Messmer, J. Hutter, J. VandeVondele.
 Electronic Structure Calculations on Graphics Processing Units, 173-190 (2016).
 GPU-Accelerated Sparse Matrix-Matrix Multiplication for Linear Scaling Density 
 Functional Theory.
 https://doi.org/10.1002/9781118670712.ch8

 A. Heinecke, G. Henry, M. Hutchinson, H. Pabst.
 Proceedings of Intl. Supercomputing Conference, 981-991 (2016).
 LIBXSMM: Accelerating Small Matrix Multiplications by Runtime Code Generation.
 https://doi.org/10.1109/SC.2016.83

 U. Borstnik, J. VandeVondele, V. Weber, J. Hutter.
 Parallel Comput. 40, 47-58 (2014).
 Sparse matrix multiplication: The distributed block-compressed sparse row 
 library.
 https://doi.org/10.1016/j.parco.2014.03.012

 T. D. Kühne, M. Krack, F. R. Mohamed, M. Parrinello.
 Phys. Rev. Lett. 98, 066401 (2007).
 Efficient and accurate Car-Parrinello-like approach to Born-Oppenheimer 
 molecular dynamics.
 https://doi.org/10.1103/PhysRevLett.98.066401

 M. Frigo, S. G. Johnson.
 Proc. IEEE 93, 216-231 (2005).
 The design and implementation of FFTW3.
 https://doi.org/10.1109/JPROC.2004.840301

 J. Kolafa.
 J. Comput. Chem. 25, 335-342 (2004).
 Time-reversible always stable predictor-corrector method for molecular dynamics 
 of polarizable molecules.
 https://doi.org/10.1002/jcc.10385

 N. D. Mermin.
 Phys. Rev. 137, A1441-A1443 (1965).
 Thermal Properties of the Inhomogeneous Electron Gas.
 https://doi.org/10.1103/PhysRev.137.A1441


 -------------------------------------------------------------------------------
 -                                                                             -
 -                                T I M I N G                                  -
 -                                                                             -
 -------------------------------------------------------------------------------
 SUBROUTINE                       CALLS  ASD         SELF TIME        TOTAL TIME
                                MAXIMUM       AVERAGE  MAXIMUM  AVERAGE  MAXIMUM
 CP2K                                 1  1.0    0.002    0.002  313.578  313.578
 cp_cell_opt                          1  2.0    0.000    0.000  313.572  313.572
 geoopt_bfgs                          1  3.0    0.015    0.015  313.572  313.572
 cp_eval_at                         169  4.0    0.015    0.015  313.186  313.186
 qs_forces                          168  5.0    0.008    0.008  312.663  312.663
 build_tblite_matrices              337  7.0  252.425  252.425  258.339  258.339
 qs_energies                        169  6.0    0.004    0.004  100.481  100.481
 qs_energies_init_hamiltonians      169  7.0    0.000    0.000   77.364   77.364
 rebuild_ks_matrix                 3138  9.8    0.002    0.002   37.812   37.812
 build_tblite_ks_matrix            3138 10.8   37.753   37.753   37.810   37.810
 qs_ks_update_qs_env_forces         168  6.0    0.000    0.000   31.432   31.432
 scf_env_do_scf                     169  7.0    0.002    0.002   21.237   21.237
 scf_env_do_scf_inner_loop         2970  8.0    3.145    3.145   21.224   21.224
 qs_scf_new_mos                    2970  9.0    0.011    0.011   10.965   10.965
 qs_ks_update_qs_env               2970  9.0    0.004    0.004    6.591    6.591
 -------------------------------------------------------------------------------

 The number of warnings for this run is : 0
 
 -------------------------------------------------------------------------------
  **** **** ******  **  PROGRAM ENDED AT                 2026-05-23 22:52:30.906
 ***** ** ***  *** **   PROGRAM RAN ON                                spark-c86c
 **    ****   ******    PROGRAM RAN BY                                  kuehne88
 ***** **    ** ** **   PROGRAM PROCESS ID                               2268285
  **** **  *******  **  PROGRAM STOPPED IN /home/kuehne88/periodic-gfn2-benchmar
                                           ks/X23b/runs/cellopt_gamma/GFN2/anthr
                                           acene_GFN2_gamma_cellopt
