 DBCSR| CPU Multiplication driver                                           BLAS (U)
 DBCSR| Multrec recursion limit                                              512 (U)
 DBCSR| Multiplication stack size                                           1000 (D)
 DBCSR| Maximum elements for images                                    UNLIMITED (U)
 DBCSR| Multiplicative factor virtual images                                   1 (U)
 DBCSR| Use multiplication densification                                       T (D)
 DBCSR| Multiplication size stacks                                             3 (U)
 DBCSR| Use memory pool for CPU allocation                                     F (U)
 DBCSR| Number of 3D layers                                               SINGLE (U)
 DBCSR| Use MPI memory allocation                                              F (U)
 DBCSR| Use RMA algorithm                                                      F (U)
 DBCSR| Use Communication thread                                               T (U)
 DBCSR| Communication thread load                                             87 (D)
 DBCSR| MPI: My process id                                                     0
 DBCSR| MPI: Number of processes                                               1
 DBCSR| OMP: Current number of threads                                         1
 DBCSR| OMP: Max number of threads                                             1
 DBCSR| Split modifier for TAS multiplication algorithm                  1.0E+00 (U)


  **** **** ******  **  PROGRAM STARTED AT               2026-07-21 12:32:34.906
 ***** ** ***  *** **   PROGRAM STARTED ON                                 terok
 **    ****   ******    PROGRAM STARTED BY                              kuehne88
 ***** **    ** ** **   PROGRAM PROCESS ID                                433728
  **** **  *******  **  PROGRAM STARTED IN /home/kuehne88/work/kpoint-reduction-
                                           audit-20260721/results/round2/ch4_k66
                                           6_full_complete

 CP2K| version string:                 CP2K version 2026.2 (Development Version)
 CP2K| source code revision number:                                    8520b2e59
 CP2K| cp2kflags: omp parallel scalapack spglib s_dftd3 mctc-lib tblite tblite_g
 CP2K|            xtb
 CP2K| is freely available from                            https://www.cp2k.org/
 CP2K| Program compiled at                                   2026-07-18 23:48:15
 CP2K| Program compiled on                                                 terok
 CP2K| Program compiled for                                               x86_64
 CP2K| Data directory path                            /usr/local/share/cp2k/data
 CP2K| Input file name        /home/kuehne88/work/kpoint-reduction-audit-2026072

 GLOBAL| Force Environment number                                              1
 GLOBAL| Basis set file name                                           BASIS_SET
 GLOBAL| Potential file name                                           POTENTIAL
 GLOBAL| MM Potential file name                                     MM_POTENTIAL
 GLOBAL| Coordinate file name                                      __STD_INPUT__
 GLOBAL| Method name                                                        CP2K
 GLOBAL| Project name                                     ch4_k666_full_complete
 GLOBAL| Run type                                                         ENERGY
 GLOBAL| FFT library                                                       FFTW3
 GLOBAL| Diagonalization library                                       ScaLAPACK
 GLOBAL| Cholesky decomposition library                                ScaLAPACK
 GLOBAL| DGEMM library                                                      BLAS
 GLOBAL| Direct generalized diagonalization requested                          F
 GLOBAL| Orthonormality check for eigenvectors                          DISABLED
 GLOBAL| Matrix multiplication library                                 ScaLAPACK
 GLOBAL| All-to-all communication in single precision                          F
 GLOBAL| FFTs using library dependent lengths                                  F
 GLOBAL| Grid backend                                                       AUTO
 GLOBAL| Global print level                                               MEDIUM
 GLOBAL| MPI I/O enabled                                                       T
 GLOBAL| Total number of message passing processes                             1
 GLOBAL| Number of distributed systems (nodes)                                 1
 GLOBAL| Number of threads for this process                                    1
 GLOBAL| This output is from process                                           0
 GLOBAL| OpenMP stack size per thread (OMP_STACKSIZE)                    default
 GLOBAL| CPU model name                                       AMD EPYC Processor
 GLOBAL| CPUID                                                              1002

 MEMORY| system memory details [Kb]
 MEMORY|                        rank 0           min           max       average
 MEMORY| MemTotal            528104804     528104804     528104804     528104804
 MEMORY| MemFree             511693904     511693904     511693904     511693904
 MEMORY| Buffers                    20            20            20            20
 MEMORY| Cached               11762872      11762872      11762872      11762872
 MEMORY| Slab                  2331880       2331880       2331880       2331880
 MEMORY| SReclaimable           985168        985168        985168        985168
 MEMORY| MemLikelyFree       524441964     524441964     524441964     524441964


 *** WARNING in environment.F:1098 :: FFT library FFTW3 is not available. ***
 *** Trying FFT library FFTSG.                                            ***


 *** Fundamental physical constants (SI units) ***

 *** Literature: B. J. Mohr and B. N. Taylor,
 ***             CODATA recommended values of the fundamental physical
 ***             constants: 2006, Web Version 5.1
 ***             http://physics.nist.gov/constants

 Speed of light in vacuum [m/s]                             2.99792458000000E+08
 Magnetic constant or permeability of vacuum [N/A**2]       1.25663706143592E-06
 Electric constant or permittivity of vacuum [F/m]          8.85418781762039E-12
 Planck constant (h) [J*s]                                  6.62606896000000E-34
 Planck constant (h-bar) [J*s]                              1.05457162825177E-34
 Elementary charge [C]                                      1.60217648700000E-19
 Electron mass [kg]                                         9.10938215000000E-31
 Electron g factor [ ]                                     -2.00231930436220E+00
 Proton mass [kg]                                           1.67262163700000E-27
 Fine-structure constant                                    7.29735253760000E-03
 Rydberg constant [1/m]                                     1.09737315685270E+07
 Avogadro constant [1/mol]                                  6.02214179000000E+23
 Boltzmann constant [J/K]                                   1.38065040000000E-23
 Atomic mass unit [kg]                                      1.66053878200000E-27
 Bohr radius [m]                                            5.29177208590000E-11

 *** Conversion factors ***

 [u] -> [a.u.]                                              1.82288848426455E+03
 [Angstrom] -> [Bohr] = [a.u.]                              1.88972613288564E+00
 [a.u.] = [Bohr] -> [Angstrom]                              5.29177208590000E-01
 [a.u.] -> [s]                                              2.41888432650478E-17
 [a.u.] -> [fs]                                             2.41888432650478E-02
 [a.u.] -> [J]                                              4.35974393937059E-18
 [a.u.] -> [N]                                              8.23872205491840E-08
 [a.u.] -> [K]                                              3.15774647902944E+05
 [a.u.] -> [kJ/mol]                                         2.62549961709828E+03
 [a.u.] -> [kcal/mol]                                       6.27509468713739E+02
 [a.u.] -> [Pa]                                             2.94210107994716E+13
 [a.u.] -> [bar]                                            2.94210107994716E+08
 [a.u.] -> [atm]                                            2.90362800883016E+08
 [a.u.] -> [eV]                                             2.72113838565563E+01
 [a.u.] -> [Hz]                                             6.57968392072181E+15
 [a.u.] -> [1/cm] (wave numbers)                            2.19474631370540E+05
 [a.u./Bohr**2] -> [1/cm]                                   5.14048714338585E+03
 

 CELL| Volume [angstrom^3]:                                           512.000000
 CELL| Vector a [angstrom]:       8.000     0.000     0.000   |a| =     8.000000
 CELL| Vector b [angstrom]:       0.000     8.000     0.000   |b| =     8.000000
 CELL| Vector c [angstrom]:       0.000     0.000     8.000   |c| =     8.000000
 CELL| Angle (b,c), alpha [degree]:                                    90.000000
 CELL| Angle (a,c), beta  [degree]:                                    90.000000
 CELL| Angle (a,b), gamma [degree]:                                    90.000000
 CELL| Requested initial symmetry:                                         CUBIC
 CELL| Numerically orthorhombic:                                             YES
 CELL| Periodicity                                                           XYZ

 CELL_REF| Volume [angstrom^3]:                                       512.000000
 CELL_REF| Vector a [angstrom     8.000     0.000     0.000   |a| =     8.000000
 CELL_REF| Vector b [angstrom     0.000     8.000     0.000   |b| =     8.000000
 CELL_REF| Vector c [angstrom     0.000     0.000     8.000   |c| =     8.000000
 CELL_REF| Angle (b,c), alpha [degree]:                                90.000000
 CELL_REF| Angle (a,c), beta  [degree]:                                90.000000
 CELL_REF| Angle (a,b), gamma [degree]:                                90.000000
 CELL_REF| Requested initial symmetry:                                     CUBIC
 CELL_REF| Numerically orthorhombic:                                         YES
 CELL_REF| Periodicity                                                       XYZ

 GENERATE|  Preliminary Number of Bonds generated:                             0
 GENERATE|  Achieved consistency in connectivity generation.


                  #####   #####        #     #   #     #       #          
                 #     # #     #      #    ##### #     #   # #####  ####  
                 #     # #           #       #   ###   #       #   #    # 
                 #     #  #####     #        #   #  #  #   #   #   ###### 
                 #   # #       #   #         #   #   # #   #   #   #      
                 #    #  #     #  #          #   #  #  # # #   #    #   # 
                  #### #  #####  #           #   ###   ##  #   #     ###  

                                     g-xTB   
                                 Version 0.0                       
                            Johann V. Pototschnig                  

                tblite provider: SAVE
                tblite source revision: 15915c9435644eb257178ca8f8bf7220c38b1a84
                g-xTB support: enabled

 xTB| Parameter file                                             xTB1_parameters
 xTB| Basis expansion STO-NG                                                   6
 xTB| Basis expansion STO-NG for Hydrogen                                      4
 xTB| Repulsive pair potential accuracy                               0.1000E-09
 xTB| Repulsive enhancement factor                                      0.000000
 xTB| Halogen interaction potential                                            T
 xTB| Halogen interaction potential cutoff radius                         20.000
 xTB| Nonbonded interactions                                                   F
 xTB| vdW potential type:                                              DFTD3(BJ)
 xTB| D3 Dispersion: Parameter                                         dftd3.dat
 xTB| Huckel constants ks kp kd                        1.850     2.250     2.000
 xTB| Huckel constants ksp k2sh                                  2.080     2.850
 xTB| Mataga-Nishimoto exponent                                            2.000
 xTB| Repulsion potential exponent                                         1.500
 xTB| Coordination number scaling kcn(s) kcn(p) kc     0.006    -0.003    -0.005
 xTB| Electronegativity scaling                                           -0.007
 xTB| Halogen potential scaling kxr kx2                          1.300     0.440
 xTB| SCC mixer:                                                       AUTO
 xTB| tblite accuracy:                                                 1.000E+00
 xTB| tblite SCC mixer damping:                                            0.400
 xTB| tblite SCC mixer iterations:                                           250
 xTB| tblite SCC mixer memory:                                               250
 xTB| tblite SCC mixer solver:                                         GVD
 xTB| tblite SCC mixer omega0:                                         1.000E-02
 xTB| tblite SCC mixer min weight:                                     1.000E+00
 xTB| tblite SCC mixer max weight:                                     1.000E+05
 xTB| tblite SCC mixer weight factor:                                  1.000E-02




 ATOMIC KIND INFORMATION

  1. Atomic kind: C                                     Number of atoms:       1

     Orbital Basis Set                                                 C _STO-6G

       Number of orbital shell sets:                                           2
       Number of orbital shells:                                               2
       Number of primitive Cartesian functions:                               12
       Number of Cartesian basis functions:                                    4
       Number of spherical basis functions:                                    4
       Norm type:                                                              3

       Normalised Cartesian orbitals:

                        Set   Shell   Orbital            Exponent    Coefficient

                          1       1    1s                2.208628      -1.157490
                                                         1.917959       0.886555
                                                         0.497153       0.232010
                                                         0.192182       0.116485
                                                         0.150531      -0.033296
                                                         0.078189       0.019361

                          2       1    2px              24.597336       0.464082
                                                         6.488161       0.691437
                                                         2.226359       0.612655
                                                         0.776897       0.415112
                                                         0.283425       0.113030
                                                         0.098628       0.020433
                          2       1    2py              24.597336       0.464082
                                                         6.488161       0.691437
                                                         2.226359       0.612655
                                                         0.776897       0.415112
                                                         0.283425       0.113030
                                                         0.098628       0.020433
                          2       1    2pz              24.597336       0.464082
                                                         6.488161       0.691437
                                                         2.226359       0.612655
                                                         0.776897       0.415112
                                                         0.283425       0.113030
                                                         0.098628       0.020433

     AE Potential information for                                         Carbon

       Description:                                       Bare Coulomb Potential
                                                             Valence charge only

       Gaussian exponent of the core charge distribution:               3.373250
       Electronic configuration (s p d ...):                       2   2   0   0

  2. Atomic kind: H                                     Number of atoms:       4

     Orbital Basis Set                                                 H _STO-8G

       Number of orbital shell sets:                                           1
       Number of orbital shells:                                               1
       Number of primitive Cartesian functions:                                8
       Number of Cartesian basis functions:                                    1
       Number of spherical basis functions:                                    1
       Norm type:                                                              3

       Normalised Cartesian orbitals:

                        Set   Shell   Orbital            Exponent    Coefficient

                          1       1    1s              337.005012       0.032613
                                                        53.310531       0.058991
                                                        12.208253       0.102844
                                                         3.418827       0.159923
                                                         1.108790       0.193518
                                                         0.478718       0.121328
                                                         0.212137       0.085046
                                                         0.069058       0.011171

     AE Potential information for                                       Hydrogen

       Description:                                       Bare Coulomb Potential
                                                              Full atomic charge

       Gaussian exponent of the core charge distribution:              12.500000
       Electronic configuration (s p d ...):                       1   0   0   0


 MOLECULE KIND INFORMATION


 All atoms are their own molecule, skipping detailed information


 TOTAL NUMBERS AND MAXIMUM NUMBERS

  Total number of            - Atomic kinds:                                   2
                             - Atoms:                                          5
                             - Shell sets:                                     6
                             - Shells:                                         6
                             - Primitive Cartesian functions:                 44
                             - Cartesian basis functions:                      8
                             - Spherical basis functions:                      8

  Maximum angular momentum of the orbital basis functions:                     1


 MODULE QUICKSTEP: ATOMIC COORDINATES IN ANGSTROM

   Atom Kind Element         X             Y             Z       Z(eff)     Mass
      1    1 C     6      4.000000      4.000000      4.000000   4.0000  12.0107
      2    2 H     1      4.692820      4.692820      4.692820   1.0000   1.0079
      3    2 H     1      4.692820      3.307180      3.307180   1.0000   1.0079
      4    2 H     1      3.307180      4.692820      3.307180   1.0000   1.0079
      5    2 H     1      3.307180      3.307180      4.692820   1.0000   1.0079



 SCF PARAMETERS         Density guess:                                     MOPAC
                        --------------------------------------------------------
                        max_scf:                                             300
                        max_scf_history:                                       0
                        max_diis:                                              4
                        --------------------------------------------------------
                        eps_scf:                                        1.00E-10
                        eps_scf_history:                                0.00E+00
                        eps_diis:                                       1.00E-01
                        eps_eigval:                                     1.00E-05
                        --------------------------------------------------------
                        level_shift [a.u.]:                             0.000000
                        added MOs                                         4    0
                        --------------------------------------------------------
                        Mixing method:                           DIRECT_P_MIXING
                        --------------------------------------------------------
                        No outer SCF

 PW_GRID| Information for grid number                                          1
 PW_GRID| Cutoff [a.u.]                                                      1.0
 PW_GRID| spherical cutoff:                                                   NO
 PW_GRID|   Bounds   1             -4       3                Points:           8
 PW_GRID|   Bounds   2             -4       3                Points:           8
 PW_GRID|   Bounds   3             -4       3                Points:           8
 PW_GRID| Volume element (a.u.^3)   6.748         Volume (a.u.^3)      3455.1473
 PW_GRID| Grid span                                                    FULLSPACE

 POISSON| Solver                                                        PERIODIC
 POISSON| Periodicity                                                        XYZ

 RS_GRID| Information for grid number                                          1
 RS_GRID|   Bounds   1             -4       3                Points:           8
 RS_GRID|   Bounds   2             -4       3                Points:           8
 RS_GRID|   Bounds   3             -4       3                Points:           8

 *******************************************************************************
                                    Kpoints
 *******************************************************************************
 BRILLOUIN| K-point scheme                                        Monkhorst-Pack
 BRILLOUIN| K-Point grid                                             6    6    6
 BRILLOUIN| K-point symmetry accuracy                               0.100000E-07
 BRILLOUIN| K-Point point group symmetrization                               OFF
 BRILLOUIN| Wavefunction type                                            COMPLEX
 BRILLOUIN| Use full k-point grid     
 BRILLOUIN| List of Kpoints [2 Pi/Bohr]                                      216
 BRILLOUIN| Number           Weight            X              Y              Z
 BRILLOUIN|     1           0.00463       -0.41667       -0.41667       -0.41667
 BRILLOUIN|     2           0.00463       -0.41667       -0.41667       -0.25000
 BRILLOUIN|     3           0.00463       -0.41667       -0.41667       -0.08333
 BRILLOUIN|     4           0.00463       -0.41667       -0.41667        0.08333
 BRILLOUIN|     5           0.00463       -0.41667       -0.41667        0.25000
 BRILLOUIN|     6           0.00463       -0.41667       -0.41667        0.41667
 BRILLOUIN|     7           0.00463       -0.41667       -0.25000       -0.41667
 BRILLOUIN|     8           0.00463       -0.41667       -0.25000       -0.25000
 BRILLOUIN|     9           0.00463       -0.41667       -0.25000       -0.08333
 BRILLOUIN|    10           0.00463       -0.41667       -0.25000        0.08333
 BRILLOUIN|    11           0.00463       -0.41667       -0.25000        0.25000
 BRILLOUIN|    12           0.00463       -0.41667       -0.25000        0.41667
 BRILLOUIN|    13           0.00463       -0.41667       -0.08333       -0.41667
 BRILLOUIN|    14           0.00463       -0.41667       -0.08333       -0.25000
 BRILLOUIN|    15           0.00463       -0.41667       -0.08333       -0.08333
 BRILLOUIN|    16           0.00463       -0.41667       -0.08333        0.08333
 BRILLOUIN|    17           0.00463       -0.41667       -0.08333        0.25000
 BRILLOUIN|    18           0.00463       -0.41667       -0.08333        0.41667
 BRILLOUIN|    19           0.00463       -0.41667        0.08333       -0.41667
 BRILLOUIN|    20           0.00463       -0.41667        0.08333       -0.25000
 BRILLOUIN|    21           0.00463       -0.41667        0.08333       -0.08333
 BRILLOUIN|    22           0.00463       -0.41667        0.08333        0.08333
 BRILLOUIN|    23           0.00463       -0.41667        0.08333        0.25000
 BRILLOUIN|    24           0.00463       -0.41667        0.08333        0.41667
 BRILLOUIN|    25           0.00463       -0.41667        0.25000       -0.41667
 BRILLOUIN|    26           0.00463       -0.41667        0.25000       -0.25000
 BRILLOUIN|    27           0.00463       -0.41667        0.25000       -0.08333
 BRILLOUIN|    28           0.00463       -0.41667        0.25000        0.08333
 BRILLOUIN|    29           0.00463       -0.41667        0.25000        0.25000
 BRILLOUIN|    30           0.00463       -0.41667        0.25000        0.41667
 BRILLOUIN|    31           0.00463       -0.41667        0.41667       -0.41667
 BRILLOUIN|    32           0.00463       -0.41667        0.41667       -0.25000
 BRILLOUIN|    33           0.00463       -0.41667        0.41667       -0.08333
 BRILLOUIN|    34           0.00463       -0.41667        0.41667        0.08333
 BRILLOUIN|    35           0.00463       -0.41667        0.41667        0.25000
 BRILLOUIN|    36           0.00463       -0.41667        0.41667        0.41667
 BRILLOUIN|    37           0.00463       -0.25000       -0.41667       -0.41667
 BRILLOUIN|    38           0.00463       -0.25000       -0.41667       -0.25000
 BRILLOUIN|    39           0.00463       -0.25000       -0.41667       -0.08333
 BRILLOUIN|    40           0.00463       -0.25000       -0.41667        0.08333
 BRILLOUIN|    41           0.00463       -0.25000       -0.41667        0.25000
 BRILLOUIN|    42           0.00463       -0.25000       -0.41667        0.41667
 BRILLOUIN|    43           0.00463       -0.25000       -0.25000       -0.41667
 BRILLOUIN|    44           0.00463       -0.25000       -0.25000       -0.25000
 BRILLOUIN|    45           0.00463       -0.25000       -0.25000       -0.08333
 BRILLOUIN|    46           0.00463       -0.25000       -0.25000        0.08333
 BRILLOUIN|    47           0.00463       -0.25000       -0.25000        0.25000
 BRILLOUIN|    48           0.00463       -0.25000       -0.25000        0.41667
 BRILLOUIN|    49           0.00463       -0.25000       -0.08333       -0.41667
 BRILLOUIN|    50           0.00463       -0.25000       -0.08333       -0.25000
 BRILLOUIN|    51           0.00463       -0.25000       -0.08333       -0.08333
 BRILLOUIN|    52           0.00463       -0.25000       -0.08333        0.08333
 BRILLOUIN|    53           0.00463       -0.25000       -0.08333        0.25000
 BRILLOUIN|    54           0.00463       -0.25000       -0.08333        0.41667
 BRILLOUIN|    55           0.00463       -0.25000        0.08333       -0.41667
 BRILLOUIN|    56           0.00463       -0.25000        0.08333       -0.25000
 BRILLOUIN|    57           0.00463       -0.25000        0.08333       -0.08333
 BRILLOUIN|    58           0.00463       -0.25000        0.08333        0.08333
 BRILLOUIN|    59           0.00463       -0.25000        0.08333        0.25000
 BRILLOUIN|    60           0.00463       -0.25000        0.08333        0.41667
 BRILLOUIN|    61           0.00463       -0.25000        0.25000       -0.41667
 BRILLOUIN|    62           0.00463       -0.25000        0.25000       -0.25000
 BRILLOUIN|    63           0.00463       -0.25000        0.25000       -0.08333
 BRILLOUIN|    64           0.00463       -0.25000        0.25000        0.08333
 BRILLOUIN|    65           0.00463       -0.25000        0.25000        0.25000
 BRILLOUIN|    66           0.00463       -0.25000        0.25000        0.41667
 BRILLOUIN|    67           0.00463       -0.25000        0.41667       -0.41667
 BRILLOUIN|    68           0.00463       -0.25000        0.41667       -0.25000
 BRILLOUIN|    69           0.00463       -0.25000        0.41667       -0.08333
 BRILLOUIN|    70           0.00463       -0.25000        0.41667        0.08333
 BRILLOUIN|    71           0.00463       -0.25000        0.41667        0.25000
 BRILLOUIN|    72           0.00463       -0.25000        0.41667        0.41667
 BRILLOUIN|    73           0.00463       -0.08333       -0.41667       -0.41667
 BRILLOUIN|    74           0.00463       -0.08333       -0.41667       -0.25000
 BRILLOUIN|    75           0.00463       -0.08333       -0.41667       -0.08333
 BRILLOUIN|    76           0.00463       -0.08333       -0.41667        0.08333
 BRILLOUIN|    77           0.00463       -0.08333       -0.41667        0.25000
 BRILLOUIN|    78           0.00463       -0.08333       -0.41667        0.41667
 BRILLOUIN|    79           0.00463       -0.08333       -0.25000       -0.41667
 BRILLOUIN|    80           0.00463       -0.08333       -0.25000       -0.25000
 BRILLOUIN|    81           0.00463       -0.08333       -0.25000       -0.08333
 BRILLOUIN|    82           0.00463       -0.08333       -0.25000        0.08333
 BRILLOUIN|    83           0.00463       -0.08333       -0.25000        0.25000
 BRILLOUIN|    84           0.00463       -0.08333       -0.25000        0.41667
 BRILLOUIN|    85           0.00463       -0.08333       -0.08333       -0.41667
 BRILLOUIN|    86           0.00463       -0.08333       -0.08333       -0.25000
 BRILLOUIN|    87           0.00463       -0.08333       -0.08333       -0.08333
 BRILLOUIN|    88           0.00463       -0.08333       -0.08333        0.08333
 BRILLOUIN|    89           0.00463       -0.08333       -0.08333        0.25000
 BRILLOUIN|    90           0.00463       -0.08333       -0.08333        0.41667
 BRILLOUIN|    91           0.00463       -0.08333        0.08333       -0.41667
 BRILLOUIN|    92           0.00463       -0.08333        0.08333       -0.25000
 BRILLOUIN|    93           0.00463       -0.08333        0.08333       -0.08333
 BRILLOUIN|    94           0.00463       -0.08333        0.08333        0.08333
 BRILLOUIN|    95           0.00463       -0.08333        0.08333        0.25000
 BRILLOUIN|    96           0.00463       -0.08333        0.08333        0.41667
 BRILLOUIN|    97           0.00463       -0.08333        0.25000       -0.41667
 BRILLOUIN|    98           0.00463       -0.08333        0.25000       -0.25000
 BRILLOUIN|    99           0.00463       -0.08333        0.25000       -0.08333
 BRILLOUIN|   100           0.00463       -0.08333        0.25000        0.08333
 BRILLOUIN|   101           0.00463       -0.08333        0.25000        0.25000
 BRILLOUIN|   102           0.00463       -0.08333        0.25000        0.41667
 BRILLOUIN|   103           0.00463       -0.08333        0.41667       -0.41667
 BRILLOUIN|   104           0.00463       -0.08333        0.41667       -0.25000
 BRILLOUIN|   105           0.00463       -0.08333        0.41667       -0.08333
 BRILLOUIN|   106           0.00463       -0.08333        0.41667        0.08333
 BRILLOUIN|   107           0.00463       -0.08333        0.41667        0.25000
 BRILLOUIN|   108           0.00463       -0.08333        0.41667        0.41667
 BRILLOUIN|   109           0.00463        0.08333       -0.41667       -0.41667
 BRILLOUIN|   110           0.00463        0.08333       -0.41667       -0.25000
 BRILLOUIN|   111           0.00463        0.08333       -0.41667       -0.08333
 BRILLOUIN|   112           0.00463        0.08333       -0.41667        0.08333
 BRILLOUIN|   113           0.00463        0.08333       -0.41667        0.25000
 BRILLOUIN|   114           0.00463        0.08333       -0.41667        0.41667
 BRILLOUIN|   115           0.00463        0.08333       -0.25000       -0.41667
 BRILLOUIN|   116           0.00463        0.08333       -0.25000       -0.25000
 BRILLOUIN|   117           0.00463        0.08333       -0.25000       -0.08333
 BRILLOUIN|   118           0.00463        0.08333       -0.25000        0.08333
 BRILLOUIN|   119           0.00463        0.08333       -0.25000        0.25000
 BRILLOUIN|   120           0.00463        0.08333       -0.25000        0.41667
 BRILLOUIN|   121           0.00463        0.08333       -0.08333       -0.41667
 BRILLOUIN|   122           0.00463        0.08333       -0.08333       -0.25000
 BRILLOUIN|   123           0.00463        0.08333       -0.08333       -0.08333
 BRILLOUIN|   124           0.00463        0.08333       -0.08333        0.08333
 BRILLOUIN|   125           0.00463        0.08333       -0.08333        0.25000
 BRILLOUIN|   126           0.00463        0.08333       -0.08333        0.41667
 BRILLOUIN|   127           0.00463        0.08333        0.08333       -0.41667
 BRILLOUIN|   128           0.00463        0.08333        0.08333       -0.25000
 BRILLOUIN|   129           0.00463        0.08333        0.08333       -0.08333
 BRILLOUIN|   130           0.00463        0.08333        0.08333        0.08333
 BRILLOUIN|   131           0.00463        0.08333        0.08333        0.25000
 BRILLOUIN|   132           0.00463        0.08333        0.08333        0.41667
 BRILLOUIN|   133           0.00463        0.08333        0.25000       -0.41667
 BRILLOUIN|   134           0.00463        0.08333        0.25000       -0.25000
 BRILLOUIN|   135           0.00463        0.08333        0.25000       -0.08333
 BRILLOUIN|   136           0.00463        0.08333        0.25000        0.08333
 BRILLOUIN|   137           0.00463        0.08333        0.25000        0.25000
 BRILLOUIN|   138           0.00463        0.08333        0.25000        0.41667
 BRILLOUIN|   139           0.00463        0.08333        0.41667       -0.41667
 BRILLOUIN|   140           0.00463        0.08333        0.41667       -0.25000
 BRILLOUIN|   141           0.00463        0.08333        0.41667       -0.08333
 BRILLOUIN|   142           0.00463        0.08333        0.41667        0.08333
 BRILLOUIN|   143           0.00463        0.08333        0.41667        0.25000
 BRILLOUIN|   144           0.00463        0.08333        0.41667        0.41667
 BRILLOUIN|   145           0.00463        0.25000       -0.41667       -0.41667
 BRILLOUIN|   146           0.00463        0.25000       -0.41667       -0.25000
 BRILLOUIN|   147           0.00463        0.25000       -0.41667       -0.08333
 BRILLOUIN|   148           0.00463        0.25000       -0.41667        0.08333
 BRILLOUIN|   149           0.00463        0.25000       -0.41667        0.25000
 BRILLOUIN|   150           0.00463        0.25000       -0.41667        0.41667
 BRILLOUIN|   151           0.00463        0.25000       -0.25000       -0.41667
 BRILLOUIN|   152           0.00463        0.25000       -0.25000       -0.25000
 BRILLOUIN|   153           0.00463        0.25000       -0.25000       -0.08333
 BRILLOUIN|   154           0.00463        0.25000       -0.25000        0.08333
 BRILLOUIN|   155           0.00463        0.25000       -0.25000        0.25000
 BRILLOUIN|   156           0.00463        0.25000       -0.25000        0.41667
 BRILLOUIN|   157           0.00463        0.25000       -0.08333       -0.41667
 BRILLOUIN|   158           0.00463        0.25000       -0.08333       -0.25000
 BRILLOUIN|   159           0.00463        0.25000       -0.08333       -0.08333
 BRILLOUIN|   160           0.00463        0.25000       -0.08333        0.08333
 BRILLOUIN|   161           0.00463        0.25000       -0.08333        0.25000
 BRILLOUIN|   162           0.00463        0.25000       -0.08333        0.41667
 BRILLOUIN|   163           0.00463        0.25000        0.08333       -0.41667
 BRILLOUIN|   164           0.00463        0.25000        0.08333       -0.25000
 BRILLOUIN|   165           0.00463        0.25000        0.08333       -0.08333
 BRILLOUIN|   166           0.00463        0.25000        0.08333        0.08333
 BRILLOUIN|   167           0.00463        0.25000        0.08333        0.25000
 BRILLOUIN|   168           0.00463        0.25000        0.08333        0.41667
 BRILLOUIN|   169           0.00463        0.25000        0.25000       -0.41667
 BRILLOUIN|   170           0.00463        0.25000        0.25000       -0.25000
 BRILLOUIN|   171           0.00463        0.25000        0.25000       -0.08333
 BRILLOUIN|   172           0.00463        0.25000        0.25000        0.08333
 BRILLOUIN|   173           0.00463        0.25000        0.25000        0.25000
 BRILLOUIN|   174           0.00463        0.25000        0.25000        0.41667
 BRILLOUIN|   175           0.00463        0.25000        0.41667       -0.41667
 BRILLOUIN|   176           0.00463        0.25000        0.41667       -0.25000
 BRILLOUIN|   177           0.00463        0.25000        0.41667       -0.08333
 BRILLOUIN|   178           0.00463        0.25000        0.41667        0.08333
 BRILLOUIN|   179           0.00463        0.25000        0.41667        0.25000
 BRILLOUIN|   180           0.00463        0.25000        0.41667        0.41667
 BRILLOUIN|   181           0.00463        0.41667       -0.41667       -0.41667
 BRILLOUIN|   182           0.00463        0.41667       -0.41667       -0.25000
 BRILLOUIN|   183           0.00463        0.41667       -0.41667       -0.08333
 BRILLOUIN|   184           0.00463        0.41667       -0.41667        0.08333
 BRILLOUIN|   185           0.00463        0.41667       -0.41667        0.25000
 BRILLOUIN|   186           0.00463        0.41667       -0.41667        0.41667
 BRILLOUIN|   187           0.00463        0.41667       -0.25000       -0.41667
 BRILLOUIN|   188           0.00463        0.41667       -0.25000       -0.25000
 BRILLOUIN|   189           0.00463        0.41667       -0.25000       -0.08333
 BRILLOUIN|   190           0.00463        0.41667       -0.25000        0.08333
 BRILLOUIN|   191           0.00463        0.41667       -0.25000        0.25000
 BRILLOUIN|   192           0.00463        0.41667       -0.25000        0.41667
 BRILLOUIN|   193           0.00463        0.41667       -0.08333       -0.41667
 BRILLOUIN|   194           0.00463        0.41667       -0.08333       -0.25000
 BRILLOUIN|   195           0.00463        0.41667       -0.08333       -0.08333
 BRILLOUIN|   196           0.00463        0.41667       -0.08333        0.08333
 BRILLOUIN|   197           0.00463        0.41667       -0.08333        0.25000
 BRILLOUIN|   198           0.00463        0.41667       -0.08333        0.41667
 BRILLOUIN|   199           0.00463        0.41667        0.08333       -0.41667
 BRILLOUIN|   200           0.00463        0.41667        0.08333       -0.25000
 BRILLOUIN|   201           0.00463        0.41667        0.08333       -0.08333
 BRILLOUIN|   202           0.00463        0.41667        0.08333        0.08333
 BRILLOUIN|   203           0.00463        0.41667        0.08333        0.25000
 BRILLOUIN|   204           0.00463        0.41667        0.08333        0.41667
 BRILLOUIN|   205           0.00463        0.41667        0.25000       -0.41667
 BRILLOUIN|   206           0.00463        0.41667        0.25000       -0.25000
 BRILLOUIN|   207           0.00463        0.41667        0.25000       -0.08333
 BRILLOUIN|   208           0.00463        0.41667        0.25000        0.08333
 BRILLOUIN|   209           0.00463        0.41667        0.25000        0.25000
 BRILLOUIN|   210           0.00463        0.41667        0.25000        0.41667
 BRILLOUIN|   211           0.00463        0.41667        0.41667       -0.41667
 BRILLOUIN|   212           0.00463        0.41667        0.41667       -0.25000
 BRILLOUIN|   213           0.00463        0.41667        0.41667       -0.08333
 BRILLOUIN|   214           0.00463        0.41667        0.41667        0.08333
 BRILLOUIN|   215           0.00463        0.41667        0.41667        0.25000
 BRILLOUIN|   216           0.00463        0.41667        0.41667        0.41667
 *******************************************************************************

 Extrapolation method: initial_guess

 Number of electrons:                                                          8
 Number of occupied orbitals:                                                  4
 Number of molecular orbitals:                                                 8

 Number of orbital functions:                                                  8
 Number of independent orbital functions:                                      8


 SCF WAVEFUNCTION OPTIMIZATION

  Step     Update method      Time    Convergence         Total energy    Change
  ------------------------------------------------------------------------------
 GXTB-EXCHANGE-TRANSFORM stage=FORWARD backend=DENSE fallback=0 iter=1
 GXTB-EXCHANGE-TRANSFORM stage=FORWARD backend=DENSE fallback=0 iter=1
     1 GXTB-Raw    0.10E+01   47.0     0.54061414       -40.4418582981 -4.04E+01
 GXTB-EXCHANGE-TRANSFORM stage=FORWARD backend=DENSE fallback=0 iter=2
 GXTB-EXCHANGE-TRANSFORM stage=FORWARD backend=DENSE fallback=0 iter=2
     2 GXTB-Simple 0.20E+00    1.4     0.04966823       -40.4549713285 -1.31E-02
 GXTB-EXCHANGE-TRANSFORM stage=FORWARD backend=DENSE fallback=0 iter=3
 GXTB-EXCHANGE-TRANSFORM stage=FORWARD backend=DENSE fallback=0 iter=3
     3 GXTB-Simple 0.20E+00    1.4     0.03454644       -40.4615420495 -6.57E-03
 GXTB-EXCHANGE-TRANSFORM stage=FORWARD backend=DENSE fallback=0 iter=4
 GXTB-EXCHANGE-TRANSFORM stage=FORWARD backend=DENSE fallback=0 iter=4
     4 GXTB-FDIIS  0.10E+01    1.4     0.05595321       -40.4671816398 -5.64E-03
 GXTB-EXCHANGE-TRANSFORM stage=FORWARD backend=DENSE fallback=0 iter=5
 GXTB-EXCHANGE-TRANSFORM stage=FORWARD backend=DENSE fallback=0 iter=5
     5 GXTB-FDIIS  0.10E+01    1.4     0.03572787       -40.4685333874 -1.35E-03
 GXTB-EXCHANGE-TRANSFORM stage=FORWARD backend=DENSE fallback=0 iter=6
 GXTB-EXCHANGE-TRANSFORM stage=FORWARD backend=DENSE fallback=0 iter=6
     6 GXTB-FDIIS  0.10E+01    1.4     0.00209286       -40.4685329312  4.56E-07
 GXTB-EXCHANGE-TRANSFORM stage=FORWARD backend=DENSE fallback=0 iter=7
 GXTB-EXCHANGE-TRANSFORM stage=FORWARD backend=DENSE fallback=0 iter=7
     7 GXTB-FDIIS  0.10E+01    1.4     0.00109189       -40.4685342014 -1.27E-06
 GXTB-EXCHANGE-TRANSFORM stage=FORWARD backend=DENSE fallback=0 iter=8
 GXTB-EXCHANGE-TRANSFORM stage=FORWARD backend=DENSE fallback=0 iter=8
     8 GXTB-FDIIS  0.10E+01    1.5     0.00003810       -40.4685342036 -2.16E-09
 GXTB-EXCHANGE-TRANSFORM stage=FORWARD backend=DENSE fallback=0 iter=9
 GXTB-EXCHANGE-TRANSFORM stage=FORWARD backend=DENSE fallback=0 iter=9
     9 GXTB-FDIIS  0.10E+01    1.4     0.00000851       -40.4685342037 -7.60E-11
 GXTB-EXCHANGE-TRANSFORM stage=FORWARD backend=DENSE fallback=0 iter=10
 GXTB-EXCHANGE-TRANSFORM stage=FORWARD backend=DENSE fallback=0 iter=10
    10 GXTB-FDIIS  0.10E+01    1.4     0.00000009       -40.4685342037 -7.11E-15
 GXTB-EXCHANGE-TRANSFORM stage=FORWARD backend=DENSE fallback=0 iter=11
 GXTB-EXCHANGE-TRANSFORM stage=FORWARD backend=DENSE fallback=0 iter=11
    11 GXTB-FDIIS  0.10E+01    1.4     7.5206E-11       -40.4685342037  0.00E+00

  *** SCF run converged in    11 steps ***


  Core Hamiltonian energy:                                     -3.06810214126388
  Repulsive potential energy:                                   0.37445740804949
  Electrostatic energy:                                         0.01420612097381
  Self-consistent dispersion energy:                           -0.00114279589944
  Non-self consistent dispersion energy:                        0.00003895111946
  Correction for halogen bonding:                               0.00000000000000

  Total energy:                                               -40.46853420367020


 MULLIKEN POPULATION ANALYSIS

  # Atom   Element   Kind        Atomic population                    Net charge
       1     C          1                 4.271933                     -0.271933
       2     H          2                 0.932017                      0.067983
       3     H          2                 0.932017                      0.067983
       4     H          2                 0.932017                      0.067983
       5     H          2                 0.932017                      0.067983
 # Total charge                           8.000000                      0.000000


 ENERGY| Total FORCE_EVAL ( QS ) energy [hartree]            -40.468534203670195

 -------------------------------------------------------------------------------
 -                                                                             -
 -                                DBCSR STATISTICS                             -
 -                                                                             -
 -------------------------------------------------------------------------------
 COUNTER                                    TOTAL       BLAS       SMM       ACC
 flops inhomo. stacks                           0       0.0%      0.0%      0.0%
 flops total                         0.000000E+00       0.0%      0.0%      0.0%
 flops max/rank                      0.000000E+00       0.0%      0.0%      0.0%
 matmuls inhomo. stacks                         0       0.0%      0.0%      0.0%
 matmuls total                                  0       0.0%      0.0%      0.0%
 number of processed stacks                     0       0.0%      0.0%      0.0%
 average stack size                                     0.0       0.0       0.0
 marketing flops                     0.000000E+00
 -------------------------------------------------------------------------------
 -                                                                             -
 -                      DBCSR MESSAGE PASSING PERFORMANCE                      -
 -                                                                             -
 -------------------------------------------------------------------------------
 ROUTINE             CALLS      AVE VOLUME [Bytes]
 MP_Bcast                1                     12.
 MP_Allreduce           19                     21.
 MP_Alltoall        202176                    572.
 -------------------------------------------------------------------------------

 -------------------------------------------------------------------------------
 -                                                                             -
 -                          OFFLOAD MEMPOOL STATISTICS                         -
 -                                                                             -
 -------------------------------------------------------------------------------
 Memory consumption                Number of allocations  Used [MiB]  Size [MiB]
 Host                                                  1           0           0
 -------------------------------------------------------------------------------

 MEMORY| Estimated peak process memory [MiB]                                1039

 -------------------------------------------------------------------------------
 ----                             MULTIGRID INFO                            ----
 -------------------------------------------------------------------------------
 total grid count     :           420              cutoff [a.u.]            1.00

 -------------------------------------------------------------------------------
 -                                                                             -
 -                         MESSAGE PASSING PERFORMANCE                         -
 -                                                                             -
 -------------------------------------------------------------------------------

 ROUTINE             CALLS      AVE VOLUME [Bytes]
 MP_Group                1
 MP_Bcast           202187                      7.
 MP_Allreduce       138223                    159.
 MP_Sync                 1
 MP_Wait            168480
 MP_ISend           235872                     79.
 MP_IRecv           235872                     79.
 -------------------------------------------------------------------------------


 -------------------------------------------------------------------------------
 -                                                                             -
 -                           R E F E R E N C E S                               -
 -                                                                             -
 -------------------------------------------------------------------------------
 
 CP2K version 2026.2 (Development Version), the CP2K developers group (2026).
 CP2K is freely available from https://www.cp2k.org/ .
 
 M. Iannuzzi, J. Wilhelm, F. Stein, A. Bussy, H. Elgabarty, D. Golze, A. Hehn, 
 M. Graml, S. Marek, B. Sertcan Gökmen, C. Schran, H. Forbert, R. Z. 
 Khaliullin, A. Kozhevnikov, M. Taillefumier, R. Meli, V. V. Rybkin, M. Brehm, 
 R. Schade, O. Schütt, J. V. Pototschnig, H. Mirhosseini, A. Knüpfer, D. Marx, 
 M. Krack, J. Hutter, T. D. Kühne.
 J. Phys. Chem. B 130, 1237-1310 (2026).
 The CP2K Program Package Made Simple.
 https://doi.org/10.1021/acs.jpcb.5c05851

 A. Katbashev, M. Stahn, T. Rose, V. Alizadeh, M. Friede, C. Plett, P. 
 Steinbach, S. Ehlert.
 J. Phys. Chem. A 129, 2667-2682 (2025).
 Overview on Building Blocks and Applications of Efficient and Robust Extended 
 Tight Binding.
 https://doi.org/10.1021/acs.jpca.4c08263

 T. D. Kühne, M. Iannuzzi, M. Del Ben, V. V. Rybkin, P. Seewald, F. Stein, T. 
 Laino, R. Z. Khaliullin, O. Schütt, F. Schiffmann, D. Golze, J. Wilhelm, S. 
 Chulkov, M. H. Bani-Hashemian, V. Weber, U. Borstnik, M. Taillefumier, A. S. 
 Jakobovits, A. Lazzaro, H. Pabst, T. Müller, R. Schade, M. Guidon, S. 
 Andermatt, N. Holmberg, G. K. Schenter, A. Hehn, A. Bussy, F. Belleflamme, G. 
 Tabacchi, A. Glöß, M. Lass, I. Bethune, C. J. Mundy, C. Plessl, M. Watkins, 
 J. VandeVondele, M. Krack, J. Hutter.
 J. Chem. Phys. 152, 194103 (2020).
 CP2K: An electronic structure and molecular dynamics software package - 
 Quickstep: Efficient and accurate electronic structure calculations.
 https://doi.org/10.1063/5.0007045

 P. Pracht, E. Caldeweyher, S. Ehlert, S. Grimme.
 ChemRxiv, (2019).
 A Robust Non-Self-Consistent Tight-Binding Quantum Chemistry Method for large 
 Molecules.
 https://doi.org/10.26434/chemrxiv.8326202.v1

 S. Grimme, C. Bannwarth, P. Shushkov.
 J. Chem. Theory Comput. 13, 1989 (2017).
 A Robust and Accurate Tight-Binding Quantum Chemical Method for Structures, 
 Vibrational Frequencies, and Noncovalent Interactions of Large Molecular 
 Systems Parametrized for All spd-Block Elements (Z = 1-86).
 https://doi.org/10.1021/acs.jctc.7b00118

 O. Schuett, P. Messmer, J. Hutter, J. VandeVondele.
 Electronic Structure Calculations on Graphics Processing Units, 173-190 (2016).
 GPU-Accelerated Sparse Matrix-Matrix Multiplication for Linear Scaling Density 
 Functional Theory.
 https://doi.org/10.1002/9781118670712.ch8

 U. Borstnik, J. VandeVondele, V. Weber, J. Hutter.
 Parallel Comput. 40, 47-58 (2014).
 Sparse matrix multiplication: The distributed block-compressed sparse row 
 library.
 https://doi.org/10.1016/j.parco.2014.03.012

 M. Frigo, S. G. Johnson.
 Proc. IEEE 93, 216-231 (2005).
 The design and implementation of FFTW3.
 https://doi.org/10.1109/JPROC.2004.840301

 C.-L. Fu, K.-M. Ho.
 Phys. Rev. B 28, 5480-5486 (1983).
 First-principles calculation of the equilibrium ground-state properties of 
 transition metals: Applications to Nb and Mo.
 https://doi.org/10.1103/PhysRevB.28.5480


 -------------------------------------------------------------------------------
 -                                                                             -
 -                                T I M I N G                                  -
 -                                                                             -
 -------------------------------------------------------------------------------
 SUBROUTINE                       CALLS  ASD         SELF TIME        TOTAL TIME
                                MAXIMUM       AVERAGE  MAXIMUM  AVERAGE  MAXIMUM
 CP2K                                 1  1.0    0.015    0.015   61.851   61.851
 qs_energies                          1  2.0    0.001    0.001   61.821   61.821
 scf_env_do_scf                       1  3.0    0.000    0.000   61.096   61.096
 scf_env_do_scf_inner_loop           11  4.0    1.211    1.211   61.096   61.096
 qs_ks_update_qs_env                 11  5.0    0.000    0.000   48.917   48.917
 rebuild_ks_matrix                   11  6.0    0.000    0.000   48.893   48.893
 build_tblite_ks_matrix              11  7.0   46.912   46.912   48.893   48.893
 qs_scf_new_mos_kp                   11  5.0    0.000    0.000    8.956    8.956
 do_general_diag_kp                  11  6.0    0.059    0.059    8.956    8.956
 rskp_transform                   12096  6.8    8.734    8.734    8.734    8.734
 kpoint_density_transform            11  7.0    0.011    0.011    2.058    2.058
 transform_dmat                    2376  8.0    1.655    1.655    1.655    1.655
 -------------------------------------------------------------------------------

 The number of warnings for this run is : 1
 
 -------------------------------------------------------------------------------
  **** **** ******  **  PROGRAM ENDED AT                 2026-07-21 12:33:38.598
 ***** ** ***  *** **   PROGRAM RAN ON                                     terok
 **    ****   ******    PROGRAM RAN BY                                  kuehne88
 ***** **    ** ** **   PROGRAM PROCESS ID                                433728
  **** **  *******  **  PROGRAM STOPPED IN /home/kuehne88/work/kpoint-reduction-
                                           audit-20260721/results/round2/ch4_k66
                                           6_full_complete
