 DBCSR| CPU Multiplication driver                                           BLAS (U)
 DBCSR| Multrec recursion limit                                              512 (U)
 DBCSR| Multiplication stack size                                           1000 (D)
 DBCSR| Maximum elements for images                                    UNLIMITED (U)
 DBCSR| Multiplicative factor virtual images                                   1 (U)
 DBCSR| Use multiplication densification                                       T (D)
 DBCSR| Multiplication size stacks                                             3 (U)
 DBCSR| Use memory pool for CPU allocation                                     F (U)
 DBCSR| Number of 3D layers                                               SINGLE (U)
 DBCSR| Use MPI memory allocation                                              F (U)
 DBCSR| Use RMA algorithm                                                      F (U)
 DBCSR| Use Communication thread                                               T (U)
 DBCSR| Communication thread load                                             87 (D)
 DBCSR| MPI: My process id                                                     0
 DBCSR| MPI: Number of processes                                               1
 DBCSR| OMP: Current number of threads                                         1
 DBCSR| OMP: Max number of threads                                             1
 DBCSR| Split modifier for TAS multiplication algorithm                  1.0E+00 (U)


  **** **** ******  **  PROGRAM STARTED AT               2026-07-21 12:49:57.179
 ***** ** ***  *** **   PROGRAM STARTED ON                                 terok
 **    ****   ******    PROGRAM STARTED BY                              kuehne88
 ***** **    ** ** **   PROGRAM PROCESS ID                                550689
  **** **  *******  **  PROGRAM STARTED IN /home/kuehne88/work/gxtb-lowk-rerun-2
                                           0260721/results/derivative/H2_gxtb_ga
                                           mma_supercell_311_force_stress

 CP2K| version string:                 CP2K version 2026.2 (Development Version)
 CP2K| source code revision number:                                    8520b2e59
 CP2K| cp2kflags: omp parallel scalapack spglib s_dftd3 mctc-lib tblite tblite_g
 CP2K|            xtb
 CP2K| is freely available from                            https://www.cp2k.org/
 CP2K| Program compiled at                                   2026-07-18 23:48:15
 CP2K| Program compiled on                                                 terok
 CP2K| Program compiled for                                               x86_64
 CP2K| Data directory path                            /usr/local/share/cp2k/data
 CP2K| Input file name        /home/kuehne88/work/gxtb-lowk-rerun-20260721/input

 GLOBAL| Force Environment number                                              1
 GLOBAL| Basis set file name                                           BASIS_SET
 GLOBAL| Potential file name                                           POTENTIAL
 GLOBAL| MM Potential file name                                     MM_POTENTIAL
 GLOBAL| Coordinate file name                                      __STD_INPUT__
 GLOBAL| Method name                                                        CP2K
 GLOBAL| Project name                   H2_gxtb_gamma_supercell_311_force_stress
 GLOBAL| Run type                                                          DEBUG
 GLOBAL| FFT library                                                       FFTW3
 GLOBAL| Diagonalization library                                       ScaLAPACK
 GLOBAL| Cholesky decomposition library                                ScaLAPACK
 GLOBAL| DGEMM library                                                      BLAS
 GLOBAL| Direct generalized diagonalization requested                          F
 GLOBAL| Orthonormality check for eigenvectors                          DISABLED
 GLOBAL| Matrix multiplication library                                 ScaLAPACK
 GLOBAL| All-to-all communication in single precision                          F
 GLOBAL| FFTs using library dependent lengths                                  F
 GLOBAL| Grid backend                                                       AUTO
 GLOBAL| Global print level                                               MEDIUM
 GLOBAL| MPI I/O enabled                                                       T
 GLOBAL| Total number of message passing processes                             1
 GLOBAL| Number of distributed systems (nodes)                                 1
 GLOBAL| Number of threads for this process                                    1
 GLOBAL| This output is from process                                           0
 GLOBAL| OpenMP stack size per thread (OMP_STACKSIZE)                    default
 GLOBAL| CPU model name                                       AMD EPYC Processor
 GLOBAL| CPUID                                                              1002

 MEMORY| system memory details [Kb]
 MEMORY|                        rank 0           min           max       average
 MEMORY| MemTotal            528104804     528104804     528104804     528104804
 MEMORY| MemFree             511474160     511474160     511474160     511474160
 MEMORY| Buffers                    20            20            20            20
 MEMORY| Cached               12078156      12078156      12078156      12078156
 MEMORY| Slab                  2342384       2342384       2342384       2342384
 MEMORY| SReclaimable           994136        994136        994136        994136
 MEMORY| MemLikelyFree       524546472     524546472     524546472     524546472


 *** WARNING in environment.F:1098 :: FFT library FFTW3 is not available. ***
 *** Trying FFT library FFTSG.                                            ***


 *** Fundamental physical constants (SI units) ***

 *** Literature: B. J. Mohr and B. N. Taylor,
 ***             CODATA recommended values of the fundamental physical
 ***             constants: 2006, Web Version 5.1
 ***             http://physics.nist.gov/constants

 Speed of light in vacuum [m/s]                             2.99792458000000E+08
 Magnetic constant or permeability of vacuum [N/A**2]       1.25663706143592E-06
 Electric constant or permittivity of vacuum [F/m]          8.85418781762039E-12
 Planck constant (h) [J*s]                                  6.62606896000000E-34
 Planck constant (h-bar) [J*s]                              1.05457162825177E-34
 Elementary charge [C]                                      1.60217648700000E-19
 Electron mass [kg]                                         9.10938215000000E-31
 Electron g factor [ ]                                     -2.00231930436220E+00
 Proton mass [kg]                                           1.67262163700000E-27
 Fine-structure constant                                    7.29735253760000E-03
 Rydberg constant [1/m]                                     1.09737315685270E+07
 Avogadro constant [1/mol]                                  6.02214179000000E+23
 Boltzmann constant [J/K]                                   1.38065040000000E-23
 Atomic mass unit [kg]                                      1.66053878200000E-27
 Bohr radius [m]                                            5.29177208590000E-11

 *** Conversion factors ***

 [u] -> [a.u.]                                              1.82288848426455E+03
 [Angstrom] -> [Bohr] = [a.u.]                              1.88972613288564E+00
 [a.u.] = [Bohr] -> [Angstrom]                              5.29177208590000E-01
 [a.u.] -> [s]                                              2.41888432650478E-17
 [a.u.] -> [fs]                                             2.41888432650478E-02
 [a.u.] -> [J]                                              4.35974393937059E-18
 [a.u.] -> [N]                                              8.23872205491840E-08
 [a.u.] -> [K]                                              3.15774647902944E+05
 [a.u.] -> [kJ/mol]                                         2.62549961709828E+03
 [a.u.] -> [kcal/mol]                                       6.27509468713739E+02
 [a.u.] -> [Pa]                                             2.94210107994716E+13
 [a.u.] -> [bar]                                            2.94210107994716E+08
 [a.u.] -> [atm]                                            2.90362800883016E+08
 [a.u.] -> [eV]                                             2.72113838565563E+01
 [a.u.] -> [Hz]                                             6.57968392072181E+15
 [a.u.] -> [1/cm] (wave numbers)                            2.19474631370540E+05
 [a.u./Bohr**2] -> [1/cm]                                   5.14048714338585E+03
 

 CELL| Volume [angstrom^3]:                                           243.294000
 CELL| Vector a [angstrom]:      12.300     0.000     0.000   |a| =    12.300000
 CELL| Vector b [angstrom]:       0.350     4.300     0.000   |b| =     4.314221
 CELL| Vector c [angstrom]:       0.200     0.270     4.600   |c| =     4.612255
 CELL| Angle (b,c), alpha [degree]:                                    86.453153
 CELL| Angle (a,c), beta  [degree]:                                    87.514719
 CELL| Angle (a,b), gamma [degree]:                                    85.346648
 CELL| Numerically orthorhombic:                                              NO
 CELL| Periodicity                                                           XYZ

 CELL_REF| Volume [angstrom^3]:                                       243.294000
 CELL_REF| Vector a [angstrom    12.300     0.000     0.000   |a| =    12.300000
 CELL_REF| Vector b [angstrom     0.350     4.300     0.000   |b| =     4.314221
 CELL_REF| Vector c [angstrom     0.200     0.270     4.600   |c| =     4.612255
 CELL_REF| Angle (b,c), alpha [degree]:                                86.453153
 CELL_REF| Angle (a,c), beta  [degree]:                                87.514719
 CELL_REF| Angle (a,b), gamma [degree]:                                85.346648
 CELL_REF| Numerically orthorhombic:                                          NO
 CELL_REF| Periodicity                                                       XYZ

 GENERATE|  Preliminary Number of Bonds generated:                             0
 GENERATE|  Achieved consistency in connectivity generation.


                  #####   #####        #     #   #     #       #          
                 #     # #     #      #    ##### #     #   # #####  ####  
                 #     # #           #       #   ###   #       #   #    # 
                 #     #  #####     #        #   #  #  #   #   #   ###### 
                 #   # #       #   #         #   #   # #   #   #   #      
                 #    #  #     #  #          #   #  #  # # #   #    #   # 
                  #### #  #####  #           #   ###   ##  #   #     ###  

                                     g-xTB   
                                 Version 0.0                       
                            Johann V. Pototschnig                  

                tblite provider: SAVE
                tblite source revision: 15915c9435644eb257178ca8f8bf7220c38b1a84
                g-xTB support: enabled

 xTB| Parameter file                                             xTB1_parameters
 xTB| Basis expansion STO-NG                                                   6
 xTB| Basis expansion STO-NG for Hydrogen                                      4
 xTB| Repulsive pair potential accuracy                               0.1000E-09
 xTB| Repulsive enhancement factor                                      0.000000
 xTB| Halogen interaction potential                                            T
 xTB| Halogen interaction potential cutoff radius                         20.000
 xTB| Nonbonded interactions                                                   F
 xTB| vdW potential type:                                              DFTD3(BJ)
 xTB| D3 Dispersion: Parameter                                         dftd3.dat
 xTB| Huckel constants ks kp kd                        1.850     2.250     2.000
 xTB| Huckel constants ksp k2sh                                  2.080     2.850
 xTB| Mataga-Nishimoto exponent                                            2.000
 xTB| Repulsion potential exponent                                         1.500
 xTB| Coordination number scaling kcn(s) kcn(p) kc     0.006    -0.003    -0.005
 xTB| Electronegativity scaling                                           -0.007
 xTB| Halogen potential scaling kxr kx2                          1.300     0.440
 xTB| SCC mixer:                                                       TBLITE
 xTB| tblite accuracy:                                                 1.000E+00
 xTB| tblite SCC mixer damping:                                            0.400
 xTB| tblite SCC mixer iterations:                                           250
 xTB| tblite SCC mixer memory:                                               250
 xTB| tblite SCC mixer solver:                                         GVD
 xTB| tblite SCC mixer omega0:                                         1.000E-02
 xTB| tblite SCC mixer min weight:                                     1.000E+00
 xTB| tblite SCC mixer max weight:                                     1.000E+05
 xTB| tblite SCC mixer weight factor:                                  1.000E-02




 ATOMIC KIND INFORMATION

  1. Atomic kind: H                                     Number of atoms:       6

     Orbital Basis Set                                                 H _STO-8G

       Number of orbital shell sets:                                           1
       Number of orbital shells:                                               1
       Number of primitive Cartesian functions:                                8
       Number of Cartesian basis functions:                                    1
       Number of spherical basis functions:                                    1
       Norm type:                                                              3

       Normalised Cartesian orbitals:

                        Set   Shell   Orbital            Exponent    Coefficient

                          1       1    1s              337.005012       0.029103
                                                        53.310531       0.055706
                                                        12.208253       0.093252
                                                         3.418827       0.148451
                                                         1.108790       0.174656
                                                         0.478718       0.117275
                                                         0.212137       0.082208
                                                         0.069058       0.017621

     AE Potential information for                                       Hydrogen

       Description:                                       Bare Coulomb Potential
                                                              Full atomic charge

       Gaussian exponent of the core charge distribution:              12.500000
       Electronic configuration (s p d ...):                       1   0   0   0


 MOLECULE KIND INFORMATION


 All atoms are their own molecule, skipping detailed information


 TOTAL NUMBERS AND MAXIMUM NUMBERS

  Total number of            - Atomic kinds:                                   1
                             - Atoms:                                          6
                             - Shell sets:                                     6
                             - Shells:                                         6
                             - Primitive Cartesian functions:                 48
                             - Cartesian basis functions:                      6
                             - Spherical basis functions:                      6

  Maximum angular momentum of the orbital basis functions:                     0


 MODULE QUICKSTEP: ATOMIC COORDINATES IN ANGSTROM

   Atom Kind Element         X             Y             Z       Z(eff)     Mass
      1    1 H     1      0.730000      0.910000      1.130000   1.0000   1.0079
      2    1 H     1      1.480000      1.120000      1.260000   1.0000   1.0079
      3    1 H     1      4.830000      0.910000      1.130000   1.0000   1.0079
      4    1 H     1      5.580000      1.120000      1.260000   1.0000   1.0079
      5    1 H     1      8.930000      0.910000      1.130000   1.0000   1.0079
      6    1 H     1      9.680000      1.120000      1.260000   1.0000   1.0079



 SCF PARAMETERS         Density guess:                                     MOPAC
                        --------------------------------------------------------
                        max_scf:                                             250
                        max_scf_history:                                       0
                        max_diis:                                              4
                        --------------------------------------------------------
                        eps_scf:                                        1.00E-10
                        eps_scf_history:                                0.00E+00
                        eps_diis:                                       1.00E-01
                        eps_eigval:                                     1.00E-05
                        --------------------------------------------------------
                        level_shift [a.u.]:                             0.000000
                        added MOs                                         3    0
                        --------------------------------------------------------
                        Mixing method:                           DIRECT_P_MIXING
                        --------------------------------------------------------
                        No outer SCF

 PW_GRID| Information for grid number                                          1
 PW_GRID| Cutoff [a.u.]                                                      1.0
 PW_GRID| spherical cutoff:                                                   NO
 PW_GRID|   Bounds   1             -6       5                Points:          12
 PW_GRID|   Bounds   2             -2       1                Points:           4
 PW_GRID|   Bounds   3             -2       1                Points:           4
 PW_GRID| Volume element (a.u.^3)   8.551         Volume (a.u.^3)      1641.8293
 PW_GRID| Grid span                                                    FULLSPACE

 POISSON| Solver                                                        PERIODIC
 POISSON| Periodicity                                                        XYZ

 RS_GRID| Information for grid number                                          1
 RS_GRID|   Bounds   1             -6       5                Points:          12
 RS_GRID|   Bounds   2             -2       1                Points:           4
 RS_GRID|   Bounds   3             -2       1                Points:           4

 Extrapolation method: initial_guess

 Number of electrons:                                                          6
 Number of occupied orbitals:                                                  3
 Number of molecular orbitals:                                                 6

 Number of orbital functions:                                                  6
 Number of independent orbital functions:                                      6


 SCF WAVEFUNCTION OPTIMIZATION

  Step     Update method      Time    Convergence         Total energy    Change
  ------------------------------------------------------------------------------
     1 GXTB-Raw    0.10E+01    0.0     0.58099481        -3.5900984354 -3.59E+00
     2 GXTB-Simple 0.20E+00    0.0     0.00170881        -3.5901308374 -3.24E-05
     3 GXTB-Simple 0.20E+00    0.0     0.00144752        -3.5901535091 -2.27E-05
     4 GXTB-FDIIS  0.10E+01    0.0     0.00680764        -3.5902018914 -4.84E-05
     5 GXTB-FDIIS  0.10E+01    0.0     0.00005479        -3.5902018939 -2.49E-09
     6 GXTB-FDIIS  0.10E+01    0.0     0.00000504        -3.5902018939 -2.77E-11
     7 GXTB-FDIIS  0.10E+01    0.0     0.00000020        -3.5902018939 -2.62E-14
     8 GXTB-FDIIS  0.10E+01    0.0     0.00000032        -3.5902018939  1.31E-13
     9 GXTB-FDIIS  0.10E+01    0.0     0.00000008        -3.5902018939 -5.15E-14
    10 GXTB-FDIIS  0.10E+01    0.0     0.00000028        -3.5902018939 -7.99E-14
    11 GXTB-FDIIS  0.10E+01    0.0     3.0399E-13        -3.5902018939 -8.88E-16

  *** SCF run converged in    11 steps ***


  Core Hamiltonian energy:                                     -3.26122037140871
  Repulsive potential energy:                                   0.25439848066596
  Electrostatic energy:                                         0.02432985832753
  Self-consistent dispersion energy:                           -0.00071975159748
  Non-self consistent dispersion energy:                        0.00000997686116
  Correction for halogen bonding:                               0.00000000000000

  Total energy:                                                -3.59020189391449


 MULLIKEN POPULATION ANALYSIS

  # Atom   Element   Kind        Atomic population                    Net charge
       1     H          1                 1.000000                      0.000000
       2     H          1                 1.000000                     -0.000000
       3     H          1                 1.000000                     -0.000000
       4     H          1                 1.000000                      0.000000
       5     H          1                 1.000000                      0.000000
       6     H          1                 1.000000                     -0.000000
 # Total charge                           6.000000                     -0.000000


 ENERGY| Total FORCE_EVAL ( QS ) energy [hartree]             -3.590201893914485

 -------------------------------------------------------------------------------
 ----                             MULTIGRID INFO                            ----
 -------------------------------------------------------------------------------
 total grid count     :            72              cutoff [a.u.]            1.00

 PW_GRID| Information for grid number                                          2
 PW_GRID| Cutoff [a.u.]                                                      1.0
 PW_GRID| spherical cutoff:                                                   NO
 PW_GRID|   Bounds   1             -6       5                Points:          12
 PW_GRID|   Bounds   2             -2       1                Points:           4
 PW_GRID|   Bounds   3             -2       1                Points:           4
 PW_GRID| Volume element (a.u.^3)   8.551         Volume (a.u.^3)      1641.8364
 PW_GRID| Grid span                                                    FULLSPACE

 POISSON| Solver                                                        PERIODIC
 POISSON| Periodicity                                                        XYZ

 RS_GRID| Information for grid number                                          2
 RS_GRID|   Bounds   1             -6       5                Points:          12
 RS_GRID|   Bounds   2             -2       1                Points:           4
 RS_GRID|   Bounds   3             -2       1                Points:           4

 Parameters for the always stable predictor-corrector (ASPC) method:

  ASPC order: 0

  B(1) =   1.000000

 Extrapolation method: ASPC

 Number of electrons:                                                          6
 Number of occupied orbitals:                                                  3
 Number of molecular orbitals:                                                 6

 Number of orbital functions:                                                  6
 Number of independent orbital functions:                                      6


 SCF WAVEFUNCTION OPTIMIZATION

  Step     Update method      Time    Convergence         Total energy    Change
  ------------------------------------------------------------------------------
     1 GXTB-Raw    0.10E+01    0.0     0.00000033        -3.5902014742 -3.59E+00
     2 GXTB-Simple 0.20E+00    0.0     0.00000003        -3.5902014742 -9.33E-15
     3 GXTB-Simple 0.20E+00    0.0     0.00000002        -3.5902014742 -6.22E-15
     4 GXTB-FDIIS  0.10E+01    0.0     0.00000010        -3.5902014742 -1.33E-14
     5 GXTB-FDIIS  0.10E+01    0.0     1.8198E-10        -3.5902014742  2.66E-15
     6 GXTB-FDIIS  0.10E+01    0.0     1.2212E-15        -3.5902014742  0.00E+00

  *** SCF run converged in     6 steps ***


  Core Hamiltonian energy:                                     -3.26121606572684
  Repulsive potential energy:                                   0.25439495581889
  Electrostatic energy:                                         0.02432951843954
  Self-consistent dispersion energy:                           -0.00071974945879
  Non-self consistent dispersion energy:                        0.00000997690742
  Correction for halogen bonding:                               0.00000000000000

  Total energy:                                                -3.59020147416296


 MULLIKEN POPULATION ANALYSIS

  # Atom   Element   Kind        Atomic population                    Net charge
       1     H          1                 1.000000                     -0.000000
       2     H          1                 1.000000                     -0.000000
       3     H          1                 1.000000                      0.000000
       4     H          1                 1.000000                      0.000000
       5     H          1                 1.000000                     -0.000000
       6     H          1                 1.000000                      0.000000
 # Total charge                           6.000000                     -0.000000


 ENERGY| Total FORCE_EVAL ( QS ) energy [hartree]             -3.590201474162957

 -------------------------------------------------------------------------------
 ----                             MULTIGRID INFO                            ----
 -------------------------------------------------------------------------------
 total grid count     :            72              cutoff [a.u.]            1.00

 PW_GRID| Information for grid number                                          3
 PW_GRID| Cutoff [a.u.]                                                      1.0
 PW_GRID| spherical cutoff:                                                   NO
 PW_GRID|   Bounds   1             -6       5                Points:          12
 PW_GRID|   Bounds   2             -2       1                Points:           4
 PW_GRID|   Bounds   3             -2       1                Points:           4
 PW_GRID| Volume element (a.u.^3)   8.551         Volume (a.u.^3)      1641.8223
 PW_GRID| Grid span                                                    FULLSPACE

 POISSON| Solver                                                        PERIODIC
 POISSON| Periodicity                                                        XYZ

 RS_GRID| Information for grid number                                          3
 RS_GRID|   Bounds   1             -6       5                Points:          12
 RS_GRID|   Bounds   2             -2       1                Points:           4
 RS_GRID|   Bounds   3             -2       1                Points:           4

 Parameters for the always stable predictor-corrector (ASPC) method:

  ASPC order: 0

  B(1) =   2.000000
  B(2) =  -1.000000

 Extrapolation method: ASPC

 Number of electrons:                                                          6
 Number of occupied orbitals:                                                  3
 Number of molecular orbitals:                                                 6

 Number of orbital functions:                                                  6
 Number of independent orbital functions:                                      6


 SCF WAVEFUNCTION OPTIMIZATION

  Step     Update method      Time    Convergence         Total energy    Change
  ------------------------------------------------------------------------------
     1 GXTB-Raw    0.10E+01    0.0     0.00000067        -3.5902023137 -3.59E+00
     2 GXTB-Simple 0.20E+00    0.0     0.00000006        -3.5902023137 -3.82E-14
     3 GXTB-Simple 0.20E+00    0.0     0.00000005        -3.5902023137 -2.04E-14
     4 GXTB-FDIIS  0.10E+01    0.0     0.00000020        -3.5902023137 -4.31E-14
     5 GXTB-FDIIS  0.10E+01    0.0     3.6392E-10        -3.5902023137 -4.44E-16
     6 GXTB-FDIIS  0.10E+01    0.0     9.9920E-16        -3.5902023137  0.00E+00

  *** SCF run converged in     6 steps ***


  Core Hamiltonian energy:                                     -3.26122467712791
  Repulsive potential energy:                                   0.25440200555997
  Electrostatic energy:                                         0.02433019821936
  Self-consistent dispersion energy:                           -0.00071975373685
  Non-self consistent dispersion energy:                        0.00000997681491
  Correction for halogen bonding:                               0.00000000000000

  Total energy:                                                -3.59020231365325


 MULLIKEN POPULATION ANALYSIS

  # Atom   Element   Kind        Atomic population                    Net charge
       1     H          1                 1.000000                     -0.000000
       2     H          1                 1.000000                      0.000000
       3     H          1                 1.000000                     -0.000000
       4     H          1                 1.000000                      0.000000
       5     H          1                 1.000000                     -0.000000
       6     H          1                 1.000000                     -0.000000
 # Total charge                           6.000000                     -0.000000


 ENERGY| Total FORCE_EVAL ( QS ) energy [hartree]             -3.590202313653247

 -------------------------------------------------------------------------------
 ----                             MULTIGRID INFO                            ----
 -------------------------------------------------------------------------------
 total grid count     :            72              cutoff [a.u.]            1.00

 PW_GRID| Information for grid number                                          4
 PW_GRID| Cutoff [a.u.]                                                      1.0
 PW_GRID| spherical cutoff:                                                   NO
 PW_GRID|   Bounds   1             -6       5                Points:          12
 PW_GRID|   Bounds   2             -2       1                Points:           4
 PW_GRID|   Bounds   3             -2       1                Points:           4
 PW_GRID| Volume element (a.u.^3)   8.551         Volume (a.u.^3)      1641.8293
 PW_GRID| Grid span                                                    FULLSPACE

 POISSON| Solver                                                        PERIODIC
 POISSON| Periodicity                                                        XYZ

 RS_GRID| Information for grid number                                          4
 RS_GRID|   Bounds   1             -6       5                Points:          12
 RS_GRID|   Bounds   2             -2       1                Points:           4
 RS_GRID|   Bounds   3             -2       1                Points:           4

 Parameters for the always stable predictor-corrector (ASPC) method:

  ASPC order: 1

  B(1) =   2.500000
  B(2) =  -2.000000
  B(3) =   0.500000

 Extrapolation method: ASPC

 Number of electrons:                                                          6
 Number of occupied orbitals:                                                  3
 Number of molecular orbitals:                                                 6

 Number of orbital functions:                                                  6
 Number of independent orbital functions:                                      6


 SCF WAVEFUNCTION OPTIMIZATION

  Step     Update method      Time    Convergence         Total energy    Change
  ------------------------------------------------------------------------------
     1 GXTB-Raw    0.10E+01    0.0     0.00000047        -3.5902013169 -3.59E+00
     2 GXTB-Simple 0.20E+00    0.0     3.2347E-09        -3.5902013169  4.44E-16
     3 GXTB-Simple 0.20E+00    0.0     2.6182E-09        -3.5902013169  4.44E-16
     4 GXTB-FDIIS  0.10E+01    0.0     0.00000001        -3.5902013169 -1.33E-15
     5 GXTB-FDIIS  0.10E+01    0.0     2.9683E-11        -3.5902013169  2.66E-15

  *** SCF run converged in     5 steps ***


  Core Hamiltonian energy:                                     -3.26121680724426
  Repulsive potential energy:                                   0.25439567739473
  Electrostatic energy:                                         0.02432967758130
  Self-consistent dispersion energy:                           -0.00071975699278
  Non-self consistent dispersion energy:                        0.00000997694691
  Correction for halogen bonding:                               0.00000000000000

  Total energy:                                                -3.59020131693770


 MULLIKEN POPULATION ANALYSIS

  # Atom   Element   Kind        Atomic population                    Net charge
       1     H          1                 1.000000                     -0.000000
       2     H          1                 1.000000                      0.000000
       3     H          1                 1.000000                      0.000000
       4     H          1                 1.000000                      0.000000
       5     H          1                 1.000000                      0.000000
       6     H          1                 1.000000                     -0.000000
 # Total charge                           6.000000                      0.000000


 ENERGY| Total FORCE_EVAL ( QS ) energy [hartree]             -3.590201316937697

 -------------------------------------------------------------------------------
 ----                             MULTIGRID INFO                            ----
 -------------------------------------------------------------------------------
 total grid count     :            72              cutoff [a.u.]            1.00

 PW_GRID| Information for grid number                                          5
 PW_GRID| Cutoff [a.u.]                                                      1.0
 PW_GRID| spherical cutoff:                                                   NO
 PW_GRID|   Bounds   1             -6       5                Points:          12
 PW_GRID|   Bounds   2             -2       1                Points:           4
 PW_GRID|   Bounds   3             -2       1                Points:           4
 PW_GRID| Volume element (a.u.^3)   8.551         Volume (a.u.^3)      1641.8293
 PW_GRID| Grid span                                                    FULLSPACE

 POISSON| Solver                                                        PERIODIC
 POISSON| Periodicity                                                        XYZ

 RS_GRID| Information for grid number                                          5
 RS_GRID|   Bounds   1             -6       5                Points:          12
 RS_GRID|   Bounds   2             -2       1                Points:           4
 RS_GRID|   Bounds   3             -2       1                Points:           4

 Parameters for the always stable predictor-corrector (ASPC) method:

  ASPC order: 2

  B(1) =   2.800000
  B(2) =  -2.800000
  B(3) =   1.200000
  B(4) =  -0.200000

 Extrapolation method: ASPC

 Number of electrons:                                                          6
 Number of occupied orbitals:                                                  3
 Number of molecular orbitals:                                                 6

 Number of orbital functions:                                                  6
 Number of independent orbital functions:                                      6


 SCF WAVEFUNCTION OPTIMIZATION

  Step     Update method      Time    Convergence         Total energy    Change
  ------------------------------------------------------------------------------
     1 GXTB-Raw    0.10E+01    0.0     0.00000028        -3.5902024709 -3.59E+00
     2 GXTB-Simple 0.20E+00    0.0     0.00000005        -3.5902024709 -2.93E-14
     3 GXTB-Simple 0.20E+00    0.0     0.00000004        -3.5902024709 -1.82E-14
     4 GXTB-FDIIS  0.10E+01    0.0     0.00000018        -3.5902024709 -3.42E-14
     5 GXTB-FDIIS  0.10E+01    0.0     6.3526E-10        -3.5902024709 -8.88E-16
     6 GXTB-FDIIS  0.10E+01    0.0     9.9920E-16        -3.5902024709  1.78E-15

  *** SCF run converged in     6 steps ***


  Core Hamiltonian energy:                                     -3.26122393557321
  Repulsive potential energy:                                   0.25440128396688
  Electrostatic energy:                                         0.02433003908002
  Self-consistent dispersion energy:                           -0.00071974620251
  Non-self consistent dispersion energy:                        0.00000997677541
  Correction for halogen bonding:                               0.00000000000000

  Total energy:                                                -3.59020247085152


 MULLIKEN POPULATION ANALYSIS

  # Atom   Element   Kind        Atomic population                    Net charge
       1     H          1                 1.000000                      0.000000
       2     H          1                 1.000000                      0.000000
       3     H          1                 1.000000                      0.000000
       4     H          1                 1.000000                      0.000000
       5     H          1                 1.000000                      0.000000
       6     H          1                 1.000000                      0.000000
 # Total charge                           6.000000                      0.000000


 ENERGY| Total FORCE_EVAL ( QS ) energy [hartree]             -3.590202470851518

 -------------------------------------------------------------------------------
 ----                             MULTIGRID INFO                            ----
 -------------------------------------------------------------------------------
 total grid count     :            72              cutoff [a.u.]            1.00

 PW_GRID| Information for grid number                                          6
 PW_GRID| Cutoff [a.u.]                                                      1.0
 PW_GRID| spherical cutoff:                                                   NO
 PW_GRID|   Bounds   1             -6       5                Points:          12
 PW_GRID|   Bounds   2             -2       1                Points:           4
 PW_GRID|   Bounds   3             -2       1                Points:           4
 PW_GRID| Volume element (a.u.^3)   8.551         Volume (a.u.^3)      1641.8293
 PW_GRID| Grid span                                                    FULLSPACE

 POISSON| Solver                                                        PERIODIC
 POISSON| Periodicity                                                        XYZ

 RS_GRID| Information for grid number                                          6
 RS_GRID|   Bounds   1             -6       5                Points:          12
 RS_GRID|   Bounds   2             -2       1                Points:           4
 RS_GRID|   Bounds   3             -2       1                Points:           4

 Parameters for the always stable predictor-corrector (ASPC) method:

  ASPC order: 3

  B(1) =   3.000000
  B(2) =  -3.428571
  B(3) =   1.928571
  B(4) =  -0.571429
  B(5) =   0.071429

 Extrapolation method: ASPC

 Number of electrons:                                                          6
 Number of occupied orbitals:                                                  3
 Number of molecular orbitals:                                                 6

 Number of orbital functions:                                                  6
 Number of independent orbital functions:                                      6


 SCF WAVEFUNCTION OPTIMIZATION

  Step     Update method      Time    Convergence         Total energy    Change
  ------------------------------------------------------------------------------
     1 GXTB-Raw    0.10E+01    0.0     0.00000023        -3.5902016161 -3.59E+00
     2 GXTB-Simple 0.20E+00    0.0     0.00000004        -3.5902016161 -1.64E-14
     3 GXTB-Simple 0.20E+00    0.0     0.00000003        -3.5902016161 -1.20E-14
     4 GXTB-FDIIS  0.10E+01    0.0     0.00000015        -3.5902016161 -2.18E-14
     5 GXTB-FDIIS  0.10E+01    0.0     5.0948E-10        -3.5902016161 -8.88E-16
     6 GXTB-FDIIS  0.10E+01    0.0     1.1102E-15        -3.5902016161  0.00E+00

  *** SCF run converged in     6 steps ***


  Core Hamiltonian energy:                                     -3.26121826354742
  Repulsive potential energy:                                   0.25439679731444
  Electrostatic energy:                                         0.02432973033544
  Self-consistent dispersion energy:                           -0.00071975489815
  Non-self consistent dispersion energy:                        0.00000997691458
  Correction for halogen bonding:                               0.00000000000000

  Total energy:                                                -3.59020161613078


 MULLIKEN POPULATION ANALYSIS

  # Atom   Element   Kind        Atomic population                    Net charge
       1     H          1                 1.000000                     -0.000000
       2     H          1                 1.000000                      0.000000
       3     H          1                 1.000000                      0.000000
       4     H          1                 1.000000                      0.000000
       5     H          1                 1.000000                      0.000000
       6     H          1                 1.000000                     -0.000000
 # Total charge                           6.000000                     -0.000000


 ENERGY| Total FORCE_EVAL ( QS ) energy [hartree]             -3.590201616130780

 -------------------------------------------------------------------------------
 ----                             MULTIGRID INFO                            ----
 -------------------------------------------------------------------------------
 total grid count     :            72              cutoff [a.u.]            1.00

 PW_GRID| Information for grid number                                          7
 PW_GRID| Cutoff [a.u.]                                                      1.0
 PW_GRID| spherical cutoff:                                                   NO
 PW_GRID|   Bounds   1             -6       5                Points:          12
 PW_GRID|   Bounds   2             -2       1                Points:           4
 PW_GRID|   Bounds   3             -2       1                Points:           4
 PW_GRID| Volume element (a.u.^3)   8.551         Volume (a.u.^3)      1641.8293
 PW_GRID| Grid span                                                    FULLSPACE

 POISSON| Solver                                                        PERIODIC
 POISSON| Periodicity                                                        XYZ

 RS_GRID| Information for grid number                                          7
 RS_GRID|   Bounds   1             -6       5                Points:          12
 RS_GRID|   Bounds   2             -2       1                Points:           4
 RS_GRID|   Bounds   3             -2       1                Points:           4

 Parameters for the always stable predictor-corrector (ASPC) method:

  ASPC order: 3

  B(1) =   3.000000
  B(2) =  -3.428571
  B(3) =   1.928571
  B(4) =  -0.571429
  B(5) =   0.071429

 Extrapolation method: ASPC

 Number of electrons:                                                          6
 Number of occupied orbitals:                                                  3
 Number of molecular orbitals:                                                 6

 Number of orbital functions:                                                  6
 Number of independent orbital functions:                                      6


 SCF WAVEFUNCTION OPTIMIZATION

  Step     Update method      Time    Convergence         Total energy    Change
  ------------------------------------------------------------------------------
     1 GXTB-Raw    0.10E+01    0.0     0.00000019        -3.5902021717 -3.59E+00
     2 GXTB-Simple 0.20E+00    0.0     0.00000003        -3.5902021717 -7.99E-15
     3 GXTB-Simple 0.20E+00    0.0     0.00000003        -3.5902021717 -5.33E-15
     4 GXTB-FDIIS  0.10E+01    0.0     0.00000011        -3.5902021717 -1.29E-14
     5 GXTB-FDIIS  0.10E+01    0.0     3.8271E-10        -3.5902021717 -4.44E-16
     6 GXTB-FDIIS  0.10E+01    0.0     1.0214E-14        -3.5902021717  8.88E-16

  *** SCF run converged in     6 steps ***


  Core Hamiltonian energy:                                     -3.26122247926260
  Repulsive potential energy:                                   0.25440016402819
  Electrostatic energy:                                         0.02432998632424
  Self-consistent dispersion energy:                           -0.00071974829692
  Non-self consistent dispersion energy:                        0.00000997680773
  Correction for halogen bonding:                               0.00000000000000

  Total energy:                                                -3.59020217167562


 MULLIKEN POPULATION ANALYSIS

  # Atom   Element   Kind        Atomic population                    Net charge
       1     H          1                 1.000000                      0.000000
       2     H          1                 1.000000                     -0.000000
       3     H          1                 1.000000                     -0.000000
       4     H          1                 1.000000                      0.000000
       5     H          1                 1.000000                     -0.000000
       6     H          1                 1.000000                      0.000000
 # Total charge                           6.000000                      0.000000


 ENERGY| Total FORCE_EVAL ( QS ) energy [hartree]             -3.590202171675617

 -------------------------------------------------------------------------------
 ----                             MULTIGRID INFO                            ----
 -------------------------------------------------------------------------------
 total grid count     :            72              cutoff [a.u.]            1.00

 PW_GRID| Information for grid number                                          8
 PW_GRID| Cutoff [a.u.]                                                      1.0
 PW_GRID| spherical cutoff:                                                   NO
 PW_GRID|   Bounds   1             -6       5                Points:          12
 PW_GRID|   Bounds   2             -2       1                Points:           4
 PW_GRID|   Bounds   3             -2       1                Points:           4
 PW_GRID| Volume element (a.u.^3)   8.551         Volume (a.u.^3)      1641.8287
 PW_GRID| Grid span                                                    FULLSPACE

 POISSON| Solver                                                        PERIODIC
 POISSON| Periodicity                                                        XYZ

 RS_GRID| Information for grid number                                          8
 RS_GRID|   Bounds   1             -6       5                Points:          12
 RS_GRID|   Bounds   2             -2       1                Points:           4
 RS_GRID|   Bounds   3             -2       1                Points:           4

 Parameters for the always stable predictor-corrector (ASPC) method:

  ASPC order: 3

  B(1) =   3.000000
  B(2) =  -3.428571
  B(3) =   1.928571
  B(4) =  -0.571429
  B(5) =   0.071429

 Extrapolation method: ASPC

 Number of electrons:                                                          6
 Number of occupied orbitals:                                                  3
 Number of molecular orbitals:                                                 6

 Number of orbital functions:                                                  6
 Number of independent orbital functions:                                      6


 SCF WAVEFUNCTION OPTIMIZATION

  Step     Update method      Time    Convergence         Total energy    Change
  ------------------------------------------------------------------------------
     1 GXTB-Raw    0.10E+01    0.0     0.00000014        -3.5902017694 -3.59E+00
     2 GXTB-Simple 0.20E+00    0.0     0.00000003        -3.5902017694 -9.77E-15
     3 GXTB-Simple 0.20E+00    0.0     0.00000002        -3.5902017694 -2.22E-15
     4 GXTB-FDIIS  0.10E+01    0.0     0.00000009        -3.5902017694 -7.99E-15
     5 GXTB-FDIIS  0.10E+01    0.0     3.0716E-10        -3.5902017694  8.88E-16
     6 GXTB-FDIIS  0.10E+01    0.0     9.9920E-16        -3.5902017694  8.88E-16

  *** SCF run converged in     6 steps ***


  Core Hamiltonian energy:                                     -3.26121917787684
  Repulsive potential energy:                                   0.25439749369790
  Electrostatic energy:                                         0.02432978774146
  Self-consistent dispersion energy:                           -0.00071975391850
  Non-self consistent dispersion energy:                        0.00000997690501
  Correction for halogen bonding:                               0.00000000000000

  Total energy:                                                -3.59020176944983


 MULLIKEN POPULATION ANALYSIS

  # Atom   Element   Kind        Atomic population                    Net charge
       1     H          1                 1.000000                     -0.000000
       2     H          1                 1.000000                      0.000000
       3     H          1                 1.000000                     -0.000000
       4     H          1                 1.000000                      0.000000
       5     H          1                 1.000000                     -0.000000
       6     H          1                 1.000000                      0.000000
 # Total charge                           6.000000                      0.000000


 ENERGY| Total FORCE_EVAL ( QS ) energy [hartree]             -3.590201769449830

 -------------------------------------------------------------------------------
 ----                             MULTIGRID INFO                            ----
 -------------------------------------------------------------------------------
 total grid count     :            72              cutoff [a.u.]            1.00

 PW_GRID| Information for grid number                                          9
 PW_GRID| Cutoff [a.u.]                                                      1.0
 PW_GRID| spherical cutoff:                                                   NO
 PW_GRID|   Bounds   1             -6       5                Points:          12
 PW_GRID|   Bounds   2             -2       1                Points:           4
 PW_GRID|   Bounds   3             -2       1                Points:           4
 PW_GRID| Volume element (a.u.^3)   8.551         Volume (a.u.^3)      1641.8299
 PW_GRID| Grid span                                                    FULLSPACE

 POISSON| Solver                                                        PERIODIC
 POISSON| Periodicity                                                        XYZ

 RS_GRID| Information for grid number                                          9
 RS_GRID|   Bounds   1             -6       5                Points:          12
 RS_GRID|   Bounds   2             -2       1                Points:           4
 RS_GRID|   Bounds   3             -2       1                Points:           4

 Parameters for the always stable predictor-corrector (ASPC) method:

  ASPC order: 3

  B(1) =   3.000000
  B(2) =  -3.428571
  B(3) =   1.928571
  B(4) =  -0.571429
  B(5) =   0.071429

 Extrapolation method: ASPC

 Number of electrons:                                                          6
 Number of occupied orbitals:                                                  3
 Number of molecular orbitals:                                                 6

 Number of orbital functions:                                                  6
 Number of independent orbital functions:                                      6


 SCF WAVEFUNCTION OPTIMIZATION

  Step     Update method      Time    Convergence         Total energy    Change
  ------------------------------------------------------------------------------
     1 GXTB-Raw    0.10E+01    0.0     0.00000010        -3.5902020184 -3.59E+00
     2 GXTB-Simple 0.20E+00    0.0     0.00000002        -3.5902020184 -4.00E-15
     3 GXTB-Simple 0.20E+00    0.0     0.00000002        -3.5902020184 -2.22E-15
     4 GXTB-FDIIS  0.10E+01    0.0     0.00000007        -3.5902020184 -5.77E-15
     5 GXTB-FDIIS  0.10E+01    0.0     2.2911E-10        -3.5902020184  4.44E-16
     6 GXTB-FDIIS  0.10E+01    0.0     1.8874E-15        -3.5902020184  1.78E-15

  *** SCF run converged in     6 steps ***


  Core Hamiltonian energy:                                     -3.26122156492724
  Repulsive potential energy:                                   0.25439946762414
  Electrostatic energy:                                         0.02432992891281
  Self-consistent dispersion energy:                           -0.00071974927651
  Non-self consistent dispersion energy:                        0.00000997681731
  Correction for halogen bonding:                               0.00000000000000

  Total energy:                                                -3.59020201837662


 MULLIKEN POPULATION ANALYSIS

  # Atom   Element   Kind        Atomic population                    Net charge
       1     H          1                 1.000000                      0.000000
       2     H          1                 1.000000                      0.000000
       3     H          1                 1.000000                      0.000000
       4     H          1                 1.000000                      0.000000
       5     H          1                 1.000000                      0.000000
       6     H          1                 1.000000                      0.000000
 # Total charge                           6.000000                      0.000000


 ENERGY| Total FORCE_EVAL ( QS ) energy [hartree]             -3.590202018376620

 -------------------------------------------------------------------------------
 ----                             MULTIGRID INFO                            ----
 -------------------------------------------------------------------------------
 total grid count     :            72              cutoff [a.u.]            1.00

 PW_GRID| Information for grid number                                         10
 PW_GRID| Cutoff [a.u.]                                                      1.0
 PW_GRID| spherical cutoff:                                                   NO
 PW_GRID|   Bounds   1             -6       5                Points:          12
 PW_GRID|   Bounds   2             -2       1                Points:           4
 PW_GRID|   Bounds   3             -2       1                Points:           4
 PW_GRID| Volume element (a.u.^3)   8.551         Volume (a.u.^3)      1641.8495
 PW_GRID| Grid span                                                    FULLSPACE

 POISSON| Solver                                                        PERIODIC
 POISSON| Periodicity                                                        XYZ

 RS_GRID| Information for grid number                                         10
 RS_GRID|   Bounds   1             -6       5                Points:          12
 RS_GRID|   Bounds   2             -2       1                Points:           4
 RS_GRID|   Bounds   3             -2       1                Points:           4

 Parameters for the always stable predictor-corrector (ASPC) method:

  ASPC order: 3

  B(1) =   3.000000
  B(2) =  -3.428571
  B(3) =   1.928571
  B(4) =  -0.571429
  B(5) =   0.071429

 Extrapolation method: ASPC

 Number of electrons:                                                          6
 Number of occupied orbitals:                                                  3
 Number of molecular orbitals:                                                 6

 Number of orbital functions:                                                  6
 Number of independent orbital functions:                                      6


 SCF WAVEFUNCTION OPTIMIZATION

  Step     Update method      Time    Convergence         Total energy    Change
  ------------------------------------------------------------------------------
     1 GXTB-Raw    0.10E+01    0.0     0.00000010        -3.5901990225 -3.59E+00
     2 GXTB-Simple 0.20E+00    0.0     3.4451E-09        -3.5901990225 -4.44E-16
     3 GXTB-Simple 0.20E+00    0.0     2.7885E-09        -3.5901990225  0.00E+00
     4 GXTB-FDIIS  0.10E+01    0.0     0.00000001        -3.5901990225 -4.44E-16
     5 GXTB-FDIIS  0.10E+01    0.0     3.2844E-11        -3.5901990225  8.88E-16

  *** SCF run converged in     5 steps ***


  Core Hamiltonian energy:                                     -3.26121724577350
  Repulsive potential energy:                                   0.25439769574262
  Electrostatic energy:                                         0.02433003506710
  Self-consistent dispersion energy:                           -0.00071973847047
  Non-self consistent dispersion energy:                        0.00000997640450
  Correction for halogen bonding:                               0.00000000000000

  Total energy:                                                -3.59019902252013


 MULLIKEN POPULATION ANALYSIS

  # Atom   Element   Kind        Atomic population                    Net charge
       1     H          1                 1.000000                      0.000000
       2     H          1                 1.000000                     -0.000000
       3     H          1                 1.000000                      0.000000
       4     H          1                 1.000000                      0.000000
       5     H          1                 1.000000                      0.000000
       6     H          1                 1.000000                     -0.000000
 # Total charge                           6.000000                      0.000000


 ENERGY| Total FORCE_EVAL ( QS ) energy [hartree]             -3.590199022520133

 -------------------------------------------------------------------------------
 ----                             MULTIGRID INFO                            ----
 -------------------------------------------------------------------------------
 total grid count     :            72              cutoff [a.u.]            1.00

 PW_GRID| Information for grid number                                         11
 PW_GRID| Cutoff [a.u.]                                                      1.0
 PW_GRID| spherical cutoff:                                                   NO
 PW_GRID|   Bounds   1             -6       5                Points:          12
 PW_GRID|   Bounds   2             -2       1                Points:           4
 PW_GRID|   Bounds   3             -2       1                Points:           4
 PW_GRID| Volume element (a.u.^3)   8.551         Volume (a.u.^3)      1641.8091
 PW_GRID| Grid span                                                    FULLSPACE

 POISSON| Solver                                                        PERIODIC
 POISSON| Periodicity                                                        XYZ

 RS_GRID| Information for grid number                                         11
 RS_GRID|   Bounds   1             -6       5                Points:          12
 RS_GRID|   Bounds   2             -2       1                Points:           4
 RS_GRID|   Bounds   3             -2       1                Points:           4

 Parameters for the always stable predictor-corrector (ASPC) method:

  ASPC order: 3

  B(1) =   3.000000
  B(2) =  -3.428571
  B(3) =   1.928571
  B(4) =  -0.571429
  B(5) =   0.071429

 Extrapolation method: ASPC

 Number of electrons:                                                          6
 Number of occupied orbitals:                                                  3
 Number of molecular orbitals:                                                 6

 Number of orbital functions:                                                  6
 Number of independent orbital functions:                                      6


 SCF WAVEFUNCTION OPTIMIZATION

  Step     Update method      Time    Convergence         Total energy    Change
  ------------------------------------------------------------------------------
     1 GXTB-Raw    0.10E+01    0.0     0.00000010        -3.5902047655 -3.59E+00
     2 GXTB-Simple 0.20E+00    0.0     0.00000001        -3.5902047655 -2.66E-15
     3 GXTB-Simple 0.20E+00    0.0     0.00000001        -3.5902047655  1.78E-15
     4 GXTB-FDIIS  0.10E+01    0.0     0.00000004        -3.5902047655 -3.55E-15
     5 GXTB-FDIIS  0.10E+01    0.0     1.1653E-10        -3.5902047655 -8.88E-16
     6 GXTB-FDIIS  0.10E+01    0.0     1.9984E-15        -3.5902047655  0.00E+00

  *** SCF run converged in     6 steps ***


  Core Hamiltonian energy:                                     -3.26122349717037
  Repulsive potential energy:                                   0.25439926558306
  Electrostatic energy:                                         0.02432968157707
  Self-consistent dispersion energy:                           -0.00071976472551
  Non-self consistent dispersion energy:                        0.00000997731784
  Correction for halogen bonding:                               0.00000000000000

  Total energy:                                                -3.59020476545880


 MULLIKEN POPULATION ANALYSIS

  # Atom   Element   Kind        Atomic population                    Net charge
       1     H          1                 1.000000                      0.000000
       2     H          1                 1.000000                     -0.000000
       3     H          1                 1.000000                      0.000000
       4     H          1                 1.000000                     -0.000000
       5     H          1                 1.000000                     -0.000000
       6     H          1                 1.000000                      0.000000
 # Total charge                           6.000000                     -0.000000


 ENERGY| Total FORCE_EVAL ( QS ) energy [hartree]             -3.590204765458796

 -------------------------------------------------------------------------------
 ----                             MULTIGRID INFO                            ----
 -------------------------------------------------------------------------------
 total grid count     :            72              cutoff [a.u.]            1.00

 PW_GRID| Information for grid number                                         12
 PW_GRID| Cutoff [a.u.]                                                      1.0
 PW_GRID| spherical cutoff:                                                   NO
 PW_GRID|   Bounds   1             -6       5                Points:          12
 PW_GRID|   Bounds   2             -2       1                Points:           4
 PW_GRID|   Bounds   3             -2       1                Points:           4
 PW_GRID| Volume element (a.u.^3)   8.551         Volume (a.u.^3)      1641.8293
 PW_GRID| Grid span                                                    FULLSPACE

 POISSON| Solver                                                        PERIODIC
 POISSON| Periodicity                                                        XYZ

 RS_GRID| Information for grid number                                         12
 RS_GRID|   Bounds   1             -6       5                Points:          12
 RS_GRID|   Bounds   2             -2       1                Points:           4
 RS_GRID|   Bounds   3             -2       1                Points:           4

 Parameters for the always stable predictor-corrector (ASPC) method:

  ASPC order: 3

  B(1) =   3.000000
  B(2) =  -3.428571
  B(3) =   1.928571
  B(4) =  -0.571429
  B(5) =   0.071429

 Extrapolation method: ASPC

 Number of electrons:                                                          6
 Number of occupied orbitals:                                                  3
 Number of molecular orbitals:                                                 6

 Number of orbital functions:                                                  6
 Number of independent orbital functions:                                      6


 SCF WAVEFUNCTION OPTIMIZATION

  Step     Update method      Time    Convergence         Total energy    Change
  ------------------------------------------------------------------------------
     1 GXTB-Raw    0.10E+01    0.0     0.00000007        -3.5902017939 -3.59E+00
     2 GXTB-Simple 0.20E+00    0.0     4.1320E-09        -3.5902017939 -4.44E-16
     3 GXTB-Simple 0.20E+00    0.0     3.3445E-09        -3.5902017939 -1.33E-15
     4 GXTB-FDIIS  0.10E+01    0.0     0.00000001        -3.5902017939 -4.44E-16
     5 GXTB-FDIIS  0.10E+01    0.0     3.8325E-11        -3.5902017939  8.88E-16

  *** SCF run converged in     5 steps ***


  Core Hamiltonian energy:                                     -3.26121976803166
  Repulsive potential energy:                                   0.25439800932485
  Electrostatic energy:                                         0.02432983113937
  Self-consistent dispersion energy:                           -0.00071975228075
  Non-self consistent dispersion energy:                        0.00000997687923
  Correction for halogen bonding:                               0.00000000000000

  Total energy:                                                -3.59020179391391


 MULLIKEN POPULATION ANALYSIS

  # Atom   Element   Kind        Atomic population                    Net charge
       1     H          1                 1.000000                     -0.000000
       2     H          1                 1.000000                     -0.000000
       3     H          1                 1.000000                     -0.000000
       4     H          1                 1.000000                      0.000000
       5     H          1                 1.000000                      0.000000
       6     H          1                 1.000000                      0.000000
 # Total charge                           6.000000                      0.000000


 ENERGY| Total FORCE_EVAL ( QS ) energy [hartree]             -3.590201793913911

 -------------------------------------------------------------------------------
 ----                             MULTIGRID INFO                            ----
 -------------------------------------------------------------------------------
 total grid count     :            72              cutoff [a.u.]            1.00

 PW_GRID| Information for grid number                                         13
 PW_GRID| Cutoff [a.u.]                                                      1.0
 PW_GRID| spherical cutoff:                                                   NO
 PW_GRID|   Bounds   1             -6       5                Points:          12
 PW_GRID|   Bounds   2             -2       1                Points:           4
 PW_GRID|   Bounds   3             -2       1                Points:           4
 PW_GRID| Volume element (a.u.^3)   8.551         Volume (a.u.^3)      1641.8293
 PW_GRID| Grid span                                                    FULLSPACE

 POISSON| Solver                                                        PERIODIC
 POISSON| Periodicity                                                        XYZ

 RS_GRID| Information for grid number                                         13
 RS_GRID|   Bounds   1             -6       5                Points:          12
 RS_GRID|   Bounds   2             -2       1                Points:           4
 RS_GRID|   Bounds   3             -2       1                Points:           4

 Parameters for the always stable predictor-corrector (ASPC) method:

  ASPC order: 3

  B(1) =   3.000000
  B(2) =  -3.428571
  B(3) =   1.928571
  B(4) =  -0.571429
  B(5) =   0.071429

 Extrapolation method: ASPC

 Number of electrons:                                                          6
 Number of occupied orbitals:                                                  3
 Number of molecular orbitals:                                                 6

 Number of orbital functions:                                                  6
 Number of independent orbital functions:                                      6


 SCF WAVEFUNCTION OPTIMIZATION

  Step     Update method      Time    Convergence         Total energy    Change
  ------------------------------------------------------------------------------
     1 GXTB-Raw    0.10E+01    0.0     0.00000004        -3.5902019939 -3.59E+00
     2 GXTB-Simple 0.20E+00    0.0     4.4128E-09        -3.5902019939 -8.88E-16
     3 GXTB-Simple 0.20E+00    0.0     3.5718E-09        -3.5902019939  0.00E+00
     4 GXTB-FDIIS  0.10E+01    0.0     0.00000002        -3.5902019939  1.78E-15
     5 GXTB-FDIIS  0.10E+01    0.0     4.9182E-11        -3.5902019939 -1.78E-15

  *** SCF run converged in     5 steps ***


  Core Hamiltonian energy:                                     -3.26122097477527
  Repulsive potential energy:                                   0.25439895200482
  Electrostatic energy:                                         0.02432988551614
  Self-consistent dispersion energy:                           -0.00071975091418
  Non-self consistent dispersion energy:                        0.00000997684308
  Correction for halogen bonding:                               0.00000000000000

  Total energy:                                                -3.59020199390636


 MULLIKEN POPULATION ANALYSIS

  # Atom   Element   Kind        Atomic population                    Net charge
       1     H          1                 1.000000                      0.000000
       2     H          1                 1.000000                      0.000000
       3     H          1                 1.000000                     -0.000000
       4     H          1                 1.000000                      0.000000
       5     H          1                 1.000000                     -0.000000
       6     H          1                 1.000000                      0.000000
 # Total charge                           6.000000                      0.000000


 ENERGY| Total FORCE_EVAL ( QS ) energy [hartree]             -3.590201993906364

 -------------------------------------------------------------------------------
 ----                             MULTIGRID INFO                            ----
 -------------------------------------------------------------------------------
 total grid count     :            72              cutoff [a.u.]            1.00

 PW_GRID| Information for grid number                                         14
 PW_GRID| Cutoff [a.u.]                                                      1.0
 PW_GRID| spherical cutoff:                                                   NO
 PW_GRID|   Bounds   1             -6       5                Points:          12
 PW_GRID|   Bounds   2             -2       1                Points:           4
 PW_GRID|   Bounds   3             -2       1                Points:           4
 PW_GRID| Volume element (a.u.^3)   8.551         Volume (a.u.^3)      1641.8290
 PW_GRID| Grid span                                                    FULLSPACE

 POISSON| Solver                                                        PERIODIC
 POISSON| Periodicity                                                        XYZ

 RS_GRID| Information for grid number                                         14
 RS_GRID|   Bounds   1             -6       5                Points:          12
 RS_GRID|   Bounds   2             -2       1                Points:           4
 RS_GRID|   Bounds   3             -2       1                Points:           4

 Parameters for the always stable predictor-corrector (ASPC) method:

  ASPC order: 3

  B(1) =   3.000000
  B(2) =  -3.428571
  B(3) =   1.928571
  B(4) =  -0.571429
  B(5) =   0.071429

 Extrapolation method: ASPC

 Number of electrons:                                                          6
 Number of occupied orbitals:                                                  3
 Number of molecular orbitals:                                                 6

 Number of orbital functions:                                                  6
 Number of independent orbital functions:                                      6


 SCF WAVEFUNCTION OPTIMIZATION

  Step     Update method      Time    Convergence         Total energy    Change
  ------------------------------------------------------------------------------
     1 GXTB-Raw    0.10E+01    0.0     0.00000005        -3.5902018191 -3.59E+00
     2 GXTB-Simple 0.20E+00    0.0     8.1827E-09        -3.5902018191  1.78E-15
     3 GXTB-Simple 0.20E+00    0.0     6.6233E-09        -3.5902018191 -3.55E-15
     4 GXTB-FDIIS  0.10E+01    0.0     0.00000003        -3.5902018191 -8.88E-16
     5 GXTB-FDIIS  0.10E+01    0.0     9.6813E-11        -3.5902018191  8.88E-16

  *** SCF run converged in     5 steps ***


  Core Hamiltonian energy:                                     -3.26121962853783
  Repulsive potential energy:                                   0.25439786968236
  Electrostatic energy:                                         0.02432980822815
  Self-consistent dispersion energy:                           -0.00071975294936
  Non-self consistent dispersion energy:                        0.00000997688670
  Correction for halogen bonding:                               0.00000000000000

  Total energy:                                                -3.59020181909823


 MULLIKEN POPULATION ANALYSIS

  # Atom   Element   Kind        Atomic population                    Net charge
       1     H          1                 1.000000                      0.000000
       2     H          1                 1.000000                     -0.000000
       3     H          1                 1.000000                      0.000000
       4     H          1                 1.000000                      0.000000
       5     H          1                 1.000000                     -0.000000
       6     H          1                 1.000000                      0.000000
 # Total charge                           6.000000                      0.000000


 ENERGY| Total FORCE_EVAL ( QS ) energy [hartree]             -3.590201819098231

 -------------------------------------------------------------------------------
 ----                             MULTIGRID INFO                            ----
 -------------------------------------------------------------------------------
 total grid count     :            72              cutoff [a.u.]            1.00

 PW_GRID| Information for grid number                                         15
 PW_GRID| Cutoff [a.u.]                                                      1.0
 PW_GRID| spherical cutoff:                                                   NO
 PW_GRID|   Bounds   1             -6       5                Points:          12
 PW_GRID|   Bounds   2             -2       1                Points:           4
 PW_GRID|   Bounds   3             -2       1                Points:           4
 PW_GRID| Volume element (a.u.^3)   8.551         Volume (a.u.^3)      1641.8296
 PW_GRID| Grid span                                                    FULLSPACE

 POISSON| Solver                                                        PERIODIC
 POISSON| Periodicity                                                        XYZ

 RS_GRID| Information for grid number                                         15
 RS_GRID|   Bounds   1             -6       5                Points:          12
 RS_GRID|   Bounds   2             -2       1                Points:           4
 RS_GRID|   Bounds   3             -2       1                Points:           4

 Parameters for the always stable predictor-corrector (ASPC) method:

  ASPC order: 3

  B(1) =   3.000000
  B(2) =  -3.428571
  B(3) =   1.928571
  B(4) =  -0.571429
  B(5) =   0.071429

 Extrapolation method: ASPC

 Number of electrons:                                                          6
 Number of occupied orbitals:                                                  3
 Number of molecular orbitals:                                                 6

 Number of orbital functions:                                                  6
 Number of independent orbital functions:                                      6


 SCF WAVEFUNCTION OPTIMIZATION

  Step     Update method      Time    Convergence         Total energy    Change
  ------------------------------------------------------------------------------
     1 GXTB-Raw    0.10E+01    0.0     0.00000007        -3.5902019687 -3.59E+00
     2 GXTB-Simple 0.20E+00    0.0     0.00000001        -3.5902019687 -8.88E-16
     3 GXTB-Simple 0.20E+00    0.0     9.6748E-09        -3.5902019687 -4.44E-15
     4 GXTB-FDIIS  0.10E+01    0.0     0.00000004        -3.5902019687  1.78E-15
     5 GXTB-FDIIS  0.10E+01    0.0     1.4205E-10        -3.5902019687 -1.78E-15
     6 GXTB-FDIIS  0.10E+01    0.0     1.6653E-15        -3.5902019687  1.78E-15

  *** SCF run converged in     6 steps ***


  Core Hamiltonian energy:                                     -3.26122111426345
  Repulsive potential energy:                                   0.25439909163670
  Electrostatic energy:                                         0.02432990842580
  Self-consistent dispersion energy:                           -0.00071975024562
  Non-self consistent dispersion energy:                        0.00000997683562
  Correction for halogen bonding:                               0.00000000000000

  Total energy:                                                -3.59020196872869


 MULLIKEN POPULATION ANALYSIS

  # Atom   Element   Kind        Atomic population                    Net charge
       1     H          1                 1.000000                      0.000000
       2     H          1                 1.000000                      0.000000
       3     H          1                 1.000000                      0.000000
       4     H          1                 1.000000                      0.000000
       5     H          1                 1.000000                      0.000000
       6     H          1                 1.000000                     -0.000000
 # Total charge                           6.000000                      0.000000


 ENERGY| Total FORCE_EVAL ( QS ) energy [hartree]             -3.590201968728686

 -------------------------------------------------------------------------------
 ----                             MULTIGRID INFO                            ----
 -------------------------------------------------------------------------------
 total grid count     :            72              cutoff [a.u.]            1.00

 PW_GRID| Information for grid number                                         16
 PW_GRID| Cutoff [a.u.]                                                      1.0
[...]
      3    1 H     1      4.830000      0.910000      1.130000   1.0000   1.0079
      4    1 H     1      5.580000      1.120000      1.260000   1.0000   1.0079
      5    1 H     1      8.930000      0.910000      1.130000   1.0000   1.0079
      6    1 H     1      9.680000      1.120000      1.260053   1.0000   1.0079


 Parameters for the always stable predictor-corrector (ASPC) method:

  ASPC order: 3

  B(1) =   3.000000
  B(2) =  -3.428571
  B(3) =   1.928571
  B(4) =  -0.571429
  B(5) =   0.071429

 Extrapolation method: ASPC

 Number of electrons:                                                          6
 Number of occupied orbitals:                                                  3
 Number of molecular orbitals:                                                 6

 Number of orbital functions:                                                  6
 Number of independent orbital functions:                                      6


 SCF WAVEFUNCTION OPTIMIZATION

  Step     Update method      Time    Convergence         Total energy    Change
  ------------------------------------------------------------------------------
     1 GXTB-Raw    0.10E+01    0.0     0.00000063        -3.5902014844 -3.59E+00
     2 GXTB-Simple 0.20E+00    0.0     0.00000007        -3.5902014844 -3.02E-14
     3 GXTB-Simple 0.20E+00    0.0     0.00000006        -3.5902014844 -1.82E-14
     4 GXTB-FDIIS  0.10E+01    0.0     0.00000026        -3.5902014844 -3.73E-14
     5 GXTB-FDIIS  0.10E+01    0.0     7.7271E-10        -3.5902014844 -4.44E-16
     6 GXTB-FDIIS  0.10E+01    0.0     6.8233E-11        -3.5902014844  4.44E-16

  *** SCF run converged in     6 steps ***


  Core Hamiltonian energy:                                     -3.26121618970506
  Repulsive potential energy:                                   0.25439503852362
  Electrostatic energy:                                         0.02432956497715
  Self-consistent dispersion energy:                           -0.00071975770237
  Non-self consistent dispersion energy:                        0.00000997701027
  Correction for halogen bonding:                               0.00000000000000

  Total energy:                                                -3.59020148437832


 MULLIKEN POPULATION ANALYSIS

  # Atom   Element   Kind        Atomic population                    Net charge
       1     H          1                 1.000000                      0.000000
       2     H          1                 1.000000                     -0.000000
       3     H          1                 1.000000                     -0.000000
       4     H          1                 1.000000                      0.000000
       5     H          1                 1.000000                     -0.000000
       6     H          1                 1.000000                      0.000000
 # Total charge                           6.000000                      0.000000


 ENERGY| Total FORCE_EVAL ( QS ) energy [hartree]             -3.590201484378319


 MODULE DEBUG: ATOMIC COORDINATES IN ANGSTROM

   Atom Kind Element         X             Y             Z       Z(eff)     Mass
      1    1 H     1      0.730000      0.910000      1.130000   1.0000   1.0079
      2    1 H     1      1.480000      1.120000      1.260000   1.0000   1.0079
      3    1 H     1      4.830000      0.910000      1.130000   1.0000   1.0079
      4    1 H     1      5.580000      1.120000      1.260000   1.0000   1.0079
      5    1 H     1      8.930000      0.910000      1.130000   1.0000   1.0079
      6    1 H     1      9.680000      1.120000      1.259947   1.0000   1.0079


 Parameters for the always stable predictor-corrector (ASPC) method:

  ASPC order: 3

  B(1) =   3.000000
  B(2) =  -3.428571
  B(3) =   1.928571
  B(4) =  -0.571429
  B(5) =   0.071429

 Extrapolation method: ASPC

 Number of electrons:                                                          6
 Number of occupied orbitals:                                                  3
 Number of molecular orbitals:                                                 6

 Number of orbital functions:                                                  6
 Number of independent orbital functions:                                      6


 SCF WAVEFUNCTION OPTIMIZATION

  Step     Update method      Time    Convergence         Total energy    Change
  ------------------------------------------------------------------------------
     1 GXTB-Raw    0.10E+01    0.0     0.00000051        -3.5902023033 -3.59E+00
     2 GXTB-Simple 0.20E+00    0.0     0.00000006        -3.5902023033 -1.51E-14
     3 GXTB-Simple 0.20E+00    0.0     0.00000005        -3.5902023033 -1.42E-14
     4 GXTB-FDIIS  0.10E+01    0.0     0.00000020        -3.5902023033 -2.09E-14
     5 GXTB-FDIIS  0.10E+01    0.0     5.9733E-10        -3.5902023033 -4.44E-16
     6 GXTB-FDIIS  0.10E+01    0.0     5.9365E-11        -3.5902023033  2.22E-15

  *** SCF run converged in     6 steps ***


  Core Hamiltonian energy:                                     -3.26122455156805
  Repulsive potential energy:                                   0.25440192158371
  Electrostatic energy:                                         0.02433015157081
  Self-consistent dispersion energy:                           -0.00071974549666
  Non-self consistent dispersion energy:                        0.00000997671214
  Correction for halogen bonding:                               0.00000000000000

  Total energy:                                                -3.59020230325354


 MULLIKEN POPULATION ANALYSIS

  # Atom   Element   Kind        Atomic population                    Net charge
       1     H          1                 1.000000                     -0.000000
       2     H          1                 1.000000                      0.000000
       3     H          1                 1.000000                      0.000000
       4     H          1                 1.000000                     -0.000000
       5     H          1                 1.000000                      0.000000
       6     H          1                 1.000000                     -0.000000
 # Total charge                           6.000000                      0.000000


 ENERGY| Total FORCE_EVAL ( QS ) energy [hartree]             -3.590202303253538

 DEBUG| Atom    E(z + 0.0001)    E(z - 0.0001)     f(numerical)    f(analytical)
 DEBUG|    6      -3.59020148      -3.59020230      -0.00409438      -0.00409438

 DEBUG| Atom  Coordinate   f(numerical)   f(analytical)   Difference   Error [%]
 DEBUG|    6      x         -0.02411356     -0.02411356  -0.00000000       -0.00
 DEBUG|    6      y         -0.00681818     -0.00681818   0.00000000        0.00
 DEBUG|    6      z         -0.00409438     -0.00409438   0.00000000        0.00

 DEBUG|======================== BEGIN OF SUMMARY ===============================
 DEBUG| Atom  Coordinate   f(numerical)   f(analytical)   Difference   Error [%]
 DEBUG|    1      x          0.02411356      0.02411356   0.00000000       -0.00
 DEBUG|    1      y          0.00681818      0.00681818  -0.00000000        0.00
 DEBUG|    1      z          0.00409438      0.00409438  -0.00000000        0.00
 DEBUG|    2      x         -0.02411356     -0.02411356  -0.00000000       -0.00
 DEBUG|    2      y         -0.00681818     -0.00681818   0.00000000        0.00
 DEBUG|    2      z         -0.00409438     -0.00409438   0.00000000        0.00
 DEBUG|    3      x          0.02411356      0.02411356   0.00000000       -0.00
 DEBUG|    3      y          0.00681818      0.00681818  -0.00000000        0.00
 DEBUG|    3      z          0.00409438      0.00409438  -0.00000000        0.00
 DEBUG|    4      x         -0.02411356     -0.02411356  -0.00000000       -0.00
 DEBUG|    4      y         -0.00681818     -0.00681818   0.00000000        0.00
 DEBUG|    4      z         -0.00409438     -0.00409438   0.00000000        0.00
 DEBUG|    5      x          0.02411356      0.02411356   0.00000000       -0.00
 DEBUG|    5      y          0.00681818      0.00681818  -0.00000000        0.00
 DEBUG|    5      z          0.00409438      0.00409438  -0.00000000        0.00
 DEBUG|    6      x         -0.02411356     -0.02411356  -0.00000000       -0.00
 DEBUG|    6      y         -0.00681818     -0.00681818   0.00000000        0.00
 DEBUG|    6      z         -0.00409438     -0.00409438   0.00000000        0.00
 DEBUG| Sum of differences:                               0.00000001        0.00
 DEBUG|======================== END OF SUMMARY =================================

 -------------------------------------------------------------------------------
 -                                                                             -
 -                                DBCSR STATISTICS                             -
 -                                                                             -
 -------------------------------------------------------------------------------
 COUNTER                                    TOTAL       BLAS       SMM       ACC
 flops     1 x     6 x     1                92448     100.0%      0.0%      0.0%     
 flops     1 x     1 x     6               103068     100.0%      0.0%      0.0%     
 flops inhomo. stacks                           0       0.0%      0.0%      0.0%
 flops total                       195.516000E+03     100.0%      0.0%      0.0%
 flops max/rank                    195.516000E+03     100.0%      0.0%      0.0%
 matmuls inhomo. stacks                         0       0.0%      0.0%      0.0%
 matmuls total                              16293     100.0%      0.0%      0.0%
 number of processed stacks                   623     100.0%      0.0%      0.0%
 average stack size                                    26.2       0.0       0.0
 marketing flops                   180.792000E+03
 -------------------------------------------------------------------------------
 # multiplications                            623
 max memory usage/rank               9.875894E+09
 # max total images/rank                        1
 # max 3D layers                                1
 # MPI messages exchanged                       0
 -------------------------------------------------------------------------------
 -                                                                             -
 -                      DBCSR MESSAGE PASSING PERFORMANCE                      -
 -                                                                             -
 -------------------------------------------------------------------------------
 ROUTINE             CALLS      AVE VOLUME [Bytes]
 MP_Bcast                3                     12.
 MP_Allreduce         2710                      8.
 MP_Alltoall         15934                    400.
 MP_ISend             2492                    223.
 MP_IRecv             2492                    223.
 -------------------------------------------------------------------------------

 -------------------------------------------------------------------------------
 -                                                                             -
 -                          OFFLOAD MEMPOOL STATISTICS                         -
 -                                                                             -
 -------------------------------------------------------------------------------
 Memory consumption                Number of allocations  Used [MiB]  Size [MiB]
 Host                                                  1           0           0
 -------------------------------------------------------------------------------

 MEMORY| Estimated peak process memory [MiB]                                 116

 -------------------------------------------------------------------------------
 ----                             MULTIGRID INFO                            ----
 -------------------------------------------------------------------------------
 total grid count     :            72              cutoff [a.u.]            1.00

 -------------------------------------------------------------------------------
 -                                                                             -
 -                         MESSAGE PASSING PERFORMANCE                         -
 -                                                                             -
 -------------------------------------------------------------------------------

 ROUTINE             CALLS      AVE VOLUME [Bytes]
 MP_Group               20
 MP_Bcast              702                     26.
 MP_Allreduce        11459                     62.
 MP_Sync               371
 MP_comm_split         351
 -------------------------------------------------------------------------------


 -------------------------------------------------------------------------------
 -                                                                             -
 -                           R E F E R E N C E S                               -
 -                                                                             -
 -------------------------------------------------------------------------------
 
 CP2K version 2026.2 (Development Version), the CP2K developers group (2026).
 CP2K is freely available from https://www.cp2k.org/ .
 
 M. Iannuzzi, J. Wilhelm, F. Stein, A. Bussy, H. Elgabarty, D. Golze, A. Hehn, 
 M. Graml, S. Marek, B. Sertcan Gökmen, C. Schran, H. Forbert, R. Z. 
 Khaliullin, A. Kozhevnikov, M. Taillefumier, R. Meli, V. V. Rybkin, M. Brehm, 
 R. Schade, O. Schütt, J. V. Pototschnig, H. Mirhosseini, A. Knüpfer, D. Marx, 
 M. Krack, J. Hutter, T. D. Kühne.
 J. Phys. Chem. B 130, 1237-1310 (2026).
 The CP2K Program Package Made Simple.
 https://doi.org/10.1021/acs.jpcb.5c05851

 A. Katbashev, M. Stahn, T. Rose, V. Alizadeh, M. Friede, C. Plett, P. 
 Steinbach, S. Ehlert.
 J. Phys. Chem. A 129, 2667-2682 (2025).
 Overview on Building Blocks and Applications of Efficient and Robust Extended 
 Tight Binding.
 https://doi.org/10.1021/acs.jpca.4c08263

 T. D. Kühne, M. Iannuzzi, M. Del Ben, V. V. Rybkin, P. Seewald, F. Stein, T. 
 Laino, R. Z. Khaliullin, O. Schütt, F. Schiffmann, D. Golze, J. Wilhelm, S. 
 Chulkov, M. H. Bani-Hashemian, V. Weber, U. Borstnik, M. Taillefumier, A. S. 
 Jakobovits, A. Lazzaro, H. Pabst, T. Müller, R. Schade, M. Guidon, S. 
 Andermatt, N. Holmberg, G. K. Schenter, A. Hehn, A. Bussy, F. Belleflamme, G. 
 Tabacchi, A. Glöß, M. Lass, I. Bethune, C. J. Mundy, C. Plessl, M. Watkins, 
 J. VandeVondele, M. Krack, J. Hutter.
 J. Chem. Phys. 152, 194103 (2020).
 CP2K: An electronic structure and molecular dynamics software package - 
 Quickstep: Efficient and accurate electronic structure calculations.
 https://doi.org/10.1063/5.0007045

 P. Pracht, E. Caldeweyher, S. Ehlert, S. Grimme.
 ChemRxiv, (2019).
 A Robust Non-Self-Consistent Tight-Binding Quantum Chemistry Method for large 
 Molecules.
 https://doi.org/10.26434/chemrxiv.8326202.v1

 S. Grimme, C. Bannwarth, P. Shushkov.
 J. Chem. Theory Comput. 13, 1989 (2017).
 A Robust and Accurate Tight-Binding Quantum Chemical Method for Structures, 
 Vibrational Frequencies, and Noncovalent Interactions of Large Molecular 
 Systems Parametrized for All spd-Block Elements (Z = 1-86).
 https://doi.org/10.1021/acs.jctc.7b00118

 O. Schuett, P. Messmer, J. Hutter, J. VandeVondele.
 Electronic Structure Calculations on Graphics Processing Units, 173-190 (2016).
 GPU-Accelerated Sparse Matrix-Matrix Multiplication for Linear Scaling Density 
 Functional Theory.
 https://doi.org/10.1002/9781118670712.ch8

 U. Borstnik, J. VandeVondele, V. Weber, J. Hutter.
 Parallel Comput. 40, 47-58 (2014).
 Sparse matrix multiplication: The distributed block-compressed sparse row 
 library.
 https://doi.org/10.1016/j.parco.2014.03.012

 T. D. Kühne, M. Krack, F. R. Mohamed, M. Parrinello.
 Phys. Rev. Lett. 98, 066401 (2007).
 Efficient and accurate Car-Parrinello-like approach to Born-Oppenheimer 
 molecular dynamics.
 https://doi.org/10.1103/PhysRevLett.98.066401

 M. Frigo, S. G. Johnson.
 Proc. IEEE 93, 216-231 (2005).
 The design and implementation of FFTW3.
 https://doi.org/10.1109/JPROC.2004.840301

 J. Kolafa.
 J. Comput. Chem. 25, 335-342 (2004).
 Time-reversible always stable predictor-corrector method for molecular dynamics 
 of polarizable molecules.
 https://doi.org/10.1002/jcc.10385


 -------------------------------------------------------------------------------
 -                                                                             -
 -                                T I M I N G                                  -
 -                                                                             -
 -------------------------------------------------------------------------------
 SUBROUTINE                       CALLS  ASD         SELF TIME        TOTAL TIME
                                MAXIMUM       AVERAGE  MAXIMUM  AVERAGE  MAXIMUM
 CP2K                                 1  1.0    0.005    0.005    1.738    1.738
 qs_energies                         57  2.0    0.001    0.001    1.622    1.622
 build_tblite_matrices               59  4.0    0.926    0.926    1.036    1.036
 qs_energies_init_hamiltonians       57  3.0    0.000    0.000    0.995    0.995
 scf_env_do_scf                      57  3.0    0.001    0.001    0.466    0.466
 scf_env_do_scf_inner_loop          351  4.0    0.088    0.088    0.466    0.466
 qs_scf_new_mos                     351  5.0    0.005    0.005    0.259    0.259
 calculate_dm_sparse                407  6.0    0.001    0.001    0.187    0.187
 cp_dbcsr_plus_fm_fm_t              409  7.0    0.003    0.003    0.186    0.186
 dbcsr_multiply_generic             623  8.0    0.012    0.012    0.180    0.180
 rebuild_ks_matrix                  408  5.8    0.000    0.000    0.166    0.166
 build_tblite_ks_matrix             408  6.8    0.156    0.156    0.166    0.166
 qs_forces                            2  2.0    0.000    0.000    0.161    0.161
 init_scf_run                        57  3.0    0.000    0.000    0.133    0.133
 scf_env_initial_rho_setup           57  4.0    0.000    0.000    0.124    0.124
 wfi_extrapolate                     57  5.0    0.003    0.003    0.123    0.123
 qs_ks_update_qs_env                406  4.8    0.001    0.001    0.116    0.116
 tb_get_multipole                    59  5.0    0.090    0.090    0.107    0.107
 make_m2s                          1246  9.0    0.006    0.006    0.094    0.094
 cp_dbcsr_sm_fm_multiply            214  6.0    0.002    0.002    0.081    0.081
 dbcsr_complete_redistribute       1654  8.2    0.033    0.033    0.077    0.077
 copy_dbcsr_to_fm                   622  6.2    0.004    0.004    0.074    0.074
 qs_ks_update_qs_env_forces           2  3.0    0.000    0.000    0.054    0.054
 copy_fm_to_dbcsr                  1032  7.8    0.002    0.002    0.051    0.051
 eigensolver                        351  6.0    0.013    0.013    0.049    0.049
 make_images                       1246 10.0    0.012    0.012    0.045    0.045
 multiply_cannon                    623  9.0    0.026    0.026    0.044    0.044
 cp_dbcsr_sm_fm_multiply_core       214  7.0    0.000    0.000    0.042    0.042
 -------------------------------------------------------------------------------

 The number of warnings for this run is : 1
 
 -------------------------------------------------------------------------------
  **** **** ******  **  PROGRAM ENDED AT                 2026-07-21 12:50:00.675
 ***** ** ***  *** **   PROGRAM RAN ON                                     terok
 **    ****   ******    PROGRAM RAN BY                                  kuehne88
 ***** **    ** ** **   PROGRAM PROCESS ID                                550689
  **** **  *******  **  PROGRAM STOPPED IN /home/kuehne88/work/gxtb-lowk-rerun-2
                                           0260721/results/derivative/H2_gxtb_ga
                                           mma_supercell_311_force_stress
