 DBCSR| CPU Multiplication driver                                           XSMM (U)
 DBCSR| Multrec recursion limit                                              512 (U)
 DBCSR| Multiplication stack size                                           1000 (D)
 DBCSR| Maximum elements for images                                    UNLIMITED (U)
 DBCSR| Multiplicative factor virtual images                                   1 (U)
 DBCSR| Use multiplication densification                                       T (D)
 DBCSR| Multiplication size stacks                                             3 (U)
 DBCSR| Use memory pool for CPU allocation                                     F (U)
 DBCSR| Number of 3D layers                                               SINGLE (U)
 DBCSR| Use MPI memory allocation                                              F (U)
 DBCSR| Use RMA algorithm                                                      F (U)
 DBCSR| Use Communication thread                                               T (U)
 DBCSR| Communication thread load                                             87 (D)
 DBCSR| MPI: My process id                                                     0
 DBCSR| MPI: Number of processes                                               1
 DBCSR| OMP: Current number of threads                                         1
 DBCSR| OMP: Max number of threads                                             1
 DBCSR| Split modifier for TAS multiplication algorithm                  1.0E+00 (U)


  **** **** ******  **  PROGRAM STARTED AT               2026-05-23 22:46:48.938
 ***** ** ***  *** **   PROGRAM STARTED ON                            spark-c86c
 **    ****   ******    PROGRAM STARTED BY                              kuehne88
 ***** **    ** ** **   PROGRAM PROCESS ID                               2263754
  **** **  *******  **  PROGRAM STARTED IN /home/kuehne88/periodic-gfn2-benchmar
                                           ks/X23b/runs/cellopt_gamma/GFN1/adama
                                           ntane_GFN1_gamma_cellopt

 CP2K| version string:                 CP2K version 2026.1 (Development Version)
 CP2K| source code revision number:                                   0622d442e4
 CP2K| cp2kflags: omp fftw3 libxc parallel scalapack mpi_f08 xsmm spglib libdftd
 CP2K|            4 dftd4_v3 mctc-lib tblite
 CP2K| is freely available from                            https://www.cp2k.org/
 CP2K| Program compiled at                                   2026-05-23 22:05:08
 CP2K| Program compiled on                                            spark-c86c
 CP2K| Program compiled for                                              aarch64
 CP2K| Data directory path    /home/kuehne88/cp2k-master-tblite-20260523/install
 CP2K| Input file name                         adamantane_GFN1_gamma_cellopt.inp

 GLOBAL| Force Environment number                                              1
 GLOBAL| Basis set file name                                           BASIS_SET
 GLOBAL| Potential file name                                           POTENTIAL
 GLOBAL| MM Potential file name                                     MM_POTENTIAL
 GLOBAL| Coordinate file name                                      __STD_INPUT__
 GLOBAL| Method name                                                        CP2K
 GLOBAL| Project name                             adamantane_GFN1_gamma_cell_opt
 GLOBAL| Run type                                                       CELL_OPT
 GLOBAL| FFT library                                                       FFTW3
 GLOBAL| Diagonalization library                                       ScaLAPACK
 GLOBAL| Cholesky decomposition library                                ScaLAPACK
 GLOBAL| DGEMM library                                                      BLAS
 GLOBAL| Direct generalized diagonalization requested                          F
 GLOBAL| Orthonormality check for eigenvectors                          DISABLED
 GLOBAL| Matrix multiplication library                                 ScaLAPACK
 GLOBAL| All-to-all communication in single precision                          F
 GLOBAL| FFTs using library dependent lengths                                  F
 GLOBAL| Grid backend                                                       AUTO
 GLOBAL| Global print level                                                  LOW
 GLOBAL| MPI I/O enabled                                                       T
 GLOBAL| Total number of message passing processes                             1
 GLOBAL| Number of distributed systems (nodes)                                 1
 GLOBAL| Number of threads for this process                                    1
 GLOBAL| This output is from process                                           0
 GLOBAL| OpenMP stack size per thread (OMP_STACKSIZE)                    default
 GLOBAL| CPU model name                                                  UNKNOWN
 GLOBAL| CPUID                                                              2200
 GLOBAL| Compiled for CPUID                                                 2000

 *** HINT in environment.F:970 :: The compiler target flags (arm_arch64)   ***
 *** used to build this binary cannot exploit all extensions of this CPU   ***
 *** model (arm_sve256). Consider compiler target flags as part of FCFLAGS ***
 *** and CFLAGS (ARCH file).                                               ***


 MEMORY| system memory details [Kb]
 MEMORY|                        rank 0           min           max       average
 MEMORY| MemTotal            125508532     125508532     125508532     125508532
 MEMORY| MemFree             101531768     101531768     101531768     101531768
 MEMORY| Buffers                867388        867388        867388        867388
 MEMORY| Cached               13907592      13907592      13907592      13907592
 MEMORY| Slab                  1587560       1587560       1587560       1587560
 MEMORY| SReclaimable           909656        909656        909656        909656
 MEMORY| MemLikelyFree       117216404     117216404     117216404     117216404


 GENERATE|  Preliminary Number of Bonds generated:                             0
 GENERATE|  Achieved consistency in connectivity generation.


                  #####   #####        #     #   #     #       #          
                 #     # #     #      #    ##### #     #   # #####  ####  
                 #     # #           #       #   ###   #       #   #    # 
                 #     #  #####     #        #   #  #  #   #   #   ###### 
                 #   # #       #   #         #   #   # #   #   #   #      
                 #    #  #     #  #          #   #  #  # # #   #    #   # 
                  #### #  #####  #           #   ###   ##  #   #     ###  

                                   GFN1-xTB  
                                 Version 0.0                       
                            Johann V. Pototschnig                  



 TOTAL NUMBERS AND MAXIMUM NUMBERS

  Total number of            - Atomic kinds:                                   2
                             - Atoms:                                         52
                             - Shell sets:                                   104
                             - Shells:                                       104
                             - Primitive Cartesian functions:                592
                             - Cartesian basis functions:                    144
                             - Spherical basis functions:                    144

  Maximum angular momentum of the orbital basis functions:                     1


 SCF PARAMETERS         Density guess:                                     MOPAC
                        --------------------------------------------------------
                        max_scf:                                             300
                        max_scf_history:                                       0
                        max_diis:                                              4
                        --------------------------------------------------------
                        eps_scf:                                        1.00E-09
                        eps_scf_history:                                0.00E+00
                        eps_diis:                                       1.00E-01
                        eps_eigval:                                     1.00E-05
                        --------------------------------------------------------
                        level_shift [a.u.]:                             0.000000
                        added MOs                                        88    0
                        --------------------------------------------------------
                        Mixing method:                           DIRECT_P_MIXING
                        --------------------------------------------------------
                        Smear method:                                FERMI_DIRAC
                        Electronic temperature [K]:                        300.0
                        Electronic temperature [a.u.]:                  9.50E-04
                        Accuracy threshold:                             1.00E-06
                        --------------------------------------------------------
                        No outer SCF

 CELL_OPT| Pressure tolerance [bar]:                                       100.0
 CELL_OPT| Keep volume of cell:                                               NO
 CELL_OPT| Keep angles between the cell vectors:                              NO
 CELL_OPT| Keep cell symmetry:                                                NO
 CELL_OPT| Constraint:                                                      NONE

 BFGS| Use rational function optimization for step estimation:                NO
 BFGS| Use model Hessian for initial guess:                                   NO
 BFGS| Restart Hessian:                                                       NO
 BFGS| Trust radius:                                                       0.472

 *******************************************************************************
 ***                     STARTING   CELL   OPTIMIZATION                      ***
 ***                                   BFGS                                  ***
 *******************************************************************************

 CELL| Volume [angstrom^3]:                                           393.072631
 CELL| Vector a [angstrom]:       6.639     0.000     0.000   |a| =     6.639000
 CELL| Vector b [angstrom]:       0.000     6.639     0.000   |b| =     6.639000
 CELL| Vector c [angstrom]:       0.000     0.000     8.918   |c| =     8.918000
 CELL| Angle (b,c), alpha [degree]:                                    90.000000
 CELL| Angle (a,c), beta  [degree]:                                    90.000000
 CELL| Angle (a,b), gamma [degree]:                                    90.000000
 CELL| Numerically orthorhombic:                                             YES
 CELL| Periodicity                                                           XYZ

 Extrapolation method: initial_guess

 Number of electrons:                                                        112
 Number of occupied orbitals:                                                 56
 Number of molecular orbitals:                                               144

 Number of orbital functions:                                                144
 Number of independent orbital functions:                                    144


 SCF WAVEFUNCTION OPTIMIZATION

  Step     Update method      Time    Convergence         Total energy    Change
  ------------------------------------------------------------------------------
     1 TBLite/Diag 0.40E+00    0.0     1.39615598       -59.2375767379 -5.92E+01
     2 TBLite/Diag 0.40E+00    0.0     0.01029378       -59.2400056830 -2.43E-03
     3 TBLite/Diag 0.40E+00    0.0     0.00672768       -59.2400788586 -7.32E-05
     4 TBLite/Diag 0.40E+00    0.0     0.00260058       -59.2401704230 -9.16E-05
     5 TBLite/Diag 0.40E+00    0.0     0.00027513       -59.2401719143 -1.49E-06
     6 TBLite/Diag 0.40E+00    0.0     0.00005182       -59.2401719497 -3.54E-08
     7 TBLite/Diag 0.40E+00    0.0     0.00001170       -59.2401719509 -1.15E-09
     8 TBLite/Diag 0.40E+00    0.0     0.00000053       -59.2401719509 -5.47E-13
     9 TBLite/Diag 0.40E+00    0.0     0.00000014       -59.2401719509  1.21E-13
    10 TBLite/Diag 0.40E+00    0.0     0.00000004       -59.2401719509 -1.78E-13
    11 TBLite/Diag 0.40E+00    0.0     8.6790E-09       -59.2401719509 -1.71E-13
    12 TBLite/Diag 0.40E+00    0.0     8.8130E-12       -59.2401719509 -8.53E-14

  *** SCF run converged in    12 steps ***


  Core Hamiltonian energy:                                    -60.88955914624456
  Repulsive potential energy:                                   1.72670110794327
  Electrostatic energy:                                         0.00355592757913
  Self-consistent dispersion energy:                            0.00000000000000
  Non-self consistent dispersion energy:                       -0.08086984015331
  Correction for halogen bonding:                               0.00000000000000
  Electronic entropic energy:                                  -0.00000000000000
  Fermi energy:                                                -0.19586341536493

  Total energy:                                               -59.24017195087546
  Total energy (extrapolated to T->0):                        -59.24017195087546

 ENERGY| Total FORCE_EVAL ( QS ) energy [hartree]            -59.240171950875457

 OPT| **************************************************************************
 OPT| Step number                                                              0
 OPT| Optimization method                                                   BFGS
 OPT| Total energy [hartree]                                      -59.2401719509
 OPT| Internal pressure [bar]                                  305754.8125011715
 OPT| Used time [s]                                                        0.677
 OPT| **************************************************************************
 OPT| Estimated peak process memory [MiB]                                    172

 --------------------------
 OPTIMIZATION STEP:      1
 --------------------------

 CELL| Volume [angstrom^3]:                                           411.008941
 CELL| Vector a [angstrom]:       6.757     0.000     0.000   |a| =     6.757085
 CELL| Vector b [angstrom]:       0.000     6.757     0.000   |b| =     6.757085
 CELL| Vector c [angstrom]:       0.000     0.000     9.002   |c| =     9.001865
 CELL| Angle (b,c), alpha [degree]:                                    90.000000
 CELL| Angle (a,c), beta  [degree]:                                    90.000000
 CELL| Angle (a,b), gamma [degree]:                                    90.000000
 CELL| Numerically orthorhombic:                                             YES
 CELL| Periodicity                                                           XYZ

 Extrapolation method: ASPC

 Number of electrons:                                                        112
 Number of occupied orbitals:                                                 56
 Number of molecular orbitals:                                               144

 Number of orbital functions:                                                144
 Number of independent orbital functions:                                    144


 SCF WAVEFUNCTION OPTIMIZATION

  Step     Update method      Time    Convergence         Total energy    Change
  ------------------------------------------------------------------------------
     1 TBLite/Diag 0.40E+00    0.0     0.14809933       -59.6525137607 -5.97E+01
     2 TBLite/Diag 0.40E+00    0.0     0.02635209       -59.6609021260 -8.39E-03
     3 TBLite/Diag 0.40E+00    0.0     0.00277980       -59.6609936928 -9.16E-05
     4 TBLite/Diag 0.40E+00    0.0     0.00051442       -59.6609937458 -5.29E-08
     5 TBLite/Diag 0.40E+00    0.0     0.00028253       -59.6609950028 -1.26E-06
     6 TBLite/Diag 0.40E+00    0.0     0.00004636       -59.6609950236 -2.08E-08
     7 TBLite/Diag 0.40E+00    0.0     0.00000218       -59.6609950236 -3.49E-11
     8 TBLite/Diag 0.40E+00    0.0     0.00000019       -59.6609950236 -4.90E-13
     9 TBLite/Diag 0.40E+00    0.0     0.00000004       -59.6609950236 -2.34E-13
    10 TBLite/Diag 0.40E+00    0.0     1.6666E-09       -59.6609950236  5.68E-14
    11 TBLite/Diag 0.40E+00    0.0     9.7342E-11       -59.6609950236  3.55E-14

  *** SCF run converged in    11 steps ***


  Core Hamiltonian energy:                                    -60.48647772131223
  Repulsive potential energy:                                   0.90103388028016
  Electrostatic energy:                                         0.00151353104332
  Self-consistent dispersion energy:                            0.00000000000000
  Non-self consistent dispersion energy:                       -0.07706471362712
  Correction for halogen bonding:                               0.00000000000000
  Electronic entropic energy:                                  -0.00000000000000
  Fermi energy:                                                -0.21411859205425

  Total energy:                                               -59.66099502361586
  Total energy (extrapolated to T->0):                        -59.66099502361586

 ENERGY| Total FORCE_EVAL ( QS ) energy [hartree]            -59.660995023615861

 OPT| **************************************************************************
 OPT| Step number                                                              1
 OPT| Optimization method                                                   BFGS
 OPT| Total energy [hartree]                                      -59.6609950236
 OPT| Internal pressure [bar]                                   77383.7309698398
 OPT| Effective energy change [hartree]                            -0.4208230727
 OPT| Predicted energy change [hartree]                            -0.5656363156
 OPT| Scaling factor                                                0.0000000000
 OPT| Step size                                                     0.2231486799
 OPT| Trust radius                                                  0.4724315332
 OPT| Decrease in energy                                                     YES
 OPT| Used time [s]                                                        0.432
 OPT|
 OPT| Maximum step size                                             0.2231486799
 OPT| Convergence limit for maximum step size                       0.0030000000
 OPT| Maximum step size is converged                                          NO
 OPT|
 OPT| RMS step size                                                 0.0835653301
 OPT| Convergence limit for RMS step size                           0.0015000000
 OPT| RMS step size is converged                                              NO
 OPT|
 OPT| Maximum gradient                                              0.0578008298
 OPT| Convergence limit for maximum gradient                        0.0004500000
 OPT| Maximum gradient is converged                                           NO
 OPT|
 OPT| RMS gradient                                                  0.0195452548
 OPT| Convergence limit for RMS gradient                            0.0003000000
 OPT| RMS gradient is converged                                               NO
 OPT|
 OPT| Pressure deviation [bar]                                  77383.7309698398
 OPT| Pressure tolerance [bar]                                    100.0000000000
 OPT| Pressure is converged                                                   NO
 OPT| **************************************************************************
 OPT| Estimated peak process memory after this step [MiB]                    173

 --------------------------
 OPTIMIZATION STEP:      2
 --------------------------

 CELL| Volume [angstrom^3]:                                           416.081374
 CELL| Vector a [angstrom]:       6.790     0.000     0.000   |a| =     6.789756
 CELL| Vector b [angstrom]:       0.000     6.790     0.000   |b| =     6.789756
 CELL| Vector c [angstrom]:       0.000     0.000     9.025   |c| =     9.025471
 CELL| Angle (b,c), alpha [degree]:                                    90.000000
 CELL| Angle (a,c), beta  [degree]:                                    90.000000
 CELL| Angle (a,b), gamma [degree]:                                    90.000000
 CELL| Numerically orthorhombic:                                             YES
 CELL| Periodicity                                                           XYZ

 Extrapolation method: ASPC

 Number of electrons:                                                        112
 Number of occupied orbitals:                                                 56
 Number of molecular orbitals:                                               144

 Number of orbital functions:                                                144
 Number of independent orbital functions:                                    144


 SCF WAVEFUNCTION OPTIMIZATION

  Step     Update method      Time    Convergence         Total energy    Change
  ------------------------------------------------------------------------------
     1 TBLite/Diag 0.40E+00    0.0     0.03544254       -59.7010290653 -5.97E+01
     2 TBLite/Diag 0.40E+00    0.0     0.00307198       -59.7011220177 -9.30E-05
     3 TBLite/Diag 0.40E+00    0.0     0.00058349       -59.7011243926 -2.37E-06
     4 TBLite/Diag 0.40E+00    0.0     0.00020838       -59.7011245288 -1.36E-07
     5 TBLite/Diag 0.40E+00    0.0     0.00005359       -59.7011245571 -2.84E-08
     6 TBLite/Diag 0.40E+00    0.0     0.00001615       -59.7011245585 -1.40E-09
     7 TBLite/Diag 0.40E+00    0.0     0.00000053       -59.7011245585 -1.21E-12
     8 TBLite/Diag 0.40E+00    0.0     0.00000007       -59.7011245585 -2.06E-13
     9 TBLite/Diag 0.40E+00    0.0     0.00000003       -59.7011245585 -1.63E-13
    10 TBLite/Diag 0.40E+00    0.0     5.4744E-10       -59.7011245585  1.49E-13

  *** SCF run converged in    10 steps ***


  Core Hamiltonian energy:                                    -60.48558463206593
  Repulsive potential energy:                                   0.85916633988879
  Electrostatic energy:                                         0.00151132668303
  Self-consistent dispersion energy:                            0.00000000000000
  Non-self consistent dispersion energy:                       -0.07621759301003
  Correction for halogen bonding:                               0.00000000000000
  Electronic entropic energy:                                  -0.00000000000000
  Fermi energy:                                                -0.21030156965542

  Total energy:                                               -59.70112455850413
  Total energy (extrapolated to T->0):                        -59.70112455850413

 ENERGY| Total FORCE_EVAL ( QS ) energy [hartree]            -59.701124558504134

 OPT| **************************************************************************
 OPT| Step number                                                              2
 OPT| Optimization method                                                   BFGS
 OPT| Total energy [hartree]                                      -59.7011245585
 OPT| Internal pressure [bar]                                   42136.0901867368
 OPT| Effective energy change [hartree]                            -0.0401295349
 OPT| Predicted energy change [hartree]                            -0.0263757709
 OPT| Scaling factor                                                0.0000000000
 OPT| Step size                                                     0.0617396014
 OPT| Trust radius                                                  0.4724315332
 OPT| Decrease in energy                                                     YES
 OPT| Used time [s]                                                        0.428
 OPT|
 OPT| Maximum step size                                             0.0617396014
 OPT| Convergence limit for maximum step size                       0.0030000000
 OPT| Maximum step size is converged                                          NO
 OPT|
 OPT| RMS step size                                                 0.0169308935
 OPT| Convergence limit for RMS step size                           0.0015000000
 OPT| RMS step size is converged                                              NO
 OPT|
 OPT| Maximum gradient                                              0.0312182841
 OPT| Convergence limit for maximum gradient                        0.0004500000
 OPT| Maximum gradient is converged                                           NO
 OPT|
 OPT| RMS gradient                                                  0.0096198087
 OPT| Convergence limit for RMS gradient                            0.0003000000
 OPT| RMS gradient is converged                                               NO
 OPT|
 OPT| Pressure deviation [bar]                                  42136.0901867368
 OPT| Pressure tolerance [bar]                                    100.0000000000
 OPT| Pressure is converged                                                   NO
 OPT| **************************************************************************
 OPT| Estimated peak process memory after this step [MiB]                    174

 --------------------------
 OPTIMIZATION STEP:      3
 --------------------------

 CELL| Volume [angstrom^3]:                                           421.988042
 CELL| Vector a [angstrom]:       6.827     0.000     0.000   |a| =     6.827129
 CELL| Vector b [angstrom]:       0.000     6.827     0.000   |b| =     6.827129
 CELL| Vector c [angstrom]:       0.000     0.000     9.054   |c| =     9.053655
 CELL| Angle (b,c), alpha [degree]:                                    90.000000
 CELL| Angle (a,c), beta  [degree]:                                    90.000000
 CELL| Angle (a,b), gamma [degree]:                                    90.000000
 CELL| Numerically orthorhombic:                                             YES
 CELL| Periodicity                                                           XYZ

 Extrapolation method: ASPC

 Number of electrons:                                                        112
 Number of occupied orbitals:                                                 56
 Number of molecular orbitals:                                               144

 Number of orbital functions:                                                144
 Number of independent orbital functions:                                    144


 SCF WAVEFUNCTION OPTIMIZATION

  Step     Update method      Time    Convergence         Total energy    Change
  ------------------------------------------------------------------------------
     1 TBLite/Diag 0.40E+00    0.0     0.02607910       -59.7173324658 -5.97E+01
     2 TBLite/Diag 0.40E+00    0.0     0.00231436       -59.7173981665 -6.57E-05
     3 TBLite/Diag 0.40E+00    0.0     0.00040544       -59.7173992674 -1.10E-06
     4 TBLite/Diag 0.40E+00    0.0     0.00014262       -59.7173993055 -3.81E-08
     5 TBLite/Diag 0.40E+00    0.0     0.00003547       -59.7173993232 -1.77E-08
     6 TBLite/Diag 0.40E+00    0.0     0.00001484       -59.7173993242 -1.04E-09
     7 TBLite/Diag 0.40E+00    0.0     0.00000041       -59.7173993242 -7.18E-13
     8 TBLite/Diag 0.40E+00    0.0     0.00000005       -59.7173993242 -1.99E-13
     9 TBLite/Diag 0.40E+00    0.0     0.00000002       -59.7173993242 -1.42E-13
    10 TBLite/Diag 0.40E+00    0.0     2.3115E-10       -59.7173993242 -1.42E-14

  *** SCF run converged in    10 steps ***


  Core Hamiltonian energy:                                    -60.46109188594941
  Repulsive potential energy:                                   0.81738498972830
  Electrostatic energy:                                         0.00156162410060
  Self-consistent dispersion energy:                            0.00000000000000
  Non-self consistent dispersion energy:                       -0.07525405212203
  Correction for halogen bonding:                               0.00000000000000
  Electronic entropic energy:                                  -0.00000000000000
  Fermi energy:                                                -0.20783979870341

  Total energy:                                               -59.71739932424254
  Total energy (extrapolated to T->0):                        -59.71739932424254

 ENERGY| Total FORCE_EVAL ( QS ) energy [hartree]            -59.717399324242542

 OPT| **************************************************************************
 OPT| Step number                                                              3
 OPT| Optimization method                                                   BFGS
 OPT| Total energy [hartree]                                      -59.7173993242
 OPT| Internal pressure [bar]                                    5530.4986119691
 OPT| Effective energy change [hartree]                            -0.0162747657
 OPT| Predicted energy change [hartree]                            -0.0139901102
 OPT| Scaling factor                                                0.0000000000
 OPT| Step size                                                     0.0706239634
 OPT| Trust radius                                                  0.4724315332
 OPT| Decrease in energy                                                     YES
 OPT| Used time [s]                                                        0.438
 OPT|
 OPT| Maximum step size                                             0.0706239634
 OPT| Convergence limit for maximum step size                       0.0030000000
 OPT| Maximum step size is converged                                          NO
 OPT|
 OPT| RMS step size                                                 0.0182610200
 OPT| Convergence limit for RMS step size                           0.0015000000
 OPT| RMS step size is converged                                              NO
 OPT|
 OPT| Maximum gradient                                              0.0065518870
 OPT| Convergence limit for maximum gradient                        0.0004500000
 OPT| Maximum gradient is converged                                           NO
 OPT|
 OPT| RMS gradient                                                  0.0031863350
 OPT| Convergence limit for RMS gradient                            0.0003000000
 OPT| RMS gradient is converged                                               NO
 OPT|
 OPT| Pressure deviation [bar]                                   5530.4986119691
 OPT| Pressure tolerance [bar]                                    100.0000000000
 OPT| Pressure is converged                                                   NO
 OPT| **************************************************************************
 OPT| Estimated peak process memory after this step [MiB]                    174

 --------------------------
 OPTIMIZATION STEP:      4
 --------------------------

 CELL| Volume [angstrom^3]:                                           423.355249
 CELL| Vector a [angstrom]:       6.836     0.000     0.000   |a| =     6.835501
 CELL| Vector b [angstrom]:       0.000     6.836     0.000   |b| =     6.835501
 CELL| Vector c [angstrom]:       0.000     0.000     9.061   |c| =     9.060751
 CELL| Angle (b,c), alpha [degree]:                                    90.000000
 CELL| Angle (a,c), beta  [degree]:                                    90.000000
 CELL| Angle (a,b), gamma [degree]:                                    90.000000
 CELL| Numerically orthorhombic:                                             YES
 CELL| Periodicity                                                           XYZ

 Extrapolation method: ASPC

 Number of electrons:                                                        112
 Number of occupied orbitals:                                                 56
 Number of molecular orbitals:                                               144

 Number of orbital functions:                                                144
 Number of independent orbital functions:                                    144


 SCF WAVEFUNCTION OPTIMIZATION

  Step     Update method      Time    Convergence         Total energy    Change
  ------------------------------------------------------------------------------
     1 TBLite/Diag 0.40E+00    0.0     0.00642042       -59.7193426621 -5.97E+01
     2 TBLite/Diag 0.40E+00    0.0     0.00027902       -59.7193435670 -9.05E-07
     3 TBLite/Diag 0.40E+00    0.0     0.00006853       -59.7193435866 -1.96E-08
     4 TBLite/Diag 0.40E+00    0.0     0.00002428       -59.7193435909 -4.25E-09
     5 TBLite/Diag 0.40E+00    0.0     0.00000915       -59.7193435913 -4.54E-10
     6 TBLite/Diag 0.40E+00    0.0     0.00000153       -59.7193435913 -1.79E-11
     7 TBLite/Diag 0.40E+00    0.0     0.00000005       -59.7193435913 -2.13E-13
     8 TBLite/Diag 0.40E+00    0.0     9.5825E-09       -59.7193435913 -7.82E-14
     9 TBLite/Diag 0.40E+00    0.0     1.3040E-09       -59.7193435913 -1.28E-13
    10 TBLite/Diag 0.40E+00    0.0     5.0868E-11       -59.7193435913  4.90E-13

  *** SCF run converged in    10 steps ***


  Core Hamiltonian energy:                                    -60.44798590962976
  Repulsive potential energy:                                   0.80212326935470
  Electrostatic energy:                                         0.00155045863550
  Self-consistent dispersion energy:                            0.00000000000000
  Non-self consistent dispersion energy:                       -0.07503140970679
  Correction for halogen bonding:                               0.00000000000000
  Electronic entropic energy:                                  -0.00000000000000
  Fermi energy:                                                -0.20803685545739

  Total energy:                                               -59.71934359134635
  Total energy (extrapolated to T->0):                        -59.71934359134635

 ENERGY| Total FORCE_EVAL ( QS ) energy [hartree]            -59.719343591346352

 OPT| **************************************************************************
 OPT| Step number                                                              4
 OPT| Optimization method                                                   BFGS
 OPT| Total energy [hartree]                                      -59.7193435913
 OPT| Internal pressure [bar]                                   -4002.5089625957
 OPT| Effective energy change [hartree]                            -0.0019442671
 OPT| Predicted energy change [hartree]                            -0.0012130964
 OPT| Scaling factor                                                0.0000000000
 OPT| Step size                                                     0.0158215749
 OPT| Trust radius                                                  0.4724315332
 OPT| Decrease in energy                                                     YES
 OPT| Used time [s]                                                        0.438
 OPT|
 OPT| Maximum step size                                             0.0158215749
 OPT| Convergence limit for maximum step size                       0.0030000000
 OPT| Maximum step size is converged                                          NO
 OPT|
 OPT| RMS step size                                                 0.0054419036
 OPT| Convergence limit for RMS step size                           0.0015000000
 OPT| RMS step size is converged                                              NO
 OPT|
 OPT| Maximum gradient                                              0.0055168971
 OPT| Convergence limit for maximum gradient                        0.0004500000
 OPT| Maximum gradient is converged                                           NO
 OPT|
 OPT| RMS gradient                                                  0.0025312084
 OPT| Convergence limit for RMS gradient                            0.0003000000
 OPT| RMS gradient is converged                                               NO
 OPT|
 OPT| Pressure deviation [bar]                                  -4002.5089625957
 OPT| Pressure tolerance [bar]                                    100.0000000000
 OPT| Pressure is converged                                                   NO
 OPT| **************************************************************************
 OPT| Estimated peak process memory after this step [MiB]                    175

 --------------------------
 OPTIMIZATION STEP:      5
 --------------------------

 CELL| Volume [angstrom^3]:                                           424.273001
 CELL| Vector a [angstrom]:       6.841     0.000     0.000   |a| =     6.840778
 CELL| Vector b [angstrom]:       0.000     6.841     0.000   |b| =     6.840778
 CELL| Vector c [angstrom]:       0.000     0.000     9.066   |c| =     9.066390
 CELL| Angle (b,c), alpha [degree]:                                    90.000000
 CELL| Angle (a,c), beta  [degree]:                                    90.000000
 CELL| Angle (a,b), gamma [degree]:                                    90.000000
 CELL| Numerically orthorhombic:                                             YES
 CELL| Periodicity                                                           XYZ

 Extrapolation method: ASPC

 Number of electrons:                                                        112
 Number of occupied orbitals:                                                 56
 Number of molecular orbitals:                                               144

 Number of orbital functions:                                                144
 Number of independent orbital functions:                                    144


 SCF WAVEFUNCTION OPTIMIZATION

  Step     Update method      Time    Convergence         Total energy    Change
  ------------------------------------------------------------------------------
     1 TBLite/Diag 0.40E+00    0.0     0.00961363       -59.7214041062 -5.97E+01
     2 TBLite/Diag 0.40E+00    0.0     0.00025504       -59.7214049956 -8.89E-07
     3 TBLite/Diag 0.40E+00    0.0     0.00016938       -59.7214050722 -7.65E-08
     4 TBLite/Diag 0.40E+00    0.0     0.00003616       -59.7214050871 -1.50E-08
     5 TBLite/Diag 0.40E+00    0.0     0.00001346       -59.7214050881 -9.72E-10
     6 TBLite/Diag 0.40E+00    0.0     0.00000175       -59.7214050881 -1.89E-11
     7 TBLite/Diag 0.40E+00    0.0     0.00000006       -59.7214050881  1.07E-13
     8 TBLite/Diag 0.40E+00    0.0     0.00000002       -59.7214050881 -7.11E-14
     9 TBLite/Diag 0.40E+00    0.0     1.4049E-09       -59.7214050881 -3.48E-13
    10 TBLite/Diag 0.40E+00    0.0     2.8235E-11       -59.7214050881  4.19E-13

  *** SCF run converged in    10 steps ***


  Core Hamiltonian energy:                                    -60.43257662712362
  Repulsive potential energy:                                   0.78453431332388
  Electrostatic energy:                                         0.00152269688767
  Self-consistent dispersion energy:                            0.00000000000000
  Non-self consistent dispersion energy:                       -0.07488547122642
  Correction for halogen bonding:                               0.00000000000000
  Electronic entropic energy:                                  -0.00000000000000
  Fermi energy:                                                -0.20863268566109

  Total energy:                                               -59.72140508813848
  Total energy (extrapolated to T->0):                        -59.72140508813848

 ENERGY| Total FORCE_EVAL ( QS ) energy [hartree]            -59.721405088138482

 OPT| **************************************************************************
 OPT| Step number                                                              5
 OPT| Optimization method                                                   BFGS
 OPT| Total energy [hartree]                                      -59.7214050881
 OPT| Internal pressure [bar]                                  -13123.9947394095
 OPT| Effective energy change [hartree]                            -0.0020614968
 OPT| Predicted energy change [hartree]                            -0.0014392288
 OPT| Scaling factor                                                0.0000000000
 OPT| Step size                                                     0.0186319846
 OPT| Trust radius                                                  0.4724315332
 OPT| Decrease in energy                                                     YES
 OPT| Used time [s]                                                        0.429
 OPT|
 OPT| Maximum step size                                             0.0186319846
 OPT| Convergence limit for maximum step size                       0.0030000000
 OPT| Maximum step size is converged                                          NO
 OPT|
 OPT| RMS step size                                                 0.0085053632
 OPT| Convergence limit for RMS step size                           0.0015000000
 OPT| RMS step size is converged                                              NO
 OPT|
 OPT| Maximum gradient                                              0.0097657505
 OPT| Convergence limit for maximum gradient                        0.0004500000
 OPT| Maximum gradient is converged                                           NO
 OPT|
 OPT| RMS gradient                                                  0.0021931853
 OPT| Convergence limit for RMS gradient                            0.0003000000
 OPT| RMS gradient is converged                                               NO
 OPT|
 OPT| Pressure deviation [bar]                                 -13123.9947394095
 OPT| Pressure tolerance [bar]                                    100.0000000000
 OPT| Pressure is converged                                                   NO
 OPT| **************************************************************************
 OPT| Estimated peak process memory after this step [MiB]                    175

 --------------------------
 OPTIMIZATION STEP:      6
 --------------------------

 CELL| Volume [angstrom^3]:                                           423.786880
 CELL| Vector a [angstrom]:       6.837     0.000     0.000   |a| =     6.837462
 CELL| Vector b [angstrom]:       0.000     6.837     0.000   |b| =     6.837462
 CELL| Vector c [angstrom]:       0.000     0.000     9.065   |c| =     9.064787
 CELL| Angle (b,c), alpha [degree]:                                    90.000000
 CELL| Angle (a,c), beta  [degree]:                                    90.000000
 CELL| Angle (a,b), gamma [degree]:                                    90.000000
 CELL| Numerically orthorhombic:                                             YES
 CELL| Periodicity                                                           XYZ

 Extrapolation method: ASPC

 Number of electrons:                                                        112
 Number of occupied orbitals:                                                 56
 Number of molecular orbitals:                                               144

 Number of orbital functions:                                                144
 Number of independent orbital functions:                                    144


 SCF WAVEFUNCTION OPTIMIZATION

  Step     Update method      Time    Convergence         Total energy    Change
  ------------------------------------------------------------------------------
     1 TBLite/Diag 0.40E+00    0.0     0.00680539       -59.7227914566 -5.97E+01
     2 TBLite/Diag 0.40E+00    0.0     0.00020390       -59.7227918722 -4.16E-07
     3 TBLite/Diag 0.40E+00    0.0     0.00008136       -59.7227919021 -2.99E-08
     4 TBLite/Diag 0.40E+00    0.0     0.00001496       -59.7227919034 -1.25E-09
     5 TBLite/Diag 0.40E+00    0.0     0.00000475       -59.7227919036 -2.73E-10
     6 TBLite/Diag 0.40E+00    0.0     0.00000192       -59.7227919037 -2.45E-11
     7 TBLite/Diag 0.40E+00    0.0     0.00000004       -59.7227919037 -4.97E-14
     8 TBLite/Diag 0.40E+00    0.0     6.7389E-09       -59.7227919037  2.42E-13
     9 TBLite/Diag 0.40E+00    0.0     7.3831E-11       -59.7227919037 -2.13E-13

  *** SCF run converged in     9 steps ***


  Core Hamiltonian energy:                                    -60.42905909077790
  Repulsive potential energy:                                   0.77973689197512
  Electrostatic energy:                                         0.00150294203010
  Self-consistent dispersion energy:                            0.00000000000000
  Non-self consistent dispersion energy:                       -0.07497264689858
  Correction for halogen bonding:                               0.00000000000000
  Electronic entropic energy:                                  -0.00000000000000
  Fermi energy:                                                -0.20897272471714

  Total energy:                                               -59.72279190367126
  Total energy (extrapolated to T->0):                        -59.72279190367126

 ENERGY| Total FORCE_EVAL ( QS ) energy [hartree]            -59.722791903671265

 OPT| **************************************************************************
 OPT| Step number                                                              6
 OPT| Optimization method                                                   BFGS
 OPT| Total energy [hartree]                                      -59.7227919037
 OPT| Internal pressure [bar]                                  -14313.9779617884
 OPT| Effective energy change [hartree]                            -0.0013868155
 OPT| Predicted energy change [hartree]                            -0.0008784738
 OPT| Scaling factor                                                0.0000000000
 OPT| Step size                                                     0.0171343960
 OPT| Trust radius                                                  0.4724315332
 OPT| Decrease in energy                                                     YES
 OPT| Used time [s]                                                        0.428
 OPT|
 OPT| Maximum step size                                             0.0171343960
 OPT| Convergence limit for maximum step size                       0.0030000000
 OPT| Maximum step size is converged                                          NO
 OPT|
 OPT| RMS step size                                                 0.0074368513
 OPT| Convergence limit for RMS step size                           0.0015000000
 OPT| RMS step size is converged                                              NO
 OPT|
 OPT| Maximum gradient                                              0.0097995809
 OPT| Convergence limit for maximum gradient                        0.0004500000
 OPT| Maximum gradient is converged                                           NO
 OPT|
 OPT| RMS gradient                                                  0.0021163638
 OPT| Convergence limit for RMS gradient                            0.0003000000
 OPT| RMS gradient is converged                                               NO
 OPT|
 OPT| Pressure deviation [bar]                                 -14313.9779617884
 OPT| Pressure tolerance [bar]                                    100.0000000000
 OPT| Pressure is converged                                                   NO
 OPT| **************************************************************************
 OPT| Estimated peak process memory after this step [MiB]                    175

 --------------------------
 OPTIMIZATION STEP:      7
 --------------------------

 CELL| Volume [angstrom^3]:                                           421.974970
 CELL| Vector a [angstrom]:       6.826     0.000     0.000   |a| =     6.826355
 CELL| Vector b [angstrom]:       0.000     6.826     0.000   |b| =     6.826355
 CELL| Vector c [angstrom]:       0.000     0.000     9.055   |c| =     9.055428
 CELL| Angle (b,c), alpha [degree]:                                    90.000000
 CELL| Angle (a,c), beta  [degree]:                                    90.000000
 CELL| Angle (a,b), gamma [degree]:                                    90.000000
 CELL| Numerically orthorhombic:                                             YES
 CELL| Periodicity                                                           XYZ

 Extrapolation method: ASPC

 Number of electrons:                                                        112
 Number of occupied orbitals:                                                 56
 Number of molecular orbitals:                                               144

 Number of orbital functions:                                                144
 Number of independent orbital functions:                                    144


 SCF WAVEFUNCTION OPTIMIZATION

  Step     Update method      Time    Convergence         Total energy    Change
  ------------------------------------------------------------------------------
     1 TBLite/Diag 0.40E+00    0.0     0.00651966       -59.7241763238 -5.97E+01
     2 TBLite/Diag 0.40E+00    0.0     0.00017320       -59.7241766627 -3.39E-07
     3 TBLite/Diag 0.40E+00    0.0     0.00004100       -59.7241766682 -5.53E-09
     4 TBLite/Diag 0.40E+00    0.0     0.00000938       -59.7241766690 -7.55E-10
     5 TBLite/Diag 0.40E+00    0.0     0.00000301       -59.7241766691 -1.15E-10
     6 TBLite/Diag 0.40E+00    0.0     0.00000113       -59.7241766691 -7.25E-12
     7 TBLite/Diag 0.40E+00    0.0     0.00000003       -59.7241766691  6.25E-13
     8 TBLite/Diag 0.40E+00    0.0     9.5380E-09       -59.7241766691 -1.07E-13
     9 TBLite/Diag 0.40E+00    0.0     1.6347E-10       -59.7241766691 -3.34E-13

  *** SCF run converged in     9 steps ***


  Core Hamiltonian energy:                                    -60.43589790900011
  Repulsive potential energy:                                   0.78551812395735
  Electrostatic energy:                                         0.00148808235655
  Self-consistent dispersion energy:                            0.00000000000000
  Non-self consistent dispersion energy:                       -0.07528496641051
  Correction for halogen bonding:                               0.00000000000000
  Electronic entropic energy:                                  -0.00000000000000
  Fermi energy:                                                -0.20898819999833

  Total energy:                                               -59.72417666909671
  Total energy (extrapolated to T->0):                        -59.72417666909671

 ENERGY| Total FORCE_EVAL ( QS ) energy [hartree]            -59.724176669096714

 OPT| **************************************************************************
 OPT| Step number                                                              7
 OPT| Optimization method                                                   BFGS
 OPT| Total energy [hartree]                                      -59.7241766691
 OPT| Internal pressure [bar]                                   -8977.3353972401
 OPT| Effective energy change [hartree]                            -0.0013847654
 OPT| Predicted energy change [hartree]                            -0.0010114955
 OPT| Scaling factor                                                0.0000000000
 OPT| Step size                                                     0.0217584588
 OPT| Trust radius                                                  0.4724315332
 OPT| Decrease in energy                                                     YES
 OPT| Used time [s]                                                        0.424
 OPT|
 OPT| Maximum step size                                             0.0217584588
 OPT| Convergence limit for maximum step size                       0.0030000000
 OPT| Maximum step size is converged                                          NO
 OPT|
 OPT| RMS step size                                                 0.0098558332
 OPT| Convergence limit for RMS step size                           0.0015000000
 OPT| RMS step size is converged                                              NO
 OPT|
 OPT| Maximum gradient                                              0.0084454299
 OPT| Convergence limit for maximum gradient                        0.0004500000
 OPT| Maximum gradient is converged                                           NO
 OPT|
 OPT| RMS gradient                                                  0.0016570551
 OPT| Convergence limit for RMS gradient                            0.0003000000
 OPT| RMS gradient is converged                                               NO
 OPT|
 OPT| Pressure deviation [bar]                                  -8977.3353972401
 OPT| Pressure tolerance [bar]                                    100.0000000000
 OPT| Pressure is converged                                                   NO
 OPT| **************************************************************************
 OPT| Estimated peak process memory after this step [MiB]                    175

 --------------------------
 OPTIMIZATION STEP:      8
 --------------------------

 CELL| Volume [angstrom^3]:                                           420.507555
 CELL| Vector a [angstrom]:       6.818     0.000     0.000   |a| =     6.818238
 CELL| Vector b [angstrom]:       0.000     6.818     0.000   |b| =     6.818238
 CELL| Vector c [angstrom]:       0.000     0.000     9.045   |c| =     9.045435
 CELL| Angle (b,c), alpha [degree]:                                    90.000000
 CELL| Angle (a,c), beta  [degree]:                                    90.000000
 CELL| Angle (a,b), gamma [degree]:                                    90.000000
 CELL| Numerically orthorhombic:                                             YES
 CELL| Periodicity                                                           XYZ

 Extrapolation method: ASPC

 Number of electrons:                                                        112
 Number of occupied orbitals:                                                 56
 Number of molecular orbitals:                                               144

 Number of orbital functions:                                                144
 Number of independent orbital functions:                                    144


 SCF WAVEFUNCTION OPTIMIZATION

  Step     Update method      Time    Convergence         Total energy    Change
  ------------------------------------------------------------------------------
     1 TBLite/Diag 0.40E+00    0.0     0.00346729       -59.7247229063 -5.97E+01
     2 TBLite/Diag 0.40E+00    0.0     0.00007455       -59.7247230196 -1.13E-07
     3 TBLite/Diag 0.40E+00    0.0     0.00005221       -59.7247230261 -6.54E-09
     4 TBLite/Diag 0.40E+00    0.0     0.00001312       -59.7247230292 -3.06E-09
     5 TBLite/Diag 0.40E+00    0.0     0.00000384       -59.7247230292 -9.19E-11
     6 TBLite/Diag 0.40E+00    0.0     0.00000075       -59.7247230292 -2.42E-12
     7 TBLite/Diag 0.40E+00    0.0     0.00000002       -59.7247230292  3.77E-13
     8 TBLite/Diag 0.40E+00    0.0     7.0101E-09       -59.7247230292 -3.20E-13
     9 TBLite/Diag 0.40E+00    0.0     2.8858E-10       -59.7247230292 -2.56E-13

  *** SCF run converged in     9 steps ***


  Core Hamiltonian energy:                                    -60.44712857794305
  Repulsive potential energy:                                   0.79645241788289
  Electrostatic energy:                                         0.00149027246668
  Self-consistent dispersion energy:                            0.00000000000000
  Non-self consistent dispersion energy:                       -0.07553714165415
  Correction for halogen bonding:                               0.00000000000000
  Electronic entropic energy:                                  -0.00000000000000
  Fermi energy:                                                -0.20858214393240

  Total energy:                                               -59.72472302924762
  Total energy (extrapolated to T->0):                        -59.72472302924762

 ENERGY| Total FORCE_EVAL ( QS ) energy [hartree]            -59.724723029247620

 OPT| **************************************************************************
 OPT| Step number                                                              8
 OPT| Optimization method                                                   BFGS
 OPT| Total energy [hartree]                                      -59.7247230292
 OPT| Internal pressure [bar]                                   -2190.1871679390
 OPT| Effective energy change [hartree]                            -0.0005463602
 OPT| Predicted energy change [hartree]                            -0.0003980440
 OPT| Scaling factor                                                0.0000000000
 OPT| Step size                                                     0.0188839326
 OPT| Trust radius                                                  0.4724315332
 OPT| Decrease in energy                                                     YES
 OPT| Used time [s]                                                        0.425
 OPT|
 OPT| Maximum step size                                             0.0188839326
 OPT| Convergence limit for maximum step size                       0.0030000000
 OPT| Maximum step size is converged                                          NO
 OPT|
 OPT| RMS step size                                                 0.0050149431
 OPT| Convergence limit for RMS step size                           0.0015000000
 OPT| RMS step size is converged                                              NO
 OPT|
 OPT| Maximum gradient                                              0.0053568540
 OPT| Convergence limit for maximum gradient                        0.0004500000
 OPT| Maximum gradient is converged                                           NO
 OPT|
 OPT| RMS gradient                                                  0.0010344083
 OPT| Convergence limit for RMS gradient                            0.0003000000
 OPT| RMS gradient is converged                                               NO
 OPT|
 OPT| Pressure deviation [bar]                                  -2190.1871679390
 OPT| Pressure tolerance [bar]                                    100.0000000000
 OPT| Pressure is converged                                                   NO
 OPT| **************************************************************************
 OPT| Estimated peak process memory after this step [MiB]                    175

 --------------------------
 OPTIMIZATION STEP:      9
 --------------------------

 CELL| Volume [angstrom^3]:                                           419.863915
 CELL| Vector a [angstrom]:       6.816     0.000     0.000   |a| =     6.815864
 CELL| Vector b [angstrom]:       0.000     6.816     0.000   |b| =     6.815864
 CELL| Vector c [angstrom]:       0.000     0.000     9.038   |c| =     9.037884
 CELL| Angle (b,c), alpha [degree]:                                    90.000000
 CELL| Angle (a,c), beta  [degree]:                                    90.000000
 CELL| Angle (a,b), gamma [degree]:                                    90.000000
 CELL| Numerically orthorhombic:                                             YES
 CELL| Periodicity                                                           XYZ

 Extrapolation method: ASPC

 Number of electrons:                                                        112
 Number of occupied orbitals:                                                 56
 Number of molecular orbitals:                                               144

 Number of orbital functions:                                                144
 Number of independent orbital functions:                                    144


 SCF WAVEFUNCTION OPTIMIZATION

  Step     Update method      Time    Convergence         Total energy    Change
  ------------------------------------------------------------------------------
     1 TBLite/Diag 0.40E+00    0.0     0.00221539       -59.7249491353 -5.97E+01
     2 TBLite/Diag 0.40E+00    0.0     0.00012262       -59.7249493011 -1.66E-07
     3 TBLite/Diag 0.40E+00    0.0     0.00005702       -59.7249493106 -9.43E-09
     4 TBLite/Diag 0.40E+00    0.0     0.00001012       -59.7249493126 -2.01E-09
     5 TBLite/Diag 0.40E+00    0.0     0.00000262       -59.7249493127 -1.11E-10
     6 TBLite/Diag 0.40E+00    0.0     0.00000138       -59.7249493127 -1.14E-11
     7 TBLite/Diag 0.40E+00    0.0     5.6682E-09       -59.7249493127  1.56E-13
     8 TBLite/Diag 0.40E+00    0.0     3.2648E-09       -59.7249493127 -1.21E-13
     9 TBLite/Diag 0.40E+00    0.0     1.6642E-10       -59.7249493127  2.13E-14

  *** SCF run converged in     9 steps ***


  Core Hamiltonian energy:                                    -60.45501160027080
  Repulsive potential energy:                                   0.80421220216263
  Electrostatic energy:                                         0.00149692547267
  Self-consistent dispersion energy:                            0.00000000000000
  Non-self consistent dispersion energy:                       -0.07564684004838
  Correction for halogen bonding:                               0.00000000000000
  Electronic entropic energy:                                  -0.00000000000000
  Fermi energy:                                                -0.20818120564703

  Total energy:                                               -59.72494931268389
  Total energy (extrapolated to T->0):                        -59.72494931268389

 ENERGY| Total FORCE_EVAL ( QS ) energy [hartree]            -59.724949312683890

 OPT| **************************************************************************
 OPT| Step number                                                              9
 OPT| Optimization method                                                   BFGS
 OPT| Total energy [hartree]                                      -59.7249493127
 OPT| Internal pressure [bar]                                    1904.8733917550
 OPT| Effective energy change [hartree]                            -0.0002262834
 OPT| Predicted energy change [hartree]                            -0.0001573542
 OPT| Scaling factor                                                0.0000000000
 OPT| Step size                                                     0.0142689926
 OPT| Trust radius                                                  0.4724315332
 OPT| Decrease in energy                                                     YES
 OPT| Used time [s]                                                        0.423
 OPT|
 OPT| Maximum step size                                             0.0142689926
 OPT| Convergence limit for maximum step size                       0.0030000000
 OPT| Maximum step size is converged                                          NO
 OPT|
 OPT| RMS step size                                                 0.0024125250
 OPT| Convergence limit for RMS step size                           0.0015000000
 OPT| RMS step size is converged                                              NO
 OPT|
 OPT| Maximum gradient                                              0.0040690370
 OPT| Convergence limit for maximum gradient                        0.0004500000
 OPT| Maximum gradient is converged                                           NO
 OPT|
 OPT| RMS gradient                                                  0.0007692684
 OPT| Convergence limit for RMS gradient                            0.0003000000
 OPT| RMS gradient is converged                                               NO
 OPT|
 OPT| Pressure deviation [bar]                                   1904.8733917550
 OPT| Pressure tolerance [bar]                                    100.0000000000
 OPT| Pressure is converged                                                   NO
 OPT| **************************************************************************
 OPT| Estimated peak process memory after this step [MiB]                    175

 --------------------------
 OPTIMIZATION STEP:     10
 --------------------------

 CELL| Volume [angstrom^3]:                                           419.727406
 CELL| Vector a [angstrom]:       6.817     0.000     0.000   |a| =     6.817385
 CELL| Vector b [angstrom]:       0.000     6.817     0.000   |b| =     6.817385
 CELL| Vector c [angstrom]:       0.000     0.000     9.031   |c| =     9.030913
 CELL| Angle (b,c), alpha [degree]:                                    90.000000
 CELL| Angle (a,c), beta  [degree]:                                    90.000000
 CELL| Angle (a,b), gamma [degree]:                                    90.000000
 CELL| Numerically orthorhombic:                                             YES
 CELL| Periodicity                                                           XYZ

 Extrapolation method: ASPC

 Number of electrons:                                                        112
 Number of occupied orbitals:                                                 56
 Number of molecular orbitals:                                               144

 Number of orbital functions:                                                144
 Number of independent orbital functions:                                    144


 SCF WAVEFUNCTION OPTIMIZATION

  Step     Update method      Time    Convergence         Total energy    Change
  ------------------------------------------------------------------------------
     1 TBLite/Diag 0.40E+00    0.0     0.00147756       -59.7251157079 -5.97E+01
     2 TBLite/Diag 0.40E+00    0.0     0.00010389       -59.7251158193 -1.11E-07
     3 TBLite/Diag 0.40E+00    0.0     0.00003251       -59.7251158234 -4.09E-09
     4 TBLite/Diag 0.40E+00    0.0     0.00000625       -59.7251158238 -3.89E-10
     5 TBLite/Diag 0.40E+00    0.0     0.00000210       -59.7251158238 -6.48E-11
     6 TBLite/Diag 0.40E+00    0.0     0.00000088       -59.7251158238 -5.04E-12
     7 TBLite/Diag 0.40E+00    0.0     9.5394E-09       -59.7251158238  4.33E-13
     8 TBLite/Diag 0.40E+00    0.0     1.1688E-09       -59.7251158238 -1.21E-13
     9 TBLite/Diag 0.40E+00    0.0     1.0083E-10       -59.7251158238 -4.26E-14

  *** SCF run converged in     9 steps ***


  Core Hamiltonian energy:                                    -60.45922693290743
  Repulsive potential energy:                                   0.80827716527963
  Electrostatic energy:                                         0.00150168775976
  Self-consistent dispersion energy:                            0.00000000000000
  Non-self consistent dispersion energy:                       -0.07566774396854
  Correction for halogen bonding:                               0.00000000000000
  Electronic entropic energy:                                  -0.00000000000000
  Fermi energy:                                                -0.20792256134341

  Total energy:                                               -59.72511582383658
  Total energy (extrapolated to T->0):                        -59.72511582383658

 ENERGY| Total FORCE_EVAL ( QS ) energy [hartree]            -59.725115823836582

 OPT| **************************************************************************
 OPT| Step number                                                             10
 OPT| Optimization method                                                   BFGS
 OPT| Total energy [hartree]                                      -59.7251158238
 OPT| Internal pressure [bar]                                    3769.4814984488
 OPT| Effective energy change [hartree]                            -0.0001665112
 OPT| Predicted energy change [hartree]                            -0.0001055918
 OPT| Scaling factor                                                0.0000000000
 OPT| Step size                                                     0.0131737899
 OPT| Trust radius                                                  0.4724315332
 OPT| Decrease in energy                                                     YES
 OPT| Used time [s]                                                        0.425
 OPT|
 OPT| Maximum step size                                             0.0131737899
 OPT| Convergence limit for maximum step size                       0.0030000000
 OPT| Maximum step size is converged                                          NO
 OPT|
 OPT| RMS step size                                                 0.0021791082
 OPT| Convergence limit for RMS step size                           0.0015000000
 OPT| RMS step size is converged                                              NO
 OPT|
 OPT| Maximum gradient                                              0.0050925092
 OPT| Convergence limit for maximum gradient                        0.0004500000
 OPT| Maximum gradient is converged                                           NO
 OPT|
 OPT| RMS gradient                                                  0.0007976429
 OPT| Convergence limit for RMS gradient                            0.0003000000
 OPT| RMS gradient is converged                                               NO
 OPT|
 OPT| Pressure deviation [bar]                                   3769.4814984488
 OPT| Pressure tolerance [bar]                                    100.0000000000
 OPT| Pressure is converged                                                   NO
 OPT| **************************************************************************
 OPT| Estimated peak process memory after this step [MiB]                    175

 --------------------------
 OPTIMIZATION STEP:     11
 --------------------------

 CELL| Volume [angstrom^3]:                                           419.967478
 CELL| Vector a [angstrom]:       6.823     0.000     0.000   |a| =     6.823492
 CELL| Vector b [angstrom]:       0.000     6.823     0.000   |b| =     6.823492
 CELL| Vector c [angstrom]:       0.000     0.000     9.020   |c| =     9.019912
 CELL| Angle (b,c), alpha [degree]:                                    90.000000
 CELL| Angle (a,c), beta  [degree]:                                    90.000000
 CELL| Angle (a,b), gamma [degree]:                                    90.000000
 CELL| Numerically orthorhombic:                                             YES
 CELL| Periodicity                                                           XYZ

 Extrapolation method: ASPC

 Number of electrons:                                                        112
 Number of occupied orbitals:                                                 56
 Number of molecular orbitals:                                               144

 Number of orbital functions:                                                144
 Number of independent orbital functions:                                    144


 SCF WAVEFUNCTION OPTIMIZATION

  Step     Update method      Time    Convergence         Total energy    Change
  ------------------------------------------------------------------------------
     1 TBLite/Diag 0.40E+00    0.0     0.00281766       -59.7253387025 -5.97E+01
     2 TBLite/Diag 0.40E+00    0.0     0.00008917       -59.7253388106 -1.08E-07
     3 TBLite/Diag 0.40E+00    0.0     0.00001647       -59.7253388123 -1.76E-09
     4 TBLite/Diag 0.40E+00    0.0     0.00000502       -59.7253388124 -1.26E-10
     5 TBLite/Diag 0.40E+00    0.0     0.00000162       -59.7253388125 -2.74E-11
     6 TBLite/Diag 0.40E+00    0.0     0.00000049       -59.7253388125 -2.04E-12
     7 TBLite/Diag 0.40E+00    0.0     0.00000002       -59.7253388125  4.26E-14
     8 TBLite/Diag 0.40E+00    0.0     2.7202E-09       -59.7253388125 -4.76E-13
     9 TBLite/Diag 0.40E+00    0.0     3.3455E-11       -59.7253388125  2.63E-13

  *** SCF run converged in     9 steps ***


  Core Hamiltonian energy:                                    -60.46135984008471
  Repulsive potential energy:                                   0.81013663895349
  Electrostatic energy:                                         0.00150431328545
  Self-consistent dispersion energy:                            0.00000000000000
  Non-self consistent dispersion energy:                       -0.07561992462422
  Correction for halogen bonding:                               0.00000000000000
  Electronic entropic energy:                                  -0.00000000000000
  Fermi energy:                                                -0.20775318613201

  Total energy:                                               -59.72533881246998
  Total energy (extrapolated to T->0):                        -59.72533881246998

 ENERGY| Total FORCE_EVAL ( QS ) energy [hartree]            -59.725338812469978

 OPT| **************************************************************************
 OPT| Step number                                                             11
 OPT| Optimization method                                                   BFGS
 OPT| Total energy [hartree]                                      -59.7253388125
 OPT| Internal pressure [bar]                                    4390.6760223771
 OPT| Effective energy change [hartree]                            -0.0002229886
 OPT| Predicted energy change [hartree]                            -0.0001523862
 OPT| Scaling factor                                                0.0000000000
 OPT| Step size                                                     0.0207877292
 OPT| Trust radius                                                  0.4724315332
 OPT| Decrease in energy                                                     YES
 OPT| Used time [s]                                                        0.424
 OPT|
 OPT| Maximum step size                                             0.0207877292
 OPT| Convergence limit for maximum step size                       0.0030000000
 OPT| Maximum step size is converged                                          NO
 OPT|
 OPT| RMS step size                                                 0.0037921618
 OPT| Convergence limit for RMS step size                           0.0015000000
 OPT| RMS step size is converged                                              NO
 OPT|
 OPT| Maximum gradient                                              0.0047980201
 OPT| Convergence limit for maximum gradient                        0.0004500000
 OPT| Maximum gradient is converged                                           NO
 OPT|
 OPT| RMS gradient                                                  0.0008724837
 OPT| Convergence limit for RMS gradient                            0.0003000000
 OPT| RMS gradient is converged                                               NO
 OPT|
 OPT| Pressure deviation [bar]                                   4390.6760223771
 OPT| Pressure tolerance [bar]                                    100.0000000000
 OPT| Pressure is converged                                                   NO
 OPT| **************************************************************************
 OPT| Estimated peak process memory after this step [MiB]                    175

 --------------------------
 OPTIMIZATION STEP:     12
 --------------------------

 CELL| Volume [angstrom^3]:                                           420.573804
 CELL| Vector a [angstrom]:       6.832     0.000     0.000   |a| =     6.832451
 CELL| Vector b [angstrom]:       0.000     6.832     0.000   |b| =     6.832451
 CELL| Vector c [angstrom]:       0.000     0.000     9.009   |c| =     9.009261
 CELL| Angle (b,c), alpha [degree]:                                    90.000000
 CELL| Angle (a,c), beta  [degree]:                                    90.000000
 CELL| Angle (a,b), gamma [degree]:                                    90.000000
 CELL| Numerically orthorhombic:                                             YES
 CELL| Periodicity                                                           XYZ

 Extrapolation method: ASPC

 Number of electrons:                                                        112
 Number of occupied orbitals:                                                 56
 Number of molecular orbitals:                                               144

 Number of orbital functions:                                                144
 Number of independent orbital functions:                                    144


 SCF WAVEFUNCTION OPTIMIZATION

  Step     Update method      Time    Convergence         Total energy    Change
  ------------------------------------------------------------------------------
     1 TBLite/Diag 0.40E+00    0.0     0.00324375       -59.7255261519 -5.97E+01
     2 TBLite/Diag 0.40E+00    0.0     0.00006357       -59.7255262078 -5.59E-08
     3 TBLite/Diag 0.40E+00    0.0     0.00001880       -59.7255262099 -2.06E-09
     4 TBLite/Diag 0.40E+00    0.0     0.00000512       -59.7255262102 -3.25E-10
     5 TBLite/Diag 0.40E+00    0.0     0.00000149       -59.7255262102 -1.83E-11
     6 TBLite/Diag 0.40E+00    0.0     0.00000046       -59.7255262102 -1.07E-12
     7 TBLite/Diag 0.40E+00    0.0     0.00000004       -59.7255262102 -3.55E-13
     8 TBLite/Diag 0.40E+00    0.0     5.0228E-09       -59.7255262102 -1.63E-13
     9 TBLite/Diag 0.40E+00    0.0     4.6135E-11       -59.7255262102 -7.11E-15

  *** SCF run converged in     9 steps ***


  Core Hamiltonian energy:                                    -60.45929436032338
  Repulsive potential energy:                                   0.80777300217997
  Electrostatic energy:                                         0.00150189149354
  Self-consistent dispersion energy:                            0.00000000000000
  Non-self consistent dispersion energy:                       -0.07550674356193
  Correction for halogen bonding:                               0.00000000000000
  Electronic entropic energy:                                  -0.00000000000000
  Fermi energy:                                                -0.20782948082478

  Total energy:                                               -59.72552621021179
  Total energy (extrapolated to T->0):                        -59.72552621021179

 ENERGY| Total FORCE_EVAL ( QS ) energy [hartree]            -59.725526210211790

 OPT| **************************************************************************
 OPT| Step number                                                             12
 OPT| Optimization method                                                   BFGS
 OPT| Total energy [hartree]                                      -59.7255262102
 OPT| Internal pressure [bar]                                    3039.5684927713
 OPT| Effective energy change [hartree]                            -0.0001873977
 OPT| Predicted energy change [hartree]                            -0.0001334039
 OPT| Scaling factor                                                0.0000000000
 OPT| Step size                                                     0.0201275638
 OPT| Trust radius                                                  0.4724315332
 OPT| Decrease in energy                                                     YES
 OPT| Used time [s]                                                        0.424
 OPT|
 OPT| Maximum step size                                             0.0201275638
 OPT| Convergence limit for maximum step size                       0.0030000000
 OPT| Maximum step size is converged                                          NO
 OPT|
 OPT| RMS step size                                                 0.0041827143
 OPT| Convergence limit for RMS step size                           0.0015000000
 OPT| RMS step size is converged                                              NO
 OPT|
 OPT| Maximum gradient                                              0.0029928059
[...]
 OPT| Predicted energy change [hartree]                            -0.0001569192
 OPT| Scaling factor                                                0.8806576234
 OPT| Step size                                                     0.4724315332
 OPT| Trust radius                                                  0.4724315332
 OPT| Decrease in energy                                                      NO
 OPT| Used time [s]                                                        0.463
 OPT|
 OPT| Maximum step size                                             0.4724315332
 OPT| Convergence limit for maximum step size                       0.0030000000
 OPT| Maximum step size is converged                                          NO
 OPT|
 OPT| RMS step size                                                 0.0691665296
 OPT| Convergence limit for RMS step size                           0.0015000000
 OPT| RMS step size is converged                                              NO
 OPT|
 OPT| Maximum gradient                                              0.0008471035
 OPT| Convergence limit for maximum gradient                        0.0004500000
 OPT| Maximum gradient is converged                                           NO
 OPT|
 OPT| RMS gradient                                                  0.0002119062
 OPT| Convergence limit for RMS gradient                            0.0003000000
 OPT| RMS gradient is converged                                              YES
 OPT|
 OPT| Pressure deviation [bar]                                  -1119.1441616619
 OPT| Pressure tolerance [bar]                                    100.0000000000
 OPT| Pressure is converged                                                   NO
 OPT| **************************************************************************
 OPT| Estimated peak process memory after this step [MiB]                    175

 --------------------------
 OPTIMIZATION STEP:    200
 --------------------------

  Step is scaled; Scaling factor =  0.30455

 CELL| Volume [angstrom^3]:                                           398.847821
 CELL| Vector a [angstrom]:       7.286     0.000     0.000   |a| =     7.285576
 CELL| Vector b [angstrom]:       0.000     7.286     0.000   |b| =     7.285576
 CELL| Vector c [angstrom]:      -0.000    -0.000     7.514   |c| =     7.514142
 CELL| Angle (b,c), alpha [degree]:                                    90.000000
 CELL| Angle (a,c), beta  [degree]:                                    90.000000
 CELL| Angle (a,b), gamma [degree]:                                    90.000000
 CELL| Numerically orthorhombic:                                              NO
 CELL| Periodicity                                                           XYZ

 Extrapolation method: ASPC

 Number of electrons:                                                        112
 Number of occupied orbitals:                                                 56
 Number of molecular orbitals:                                               144

 Number of orbital functions:                                                144
 Number of independent orbital functions:                                    144


 SCF WAVEFUNCTION OPTIMIZATION

  Step     Update method      Time    Convergence         Total energy    Change
  ------------------------------------------------------------------------------
     1 TBLite/Diag 0.40E+00    0.0     0.01431162       -59.7373479959 -5.97E+01
     2 TBLite/Diag 0.40E+00    0.0     0.00024815       -59.7373485585 -5.63E-07
     3 TBLite/Diag 0.40E+00    0.0     0.00008087       -59.7373485749 -1.64E-08
     4 TBLite/Diag 0.40E+00    0.0     0.00002860       -59.7373485803 -5.44E-09
     5 TBLite/Diag 0.40E+00    0.0     0.00000405       -59.7373485804 -8.65E-11
     6 TBLite/Diag 0.40E+00    0.0     0.00000089       -59.7373485804 -6.66E-12
     7 TBLite/Diag 0.40E+00    0.0     0.00000004       -59.7373485804  2.13E-14
     8 TBLite/Diag 0.40E+00    0.0     0.00000002       -59.7373485804  1.42E-14
     9 TBLite/Diag 0.40E+00    0.0     5.2615E-10       -59.7373485804  3.13E-13

  *** SCF run converged in     9 steps ***


  Core Hamiltonian energy:                                    -60.47442904338769
  Repulsive potential energy:                                   0.81528457735181
  Electrostatic energy:                                         0.00162960746621
  Self-consistent dispersion energy:                            0.00000000000000
  Non-self consistent dispersion energy:                       -0.07983372183268
  Correction for halogen bonding:                               0.00000000000000
  Electronic entropic energy:                                  -0.00000000000000
  Fermi energy:                                                -0.20673595884555

  Total energy:                                               -59.73734858040235
  Total energy (extrapolated to T->0):                        -59.73734858040235

 ENERGY| Total FORCE_EVAL ( QS ) energy [hartree]            -59.737348580402355

 OPT| **************************************************************************
 OPT| Step number                                                            200
 OPT| Optimization method                                                   BFGS
 OPT| Total energy [hartree]                                      -59.7373485804
 OPT| Internal pressure [bar]                                    7903.1014679600
 OPT| Effective energy change [hartree]                             0.0001446659
 OPT| Predicted energy change [hartree]                            -0.0002603379
 OPT| Scaling factor                                                0.3045486718
 OPT| Step size                                                     0.4724315332
 OPT| Trust radius                                                  0.4724315332
 OPT| Decrease in energy                                                      NO
 OPT| Used time [s]                                                        0.465
 OPT|
 OPT| Maximum step size                                             0.4724315332
 OPT| Convergence limit for maximum step size                       0.0030000000
 OPT| Maximum step size is converged                                          NO
 OPT|
 OPT| RMS step size                                                 0.0689436671
 OPT| Convergence limit for RMS step size                           0.0015000000
 OPT| RMS step size is converged                                              NO
 OPT|
 OPT| Maximum gradient                                              0.0072988475
 OPT| Convergence limit for maximum gradient                        0.0004500000
 OPT| Maximum gradient is converged                                           NO
 OPT|
 OPT| RMS gradient                                                  0.0010739289
 OPT| Convergence limit for RMS gradient                            0.0003000000
 OPT| RMS gradient is converged                                               NO
 OPT|
 OPT| Pressure deviation [bar]                                   7903.1014679600
 OPT| Pressure tolerance [bar]                                    100.0000000000
 OPT| Pressure is converged                                                   NO
 OPT| **************************************************************************
 OPT| Estimated peak process memory after this step [MiB]                    175

 *** MAXIMUM NUMBER OF OPTIMIZATION STEPS REACHED ***
 ***        EXITING GEOMETRY OPTIMIZATION         ***

 write_final_structure: Optimization not yet converged, writing XYZ file anyway:
  adamantane_GFN1_gamma_cell_opt-FINAL-1_200.xyz

 write_final_structure: Optimization not yet converged, writing CIF file anyway:
  adamantane_GFN1_gamma_cell_opt-FINAL-1_200.cif

 write_final_structure: Done!

 -------------------------------------------------------------------------------
 -                                                                             -
 -                                DBCSR STATISTICS                             -
 -                                                                             -
 -------------------------------------------------------------------------------
 COUNTER                                    TOTAL       BLAS       SMM       ACC
 flops     2 x    16 x     2            129761280       0.0%    100.0%      0.0%     
 flops     4 x    16 x     2            162201600       0.0%    100.0%      0.0%     
 flops     2 x    16 x     4            162201600       0.0%    100.0%      0.0%     
 flops     4 x    16 x     4            202752000       0.0%    100.0%      0.0%     
 flops     2 x    32 x     2           1038090240       0.0%    100.0%      0.0%     
 flops     2 x    32 x     4           1297612800       0.0%    100.0%      0.0%     
 flops     4 x    32 x     2           1297612800       0.0%    100.0%      0.0%     
 flops     2 x     2 x   144           1377699840       0.0%    100.0%      0.0%     
 flops     4 x    32 x     4           1622016000       0.0%    100.0%      0.0%     
 flops     4 x     2 x   144           1669939200       0.0%    100.0%      0.0%     
 flops     2 x     4 x   144           1669939200       0.0%    100.0%      0.0%     
 flops     4 x     4 x   144           2191795200       0.0%    100.0%      0.0%     
 flops inhomo. stacks                           0       0.0%      0.0%      0.0%
 flops total                        12.821622E+09       0.0%    100.0%      0.0%
 flops max/rank                     12.821622E+09       0.0%    100.0%      0.0%
 matmuls inhomo. stacks                         0       0.0%      0.0%      0.0%
 matmuls total                           16505970       0.0%    100.0%      0.0%
 number of processed stacks                 26880       0.0%    100.0%      0.0%
 average stack size                                     0.0     614.1       0.0
 marketing flops                    11.172557E+09
 -------------------------------------------------------------------------------
 # multiplications                           3255
 max memory usage/rank              13.679620E+09
 # max total images/rank                        1
 # max 3D layers                                1
 # MPI messages exchanged                       0
 -------------------------------------------------------------------------------
 -                                                                             -
 -                      DBCSR MESSAGE PASSING PERFORMANCE                      -
 -                                                                             -
 -------------------------------------------------------------------------------
 ROUTINE             CALLS      AVE VOLUME [Bytes]
 MP_Bcast               13                     12.
 MP_Allreduce        14338                      8.
 MP_Alltoall        101766                 112917.
 MP_ISend            13020                  12633.
 MP_IRecv            13020                  12633.
 -------------------------------------------------------------------------------

 -------------------------------------------------------------------------------
 -                                                                             -
 -                          OFFLOAD MEMPOOL STATISTICS                         -
 -                                                                             -
 -------------------------------------------------------------------------------
 Memory consumption                Number of allocations  Used [MiB]  Size [MiB]
 Device                                                2           0           0
 Host                                                  2           0           0
 -------------------------------------------------------------------------------

 MEMORY| Estimated peak process memory [MiB]                                 176

 -------------------------------------------------------------------------------
 -                                                                             -
 -                         MESSAGE PASSING PERFORMANCE                         -
 -                                                                             -
 -------------------------------------------------------------------------------

 ROUTINE             CALLS      AVE VOLUME [Bytes]
 MP_Group              201
 MP_Bcast             4529                    584.
 MP_Allreduce        33881                    397.
 MP_Sync              2465
 MP_comm_split        2264
 -------------------------------------------------------------------------------


 -------------------------------------------------------------------------------
 -                                                                             -
 -                           R E F E R E N C E S                               -
 -                                                                             -
 -------------------------------------------------------------------------------
 
 CP2K version 2026.1 (Development Version), the CP2K developers group (2026).
 CP2K is freely available from https://www.cp2k.org/ .
 
 M. Iannuzzi, J. Wilhelm, F. Stein, A. Bussy, H. Elgabarty, D. Golze, A. Hehn, 
 M. Graml, S. Marek, B. Sertcan Gökmen, C. Schran, H. Forbert, R. Z. 
 Khaliullin, A. Kozhevnikov, M. Taillefumier, R. Meli, V. V. Rybkin, M. Brehm, 
 R. Schade, O. Schütt, J. V. Pototschnig, H. Mirhosseini, A. Knüpfer, D. Marx, 
 M. Krack, J. Hutter, T. D. Kühne.
 J. Phys. Chem. B 130, 1237-1310 (2026).
 The CP2K Program Package Made Simple.
 https://doi.org/10.1021/acs.jpcb.5c05851

 A. Katbashev, M. Stahn, T. Rose, V. Alizadeh, M. Friede, C. Plett, P. 
 Steinbach, S. Ehlert.
 J. Phys. Chem. A 129, 2667-2682 (2025).
 Overview on Building Blocks and Applications of Efficient and Robust Extended 
 Tight Binding.
 https://doi.org/10.1021/acs.jpca.4c08263

 T. D. Kühne, M. Iannuzzi, M. Del Ben, V. V. Rybkin, P. Seewald, F. Stein, T. 
 Laino, R. Z. Khaliullin, O. Schütt, F. Schiffmann, D. Golze, J. Wilhelm, S. 
 Chulkov, M. H. Bani-Hashemian, V. Weber, U. Borstnik, M. Taillefumier, A. S. 
 Jakobovits, A. Lazzaro, H. Pabst, T. Müller, R. Schade, M. Guidon, S. 
 Andermatt, N. Holmberg, G. K. Schenter, A. Hehn, A. Bussy, F. Belleflamme, G. 
 Tabacchi, A. Glöß, M. Lass, I. Bethune, C. J. Mundy, C. Plessl, M. Watkins, 
 J. VandeVondele, M. Krack, J. Hutter.
 J. Chem. Phys. 152, 194103 (2020).
 CP2K: An electronic structure and molecular dynamics software package - 
 Quickstep: Efficient and accurate electronic structure calculations.
 https://doi.org/10.1063/5.0007045

 P. Pracht, E. Caldeweyher, S. Ehlert, S. Grimme.
 ChemRxiv, (2019).
 A Robust Non-Self-Consistent Tight-Binding Quantum Chemistry Method for large 
 Molecules.
 https://doi.org/10.26434/chemrxiv.8326202.v1

 S. Grimme, C. Bannwarth, P. Shushkov.
 J. Chem. Theory Comput. 13, 1989 (2017).
 A Robust and Accurate Tight-Binding Quantum Chemical Method for Structures, 
 Vibrational Frequencies, and Noncovalent Interactions of Large Molecular 
 Systems Parametrized for All spd-Block Elements (Z = 1-86).
 https://doi.org/10.1021/acs.jctc.7b00118

 O. Schuett, P. Messmer, J. Hutter, J. VandeVondele.
 Electronic Structure Calculations on Graphics Processing Units, 173-190 (2016).
 GPU-Accelerated Sparse Matrix-Matrix Multiplication for Linear Scaling Density 
 Functional Theory.
 https://doi.org/10.1002/9781118670712.ch8

 A. Heinecke, G. Henry, M. Hutchinson, H. Pabst.
 Proceedings of Intl. Supercomputing Conference, 981-991 (2016).
 LIBXSMM: Accelerating Small Matrix Multiplications by Runtime Code Generation.
 https://doi.org/10.1109/SC.2016.83

 U. Borstnik, J. VandeVondele, V. Weber, J. Hutter.
 Parallel Comput. 40, 47-58 (2014).
 Sparse matrix multiplication: The distributed block-compressed sparse row 
 library.
 https://doi.org/10.1016/j.parco.2014.03.012

 T. D. Kühne, M. Krack, F. R. Mohamed, M. Parrinello.
 Phys. Rev. Lett. 98, 066401 (2007).
 Efficient and accurate Car-Parrinello-like approach to Born-Oppenheimer 
 molecular dynamics.
 https://doi.org/10.1103/PhysRevLett.98.066401

 M. Frigo, S. G. Johnson.
 Proc. IEEE 93, 216-231 (2005).
 The design and implementation of FFTW3.
 https://doi.org/10.1109/JPROC.2004.840301

 J. Kolafa.
 J. Comput. Chem. 25, 335-342 (2004).
 Time-reversible always stable predictor-corrector method for molecular dynamics 
 of polarizable molecules.
 https://doi.org/10.1002/jcc.10385

 N. D. Mermin.
 Phys. Rev. 137, A1441-A1443 (1965).
 Thermal Properties of the Inhomogeneous Electron Gas.
 https://doi.org/10.1103/PhysRev.137.A1441


 -------------------------------------------------------------------------------
 -                                                                             -
 -                                T I M I N G                                  -
 -                                                                             -
 -------------------------------------------------------------------------------
 SUBROUTINE                       CALLS  ASD         SELF TIME        TOTAL TIME
                                MAXIMUM       AVERAGE  MAXIMUM  AVERAGE  MAXIMUM
 CP2K                                 1  1.0    0.003    0.003   87.995   87.995
 cp_cell_opt                          1  2.0    0.000    0.000   87.987   87.987
 geoopt_bfgs                          1  3.0    0.019    0.019   87.987   87.987
 cp_eval_at                         201  4.0    0.018    0.018   87.518   87.518
 qs_forces                          201  5.0    0.010    0.010   87.496   87.496
 build_tblite_matrices              402  7.0   38.065   38.065   38.571   38.571
 rebuild_ks_matrix                 2065  9.7    0.002    0.002   37.836   37.836
 build_tblite_ks_matrix            2065 10.7   37.814   37.814   37.835   37.835
 qs_ks_update_qs_env_forces         201  6.0    0.001    0.001   37.196   37.196
 qs_energies                        201  6.0    0.005    0.005   27.725   27.725
 qs_energies_init_hamiltonians      201  7.0    0.001    0.001   16.558   16.558
 scf_env_do_scf                     201  7.0    0.002    0.002    8.659    8.659
 scf_env_do_scf_inner_loop         1864  8.0    0.199    0.199    8.643    8.643
 qs_scf_new_mos                    1864  9.0    0.006    0.006    7.287    7.287
 eigensolver                       1864 10.0    0.019    0.019    2.934    2.934
 cp_fm_syevd                       2264 10.6    0.004    0.004    2.839    2.839
 cp_fm_syevd_base                  2264 11.6    2.703    2.703    2.703    2.703
 cp_dbcsr_plus_fm_fm_t             2265 10.8    0.009    0.009    2.409    2.409
 dbcsr_multiply_generic            3255 12.0    0.068    0.068    2.400    2.400
 calculate_dm_sparse               2064 10.0    0.008    0.008    2.217    2.217
 dbcsr_complete_redistribute      10238 12.2    1.833    1.833    2.186    2.186
 init_scf_run                       201  7.0    0.001    0.001    2.127    2.127
 copy_dbcsr_to_fm                  4718 10.6    0.016    0.016    2.053    2.053
 scf_env_initial_rho_setup          201  8.0    0.001    0.001    1.997    1.997
 wfi_extrapolate                    201  9.0    0.005    0.005    1.995    1.995
 -------------------------------------------------------------------------------

 The number of warnings for this run is : 0
 
 -------------------------------------------------------------------------------
  **** **** ******  **  PROGRAM ENDED AT                 2026-05-23 22:48:17.314
 ***** ** ***  *** **   PROGRAM RAN ON                                spark-c86c
 **    ****   ******    PROGRAM RAN BY                                  kuehne88
 ***** **    ** ** **   PROGRAM PROCESS ID                               2263754
  **** **  *******  **  PROGRAM STOPPED IN /home/kuehne88/periodic-gfn2-benchmar
                                           ks/X23b/runs/cellopt_gamma/GFN1/adama
                                           ntane_GFN1_gamma_cellopt
