 DBCSR| CPU Multiplication driver                                           XSMM (U)
 DBCSR| Multrec recursion limit                                              512 (U)
 DBCSR| Multiplication stack size                                           1000 (D)
 DBCSR| Maximum elements for images                                    UNLIMITED (U)
 DBCSR| Multiplicative factor virtual images                                   1 (U)
 DBCSR| Use multiplication densification                                       T (D)
 DBCSR| Multiplication size stacks                                             3 (U)
 DBCSR| Use memory pool for CPU allocation                                     F (U)
 DBCSR| Number of 3D layers                                               SINGLE (U)
 DBCSR| Use MPI memory allocation                                              F (U)
 DBCSR| Use RMA algorithm                                                      F (U)
 DBCSR| Use Communication thread                                               T (U)
 DBCSR| Communication thread load                                             87 (D)
 DBCSR| MPI: My process id                                                     0
 DBCSR| MPI: Number of processes                                               1
 DBCSR| OMP: Current number of threads                                         1
 DBCSR| OMP: Max number of threads                                             1
 DBCSR| Split modifier for TAS multiplication algorithm                  1.0E+00 (U)


  **** **** ******  **  PROGRAM STARTED AT               2026-05-23 23:04:09.197
 ***** ** ***  *** **   PROGRAM STARTED ON                            spark-c86c
 **    ****   ******    PROGRAM STARTED BY                              kuehne88
 ***** **    ** ** **   PROGRAM PROCESS ID                               2275653
  **** **  *******  **  PROGRAM STARTED IN /home/kuehne88/periodic-gfn2-benchmar
                                           ks/X23b/runs/cellopt_gamma/GFN1/adama
                                           ntane_GFN1_gamma_cellopt

 CP2K| version string:                 CP2K version 2026.1 (Development Version)
 CP2K| source code revision number:                                   0622d442e4
 CP2K| cp2kflags: omp fftw3 libxc parallel scalapack mpi_f08 xsmm spglib libdftd
 CP2K|            4 dftd4_v3 mctc-lib tblite
 CP2K| is freely available from                            https://www.cp2k.org/
 CP2K| Program compiled at                                   2026-05-23 22:05:08
 CP2K| Program compiled on                                            spark-c86c
 CP2K| Program compiled for                                              aarch64
 CP2K| Data directory path    /home/kuehne88/cp2k-master-tblite-20260523/install
 CP2K| Input file name                                          continue_800.inp

 GLOBAL| Force Environment number                                              1
 GLOBAL| Basis set file name                                           BASIS_SET
 GLOBAL| Potential file name                                           POTENTIAL
 GLOBAL| MM Potential file name                                     MM_POTENTIAL
 GLOBAL| Coordinate file name                                      __STD_INPUT__
 GLOBAL| Method name                                                        CP2K
 GLOBAL| Project name                             adamantane_GFN1_gamma_cell_opt
 GLOBAL| Run type                                                       CELL_OPT
 GLOBAL| FFT library                                                       FFTW3
 GLOBAL| Diagonalization library                                       ScaLAPACK
 GLOBAL| Cholesky decomposition library                                ScaLAPACK
 GLOBAL| DGEMM library                                                      BLAS
 GLOBAL| Direct generalized diagonalization requested                          F
 GLOBAL| Orthonormality check for eigenvectors                          DISABLED
 GLOBAL| Matrix multiplication library                                 ScaLAPACK
 GLOBAL| All-to-all communication in single precision                          F
 GLOBAL| FFTs using library dependent lengths                                  F
 GLOBAL| Grid backend                                                       AUTO
 GLOBAL| Global print level                                                  LOW
 GLOBAL| MPI I/O enabled                                                       T
 GLOBAL| Total number of message passing processes                             1
 GLOBAL| Number of distributed systems (nodes)                                 1
 GLOBAL| Number of threads for this process                                    1
 GLOBAL| This output is from process                                           0
 GLOBAL| OpenMP stack size per thread (OMP_STACKSIZE)                    default
 GLOBAL| CPU model name                                                  UNKNOWN
 GLOBAL| CPUID                                                              2200
 GLOBAL| Compiled for CPUID                                                 2000

 *** HINT in environment.F:970 :: The compiler target flags (arm_arch64)   ***
 *** used to build this binary cannot exploit all extensions of this CPU   ***
 *** model (arm_sve256). Consider compiler target flags as part of FCFLAGS ***
 *** and CFLAGS (ARCH file).                                               ***


 MEMORY| system memory details [Kb]
 MEMORY|                        rank 0           min           max       average
 MEMORY| MemTotal            125508532     125508532     125508532     125508532
 MEMORY| MemFree             106120420     106120420     106120420     106120420
 MEMORY| Buffers                870280        870280        870280        870280
 MEMORY| Cached               14131464      14131464      14131464      14131464
 MEMORY| Slab                  1599224       1599224       1599224       1599224
 MEMORY| SReclaimable           926060        926060        926060        926060
 MEMORY| MemLikelyFree       122048224     122048224     122048224     122048224


 GENERATE|  Preliminary Number of Bonds generated:                             0
 GENERATE|  Achieved consistency in connectivity generation.


                  #####   #####        #     #   #     #       #          
                 #     # #     #      #    ##### #     #   # #####  ####  
                 #     # #           #       #   ###   #       #   #    # 
                 #     #  #####     #        #   #  #  #   #   #   ###### 
                 #   # #       #   #         #   #   # #   #   #   #      
                 #    #  #     #  #          #   #  #  # # #   #    #   # 
                  #### #  #####  #           #   ###   ##  #   #     ###  

                                   GFN1-xTB  
                                 Version 0.0                       
                            Johann V. Pototschnig                  



 TOTAL NUMBERS AND MAXIMUM NUMBERS

  Total number of            - Atomic kinds:                                   2
                             - Atoms:                                         52
                             - Shell sets:                                   104
                             - Shells:                                       104
                             - Primitive Cartesian functions:                592
                             - Cartesian basis functions:                    144
                             - Spherical basis functions:                    144

  Maximum angular momentum of the orbital basis functions:                     1


 SCF PARAMETERS         Density guess:                                     MOPAC
                        --------------------------------------------------------
                        max_scf:                                             300
                        max_scf_history:                                       0
                        max_diis:                                              4
                        --------------------------------------------------------
                        eps_scf:                                        1.00E-09
                        eps_scf_history:                                0.00E+00
                        eps_diis:                                       1.00E-01
                        eps_eigval:                                     1.00E-05
                        --------------------------------------------------------
                        level_shift [a.u.]:                             0.000000
                        added MOs                                        88    0
                        --------------------------------------------------------
                        Mixing method:                           DIRECT_P_MIXING
                        --------------------------------------------------------
                        Smear method:                                FERMI_DIRAC
                        Electronic temperature [K]:                        300.0
                        Electronic temperature [a.u.]:                  9.50E-04
                        Accuracy threshold:                             1.00E-06
                        --------------------------------------------------------
                        No outer SCF

 CELL_OPT| Pressure tolerance [bar]:                                       100.0
 CELL_OPT| Keep volume of cell:                                               NO
 CELL_OPT| Keep angles between the cell vectors:                              NO
 CELL_OPT| Keep cell symmetry:                                                NO
 CELL_OPT| Constraint:                                                      NONE

 BFGS| Use rational function optimization for step estimation:                NO
 BFGS| Use model Hessian for initial guess:                                   NO
 BFGS| Restart Hessian:                                                       NO
 BFGS| Trust radius:                                                       0.472

 *******************************************************************************
 ***                     STARTING   CELL   OPTIMIZATION                      ***
 ***                                   BFGS                                  ***
 *******************************************************************************

 CELL| Volume [angstrom^3]:                                           398.847821
 CELL| Vector a [angstrom]:       7.286     0.000     0.000   |a| =     7.285576
 CELL| Vector b [angstrom]:       0.000     7.286     0.000   |b| =     7.285576
 CELL| Vector c [angstrom]:      -0.000    -0.000     7.514   |c| =     7.514142
 CELL| Angle (b,c), alpha [degree]:                                    90.000000
 CELL| Angle (a,c), beta  [degree]:                                    90.000000
 CELL| Angle (a,b), gamma [degree]:                                    90.000000
 CELL| Numerically orthorhombic:                                              NO
 CELL| Periodicity                                                           XYZ

 Extrapolation method: initial_guess

 Number of electrons:                                                        112
 Number of occupied orbitals:                                                 56
 Number of molecular orbitals:                                               144

 Number of orbital functions:                                                144
 Number of independent orbital functions:                                    144


 SCF WAVEFUNCTION OPTIMIZATION

  Step     Update method      Time    Convergence         Total energy    Change
  ------------------------------------------------------------------------------
     1 TBLite/Diag 0.40E+00    0.0     1.33716001       -59.7368689983 -5.97E+01
     2 TBLite/Diag 0.40E+00    0.0     0.00475243       -59.7373378176 -4.69E-04
     3 TBLite/Diag 0.40E+00    0.0     0.00147670       -59.7373383530 -5.35E-07
     4 TBLite/Diag 0.40E+00    0.0     0.00073090       -59.7373484744 -1.01E-05
     5 TBLite/Diag 0.40E+00    0.0     0.00008897       -59.7373485800 -1.06E-07
     6 TBLite/Diag 0.40E+00    0.0     0.00000896       -59.7373485804 -4.19E-10
     7 TBLite/Diag 0.40E+00    0.0     0.00000174       -59.7373485804 -1.89E-11
     8 TBLite/Diag 0.40E+00    0.0     0.00000010       -59.7373485804 -2.34E-13
     9 TBLite/Diag 0.40E+00    0.0     0.00000003       -59.7373485804 -3.55E-14
    10 TBLite/Diag 0.40E+00    0.0     6.1337E-09       -59.7373485804  3.34E-13
    11 TBLite/Diag 0.40E+00    0.0     1.4681E-09       -59.7373485804 -4.33E-13
    12 TBLite/Diag 0.40E+00    0.0     1.3373E-10       -59.7373485804  2.56E-13

  *** SCF run converged in    12 steps ***


  Core Hamiltonian energy:                                    -60.47442904338788
  Repulsive potential energy:                                   0.81528457735181
  Electrostatic energy:                                         0.00162960746616
  Self-consistent dispersion energy:                            0.00000000000000
  Non-self consistent dispersion energy:                       -0.07983372183268
  Correction for halogen bonding:                               0.00000000000000
  Electronic entropic energy:                                  -0.00000000000000
  Fermi energy:                                                -0.20673595884544

  Total energy:                                               -59.73734858040258
  Total energy (extrapolated to T->0):                        -59.73734858040258

 ENERGY| Total FORCE_EVAL ( QS ) energy [hartree]            -59.737348580402582

 OPT| **************************************************************************
 OPT| Step number                                                            200
 OPT| Optimization method                                                   BFGS
 OPT| Total energy [hartree]                                      -59.7373485804
 OPT| Internal pressure [bar]                                    7903.1014678113
 OPT| Used time [s]                                                        0.461

 --------------------------
 OPTIMIZATION STEP:    201
 --------------------------

 CELL| Volume [angstrom^3]:                                           399.291315
 CELL| Vector a [angstrom]:       7.288     0.000     0.000   |a| =     7.287753
 CELL| Vector b [angstrom]:       0.000     7.288     0.000   |b| =     7.287753
 CELL| Vector c [angstrom]:      -0.000    -0.000     7.518   |c| =     7.518004
 CELL| Angle (b,c), alpha [degree]:                                    90.000000
 CELL| Angle (a,c), beta  [degree]:                                    90.000000
 CELL| Angle (a,b), gamma [degree]:                                    90.000000
 CELL| Numerically orthorhombic:                                              NO
 CELL| Periodicity                                                           XYZ

 Extrapolation method: ASPC

 Number of electrons:                                                        112
 Number of occupied orbitals:                                                 56
 Number of molecular orbitals:                                               144

 Number of orbital functions:                                                144
 Number of independent orbital functions:                                    144


 SCF WAVEFUNCTION OPTIMIZATION

  Step     Update method      Time    Convergence         Total energy    Change
  ------------------------------------------------------------------------------
     1 TBLite/Diag 0.40E+00    0.0     0.00114337       -59.7374885334 -5.97E+01
     2 TBLite/Diag 0.40E+00    0.0     0.00005559       -59.7374885819 -4.84E-08
     3 TBLite/Diag 0.40E+00    0.0     0.00001507       -59.7374885825 -6.35E-10
     4 TBLite/Diag 0.40E+00    0.0     0.00000579       -59.7374885828 -3.24E-10
     5 TBLite/Diag 0.40E+00    0.0     0.00000113       -59.7374885828 -8.73E-12
     6 TBLite/Diag 0.40E+00    0.0     0.00000023       -59.7374885828 -6.68E-13
     7 TBLite/Diag 0.40E+00    0.0     0.00000002       -59.7374885828  4.97E-14
     8 TBLite/Diag 0.40E+00    0.0     2.3525E-09       -59.7374885828 -3.55E-14
     9 TBLite/Diag 0.40E+00    0.0     6.2292E-11       -59.7374885828  1.99E-13

  *** SCF run converged in     9 steps ***


  Core Hamiltonian energy:                                    -60.47058220199195
  Repulsive potential energy:                                   0.81121191113425
  Electrostatic energy:                                         0.00163101025789
  Self-consistent dispersion energy:                            0.00000000000000
  Non-self consistent dispersion energy:                       -0.07974930222686
  Correction for halogen bonding:                               0.00000000000000
  Electronic entropic energy:                                  -0.00000000000000
  Fermi energy:                                                -0.20680090574850

  Total energy:                                               -59.73748858282668
  Total energy (extrapolated to T->0):                        -59.73748858282668

 ENERGY| Total FORCE_EVAL ( QS ) energy [hartree]            -59.737488582826678

 OPT| **************************************************************************
 OPT| Step number                                                            201
 OPT| Optimization method                                                   BFGS
 OPT| Total energy [hartree]                                      -59.7374885828
 OPT| Internal pressure [bar]                                    5213.5075045431
 OPT| Effective energy change [hartree]                            -0.0001400024
 OPT| Predicted energy change [hartree]                            -0.0000845806
 OPT| Scaling factor                                                0.0000000000
 OPT| Step size                                                     0.0072988475
 OPT| Trust radius                                                  0.4724315332
 OPT| Decrease in energy                                                     YES
 OPT| Used time [s]                                                        0.460
 OPT|
 OPT| Maximum step size                                             0.0072988475
 OPT| Convergence limit for maximum step size                       0.0030000000
 OPT| Maximum step size is converged                                          NO
 OPT|
 OPT| RMS step size                                                 0.0010218632
 OPT| Convergence limit for RMS step size                           0.0015000000
 OPT| RMS step size is converged                                             YES
 OPT|
 OPT| Maximum gradient                                              0.0052243666
 OPT| Convergence limit for maximum gradient                        0.0004500000
 OPT| Maximum gradient is converged                                           NO
 OPT|
 OPT| RMS gradient                                                  0.0006800642
 OPT| Convergence limit for RMS gradient                            0.0003000000
 OPT| RMS gradient is converged                                               NO
 OPT|
 OPT| Pressure deviation [bar]                                   5213.5075045431
 OPT| Pressure tolerance [bar]                                    100.0000000000
 OPT| Pressure is converged                                                   NO
 OPT| **************************************************************************
 OPT| Estimated peak process memory after this step [MiB]                    173

 --------------------------
 OPTIMIZATION STEP:    202
 --------------------------

 CELL| Volume [angstrom^3]:                                           400.186531
 CELL| Vector a [angstrom]:       7.292     0.000     0.000   |a| =     7.291830
 CELL| Vector b [angstrom]:       0.000     7.292     0.000   |b| =     7.291830
 CELL| Vector c [angstrom]:      -0.000    -0.000     7.526   |c| =     7.526437
 CELL| Angle (b,c), alpha [degree]:                                    90.000000
 CELL| Angle (a,c), beta  [degree]:                                    90.000000
 CELL| Angle (a,b), gamma [degree]:                                    90.000000
 CELL| Numerically orthorhombic:                                              NO
 CELL| Periodicity                                                           XYZ

 Extrapolation method: ASPC

 Number of electrons:                                                        112
 Number of occupied orbitals:                                                 56
 Number of molecular orbitals:                                               144

 Number of orbital functions:                                                144
 Number of independent orbital functions:                                    144


 SCF WAVEFUNCTION OPTIMIZATION

  Step     Update method      Time    Convergence         Total energy    Change
  ------------------------------------------------------------------------------
     1 TBLite/Diag 0.40E+00    0.0     0.00221853       -59.7376087760 -5.97E+01
     2 TBLite/Diag 0.40E+00    0.0     0.00010869       -59.7376089157 -1.40E-07
     3 TBLite/Diag 0.40E+00    0.0     0.00003265       -59.7376089174 -1.68E-09
     4 TBLite/Diag 0.40E+00    0.0     0.00001307       -59.7376089188 -1.42E-09
     5 TBLite/Diag 0.40E+00    0.0     0.00000162       -59.7376089188 -2.71E-11
     6 TBLite/Diag 0.40E+00    0.0     0.00000056       -59.7376089188 -1.19E-12
     7 TBLite/Diag 0.40E+00    0.0     0.00000003       -59.7376089188 -2.49E-13
     8 TBLite/Diag 0.40E+00    0.0     5.1075E-09       -59.7376089188  5.68E-14
     9 TBLite/Diag 0.40E+00    0.0     2.0288E-10       -59.7376089188  1.14E-13

  *** SCF run converged in     9 steps ***


  Core Hamiltonian energy:                                    -60.46260509178263
  Repulsive potential energy:                                   0.80294217875737
  Electrostatic energy:                                         0.00163240870997
  Self-consistent dispersion energy:                            0.00000000000000
  Non-self consistent dispersion energy:                       -0.07957841453063
  Correction for halogen bonding:                               0.00000000000000
  Electronic entropic energy:                                  -0.00000000000000
  Fermi energy:                                                -0.20700697976903

  Total energy:                                               -59.73760891884592
  Total energy (extrapolated to T->0):                        -59.73760891884592

 ENERGY| Total FORCE_EVAL ( QS ) energy [hartree]            -59.737608918845922

 OPT| **************************************************************************
 OPT| Step number                                                            202
 OPT| Optimization method                                                   BFGS
 OPT| Total energy [hartree]                                      -59.7376089188
 OPT| Internal pressure [bar]                                     -65.1905237827
 OPT| Effective energy change [hartree]                            -0.0001203360
 OPT| Predicted energy change [hartree]                            -0.0001145828
 OPT| Scaling factor                                                0.0000000000
 OPT| Step size                                                     0.0159358818
 OPT| Trust radius                                                  0.4724315332
 OPT| Decrease in energy                                                     YES
 OPT| Used time [s]                                                        0.461
 OPT|
 OPT| Maximum step size                                             0.0159358818
 OPT| Convergence limit for maximum step size                       0.0030000000
 OPT| Maximum step size is converged                                          NO
 OPT|
 OPT| RMS step size                                                 0.0020801635
 OPT| Convergence limit for RMS step size                           0.0015000000
 OPT| RMS step size is converged                                              NO
 OPT|
 OPT| Maximum gradient                                              0.0009495292
 OPT| Convergence limit for maximum gradient                        0.0004500000
 OPT| Maximum gradient is converged                                           NO
 OPT|
 OPT| RMS gradient                                                  0.0002329186
 OPT| Convergence limit for RMS gradient                            0.0003000000
 OPT| RMS gradient is converged                                              YES
 OPT|
 OPT| Pressure deviation [bar]                                    -65.1905237827
 OPT| Pressure tolerance [bar]                                    100.0000000000
 OPT| Pressure is converged                                                  YES
 OPT| **************************************************************************
 OPT| Estimated peak process memory after this step [MiB]                    174

 --------------------------
 OPTIMIZATION STEP:    203
 --------------------------

 CELL| Volume [angstrom^3]:                                           400.251064
 CELL| Vector a [angstrom]:       7.292     0.000     0.000   |a| =     7.291850
 CELL| Vector b [angstrom]:       0.000     7.292     0.000   |b| =     7.291850
 CELL| Vector c [angstrom]:      -0.000    -0.000     7.528   |c| =     7.527609
 CELL| Angle (b,c), alpha [degree]:                                    90.000000
 CELL| Angle (a,c), beta  [degree]:                                    90.000000
 CELL| Angle (a,b), gamma [degree]:                                    90.000000
 CELL| Numerically orthorhombic:                                              NO
 CELL| Periodicity                                                           XYZ

 Extrapolation method: ASPC

 Number of electrons:                                                        112
 Number of occupied orbitals:                                                 56
 Number of molecular orbitals:                                               144

 Number of orbital functions:                                                144
 Number of independent orbital functions:                                    144


 SCF WAVEFUNCTION OPTIMIZATION

  Step     Update method      Time    Convergence         Total energy    Change
  ------------------------------------------------------------------------------
     1 TBLite/Diag 0.40E+00    0.0     0.00017060       -59.7376178351 -5.97E+01
     2 TBLite/Diag 0.40E+00    0.0     0.00000663       -59.7376178359 -7.88E-10
     3 TBLite/Diag 0.40E+00    0.0     0.00000291       -59.7376178359 -2.90E-11
     4 TBLite/Diag 0.40E+00    0.0     0.00000088       -59.7376178359 -8.70E-12
     5 TBLite/Diag 0.40E+00    0.0     0.00000008       -59.7376178359  1.14E-13
     6 TBLite/Diag 0.40E+00    0.0     0.00000008       -59.7376178359 -5.83E-13
     7 TBLite/Diag 0.40E+00    0.0     8.1721E-10       -59.7376178359  4.62E-13

  *** SCF run converged in     7 steps ***


  Core Hamiltonian energy:                                    -60.46218096100333
  Repulsive potential energy:                                   0.80249644845553
  Electrostatic energy:                                         0.00163226813706
  Self-consistent dispersion energy:                            0.00000000000000
  Non-self consistent dispersion energy:                       -0.07956559152586
  Correction for halogen bonding:                               0.00000000000000
  Electronic entropic energy:                                  -0.00000000000000
  Fermi energy:                                                -0.20703670319831

  Total energy:                                               -59.73761783593660
  Total energy (extrapolated to T->0):                        -59.73761783593660

 ENERGY| Total FORCE_EVAL ( QS ) energy [hartree]            -59.737617835936604

 OPT| **************************************************************************
 OPT| Step number                                                            203
 OPT| Optimization method                                                   BFGS
 OPT| Total energy [hartree]                                      -59.7376178359
 OPT| Internal pressure [bar]                                    -319.3850616977
 OPT| Effective energy change [hartree]                            -0.0000089171
 OPT| Predicted energy change [hartree]                            -0.0000049503
 OPT| Scaling factor                                                0.0000000000
 OPT| Step size                                                     0.0022148026
 OPT| Trust radius                                                  0.4724315332
 OPT| Decrease in energy                                                     YES
 OPT| Used time [s]                                                        0.454
 OPT|
 OPT| Maximum step size                                             0.0022148026
 OPT| Convergence limit for maximum step size                       0.0030000000
 OPT| Maximum step size is converged                                         YES
 OPT|
 OPT| RMS step size                                                 0.0003080967
 OPT| Convergence limit for RMS step size                           0.0015000000
 OPT| RMS step size is converged                                             YES
 OPT|
 OPT| Maximum gradient                                              0.0006100230
 OPT| Convergence limit for maximum gradient                        0.0004500000
 OPT| Maximum gradient is converged                                           NO
 OPT|
 OPT| RMS gradient                                                  0.0002108779
 OPT| Convergence limit for RMS gradient                            0.0003000000
 OPT| RMS gradient is converged                                              YES
 OPT|
 OPT| Pressure deviation [bar]                                   -319.3850616977
 OPT| Pressure tolerance [bar]                                    100.0000000000
 OPT| Pressure is converged                                                   NO
 OPT| **************************************************************************
 OPT| Estimated peak process memory after this step [MiB]                    175

 --------------------------
 OPTIMIZATION STEP:    204
 --------------------------

 CELL| Volume [angstrom^3]:                                           400.410580
 CELL| Vector a [angstrom]:       7.291     0.000     0.000   |a| =     7.291012
 CELL| Vector b [angstrom]:       0.000     7.291     0.000   |b| =     7.291012
 CELL| Vector c [angstrom]:      -0.000    -0.000     7.532   |c| =     7.532340
 CELL| Angle (b,c), alpha [degree]:                                    90.000000
 CELL| Angle (a,c), beta  [degree]:                                    90.000000
 CELL| Angle (a,b), gamma [degree]:                                    90.000000
 CELL| Numerically orthorhombic:                                              NO
 CELL| Periodicity                                                           XYZ

 Extrapolation method: ASPC

 Number of electrons:                                                        112
 Number of occupied orbitals:                                                 56
 Number of molecular orbitals:                                               144

 Number of orbital functions:                                                144
 Number of independent orbital functions:                                    144


 SCF WAVEFUNCTION OPTIMIZATION

  Step     Update method      Time    Convergence         Total energy    Change
  ------------------------------------------------------------------------------
     1 TBLite/Diag 0.40E+00    0.0     0.00100471       -59.7376452814 -5.97E+01
     2 TBLite/Diag 0.40E+00    0.0     0.00002779       -59.7376452917 -1.03E-08
     3 TBLite/Diag 0.40E+00    0.0     0.00000818       -59.7376452920 -2.55E-10
     4 TBLite/Diag 0.40E+00    0.0     0.00000215       -59.7376452920 -5.42E-11
     5 TBLite/Diag 0.40E+00    0.0     0.00000036       -59.7376452920 -3.11E-12
     6 TBLite/Diag 0.40E+00    0.0     0.00000020       -59.7376452920 -1.63E-13
     7 TBLite/Diag 0.40E+00    0.0     4.9233E-09       -59.7376452920 -1.71E-13
     8 TBLite/Diag 0.40E+00    0.0     1.8854E-10       -59.7376452920  2.27E-13

  *** SCF run converged in     8 steps ***


  Core Hamiltonian energy:                                    -60.46199246169521
  Repulsive potential energy:                                   0.80224724274323
  Electrostatic energy:                                         0.00163224421238
  Self-consistent dispersion energy:                            0.00000000000000
  Non-self consistent dispersion energy:                       -0.07953231727811
  Correction for halogen bonding:                               0.00000000000000
  Electronic entropic energy:                                  -0.00000000000000
  Fermi energy:                                                -0.20710978444943

  Total energy:                                               -59.73764529201771
  Total energy (extrapolated to T->0):                        -59.73764529201771

 ENERGY| Total FORCE_EVAL ( QS ) energy [hartree]            -59.737645292017710

 OPT| **************************************************************************
 OPT| Step number                                                            204
 OPT| Optimization method                                                   BFGS
 OPT| Total energy [hartree]                                      -59.7376452920
 OPT| Internal pressure [bar]                                    -434.7422294271
 OPT| Effective energy change [hartree]                            -0.0000274561
 OPT| Predicted energy change [hartree]                            -0.0000237506
 OPT| Scaling factor                                                0.0000000000
 OPT| Step size                                                     0.0089397820
 OPT| Trust radius                                                  0.4724315332
 OPT| Decrease in energy                                                     YES
 OPT| Used time [s]                                                        0.460
 OPT|
 OPT| Maximum step size                                             0.0089397820
 OPT| Convergence limit for maximum step size                       0.0030000000
 OPT| Maximum step size is converged                                          NO
 OPT|
 OPT| RMS step size                                                 0.0015450946
 OPT| Convergence limit for RMS step size                           0.0015000000
 OPT| RMS step size is converged                                              NO
 OPT|
 OPT| Maximum gradient                                              0.0005986832
 OPT| Convergence limit for maximum gradient                        0.0004500000
 OPT| Maximum gradient is converged                                           NO
 OPT|
 OPT| RMS gradient                                                  0.0001438357
 OPT| Convergence limit for RMS gradient                            0.0003000000
 OPT| RMS gradient is converged                                              YES
 OPT|
 OPT| Pressure deviation [bar]                                   -434.7422294271
 OPT| Pressure tolerance [bar]                                    100.0000000000
 OPT| Pressure is converged                                                   NO
 OPT| **************************************************************************
 OPT| Estimated peak process memory after this step [MiB]                    175

 --------------------------
 OPTIMIZATION STEP:    205
 --------------------------

 CELL| Volume [angstrom^3]:                                           400.395806
 CELL| Vector a [angstrom]:       7.291     0.000     0.000   |a| =     7.290630
 CELL| Vector b [angstrom]:       0.000     7.291     0.000   |b| =     7.290630
 CELL| Vector c [angstrom]:      -0.000    -0.000     7.533   |c| =     7.532851
 CELL| Angle (b,c), alpha [degree]:                                    90.000000
 CELL| Angle (a,c), beta  [degree]:                                    90.000000
 CELL| Angle (a,b), gamma [degree]:                                    90.000000
 CELL| Numerically orthorhombic:                                              NO
 CELL| Periodicity                                                           XYZ

 Extrapolation method: ASPC

 Number of electrons:                                                        112
 Number of occupied orbitals:                                                 56
 Number of molecular orbitals:                                               144

 Number of orbital functions:                                                144
 Number of independent orbital functions:                                    144


 SCF WAVEFUNCTION OPTIMIZATION

  Step     Update method      Time    Convergence         Total energy    Change
  ------------------------------------------------------------------------------
     1 TBLite/Diag 0.40E+00    0.0     0.00034185       -59.7376496216 -5.97E+01
     2 TBLite/Diag 0.40E+00    0.0     0.00000444       -59.7376496222 -5.89E-10
     3 TBLite/Diag 0.40E+00    0.0     0.00000304       -59.7376496223 -2.89E-11
     4 TBLite/Diag 0.40E+00    0.0     0.00000082       -59.7376496223 -1.29E-11
     5 TBLite/Diag 0.40E+00    0.0     0.00000025       -59.7376496223 -5.47E-13
     6 TBLite/Diag 0.40E+00    0.0     0.00000005       -59.7376496223 -7.82E-14
     7 TBLite/Diag 0.40E+00    0.0     2.7935E-09       -59.7376496223  1.28E-13
     8 TBLite/Diag 0.40E+00    0.0     2.3087E-10       -59.7376496223 -3.34E-13

  *** SCF run converged in     8 steps ***


  Core Hamiltonian energy:                                    -60.46273231430484
  Repulsive potential energy:                                   0.80298415036651
  Electrostatic energy:                                         0.00163289890866
  Self-consistent dispersion energy:                            0.00000000000000
  Non-self consistent dispersion energy:                       -0.07953435723415
  Correction for halogen bonding:                               0.00000000000000
  Electronic entropic energy:                                  -0.00000000000000
  Fermi energy:                                                -0.20708494146356

  Total energy:                                               -59.73764962226383
  Total energy (extrapolated to T->0):                        -59.73764962226383

 ENERGY| Total FORCE_EVAL ( QS ) energy [hartree]            -59.737649622263831

 OPT| **************************************************************************
 OPT| Step number                                                            205
 OPT| Optimization method                                                   BFGS
 OPT| Total energy [hartree]                                      -59.7376496223
 OPT| Internal pressure [bar]                                     -35.5526884334
 OPT| Effective energy change [hartree]                            -0.0000043302
 OPT| Predicted energy change [hartree]                            -0.0000029282
 OPT| Scaling factor                                                0.0000000000
 OPT| Step size                                                     0.0010103575
 OPT| Trust radius                                                  0.4724315332
 OPT| Decrease in energy                                                     YES
 OPT| Used time [s]                                                        0.460
 OPT|
 OPT| Maximum step size                                             0.0010103575
 OPT| Convergence limit for maximum step size                       0.0030000000
 OPT| Maximum step size is converged                                         YES
 OPT|
 OPT| RMS step size                                                 0.0004097560
 OPT| Convergence limit for RMS step size                           0.0015000000
 OPT| RMS step size is converged                                             YES
 OPT|
 OPT| Maximum gradient                                              0.0005440434
 OPT| Convergence limit for maximum gradient                        0.0004500000
 OPT| Maximum gradient is converged                                           NO
 OPT|
 OPT| RMS gradient                                                  0.0001154759
 OPT| Convergence limit for RMS gradient                            0.0003000000
 OPT| RMS gradient is converged                                              YES
 OPT|
 OPT| Pressure deviation [bar]                                    -35.5526884334
 OPT| Pressure tolerance [bar]                                    100.0000000000
 OPT| Pressure is converged                                                  YES
 OPT| **************************************************************************
 OPT| Estimated peak process memory after this step [MiB]                    175

 --------------------------
 OPTIMIZATION STEP:    206
 --------------------------

 CELL| Volume [angstrom^3]:                                           400.382015
 CELL| Vector a [angstrom]:       7.291     0.000     0.000   |a| =     7.290516
 CELL| Vector b [angstrom]:       0.000     7.291     0.000   |b| =     7.290516
 CELL| Vector c [angstrom]:      -0.000    -0.000     7.533   |c| =     7.532827
 CELL| Angle (b,c), alpha [degree]:                                    90.000000
 CELL| Angle (a,c), beta  [degree]:                                    90.000000
 CELL| Angle (a,b), gamma [degree]:                                    90.000000
 CELL| Numerically orthorhombic:                                              NO
 CELL| Periodicity                                                           XYZ

 Extrapolation method: ASPC

 Number of electrons:                                                        112
 Number of occupied orbitals:                                                 56
 Number of molecular orbitals:                                               144

 Number of orbital functions:                                                144
 Number of independent orbital functions:                                    144


 SCF WAVEFUNCTION OPTIMIZATION

  Step     Update method      Time    Convergence         Total energy    Change
  ------------------------------------------------------------------------------
     1 TBLite/Diag 0.40E+00    0.0     0.00038572       -59.7376535226 -5.97E+01
     2 TBLite/Diag 0.40E+00    0.0     0.00000762       -59.7376535240 -1.38E-09
     3 TBLite/Diag 0.40E+00    0.0     0.00000507       -59.7376535240 -7.41E-11
     4 TBLite/Diag 0.40E+00    0.0     0.00000134       -59.7376535241 -2.49E-11
     5 TBLite/Diag 0.40E+00    0.0     0.00000033       -59.7376535241 -7.39E-13
     6 TBLite/Diag 0.40E+00    0.0     0.00000005       -59.7376535241  6.39E-14
     7 TBLite/Diag 0.40E+00    0.0     1.5783E-09       -59.7376535241 -2.91E-13
     8 TBLite/Diag 0.40E+00    0.0     6.3745E-10       -59.7376535241  2.98E-13

  *** SCF run converged in     8 steps ***


  Core Hamiltonian energy:                                    -60.46364702058885
  Repulsive potential energy:                                   0.80389549983635
  Electrostatic energy:                                         0.00163404635725
  Self-consistent dispersion energy:                            0.00000000000000
  Non-self consistent dispersion energy:                       -0.07953604967467
  Correction for halogen bonding:                               0.00000000000000
  Electronic entropic energy:                                  -0.00000000000000
  Fermi energy:                                                -0.20704381410130

  Total energy:                                               -59.73765352406991
  Total energy (extrapolated to T->0):                        -59.73765352406991

 ENERGY| Total FORCE_EVAL ( QS ) energy [hartree]            -59.737653524069913

 OPT| **************************************************************************
 OPT| Step number                                                            206
 OPT| Optimization method                                                   BFGS
 OPT| Total energy [hartree]                                      -59.7376535241
 OPT| Internal pressure [bar]                                     436.9207410440
 OPT| Effective energy change [hartree]                            -0.0000039018
 OPT| Predicted energy change [hartree]                            -0.0000027348
 OPT| Scaling factor                                                0.0000000000
 OPT| Step size                                                     0.0010375455
 OPT| Trust radius                                                  0.4724315332
 OPT| Decrease in energy                                                     YES
 OPT| Used time [s]                                                        0.460
 OPT|
 OPT| Maximum step size                                             0.0010375455
 OPT| Convergence limit for maximum step size                       0.0030000000
 OPT| Maximum step size is converged                                         YES
 OPT|
 OPT| RMS step size                                                 0.0004326248
 OPT| Convergence limit for RMS step size                           0.0015000000
 OPT| RMS step size is converged                                             YES
 OPT|
 OPT| Maximum gradient                                              0.0006067721
 OPT| Convergence limit for maximum gradient                        0.0004500000
 OPT| Maximum gradient is converged                                           NO
 OPT|
 OPT| RMS gradient                                                  0.0001068230
 OPT| Convergence limit for RMS gradient                            0.0003000000
 OPT| RMS gradient is converged                                              YES
 OPT|
 OPT| Pressure deviation [bar]                                    436.9207410440
 OPT| Pressure tolerance [bar]                                    100.0000000000
 OPT| Pressure is converged                                                   NO
 OPT| **************************************************************************
 OPT| Estimated peak process memory after this step [MiB]                    175

 --------------------------
 OPTIMIZATION STEP:    207
 --------------------------

 CELL| Volume [angstrom^3]:                                           400.410613
 CELL| Vector a [angstrom]:       7.291     0.000     0.000   |a| =     7.290908
 CELL| Vector b [angstrom]:       0.000     7.291     0.000   |b| =     7.290908
 CELL| Vector c [angstrom]:      -0.000    -0.000     7.533   |c| =     7.532556
 CELL| Angle (b,c), alpha [degree]:                                    90.000000
 CELL| Angle (a,c), beta  [degree]:                                    90.000000
 CELL| Angle (a,b), gamma [degree]:                                    90.000000
 CELL| Numerically orthorhombic:                                              NO
 CELL| Periodicity                                                           XYZ

 Extrapolation method: ASPC

 Number of electrons:                                                        112
 Number of occupied orbitals:                                                 56
 Number of molecular orbitals:                                               144

 Number of orbital functions:                                                144
 Number of independent orbital functions:                                    144


 SCF WAVEFUNCTION OPTIMIZATION

  Step     Update method      Time    Convergence         Total energy    Change
  ------------------------------------------------------------------------------
     1 TBLite/Diag 0.40E+00    0.0     0.00039925       -59.7376573379 -5.97E+01
     2 TBLite/Diag 0.40E+00    0.0     0.00000576       -59.7376573386 -7.41E-10
     3 TBLite/Diag 0.40E+00    0.0     0.00000352       -59.7376573387 -4.36E-11
     4 TBLite/Diag 0.40E+00    0.0     0.00000097       -59.7376573387 -1.19E-11
     5 TBLite/Diag 0.40E+00    0.0     0.00000023       -59.7376573387 -3.13E-13
     6 TBLite/Diag 0.40E+00    0.0     0.00000005       -59.7376573387 -1.42E-14
     7 TBLite/Diag 0.40E+00    0.0     8.3634E-10       -59.7376573387 -3.55E-13

  *** SCF run converged in     7 steps ***


  Core Hamiltonian energy:                                    -60.46421350321305
  Repulsive potential energy:                                   0.80445021302085
  Electrostatic energy:                                         0.00163531588739
  Self-consistent dispersion energy:                            0.00000000000000
  Non-self consistent dispersion energy:                       -0.07952936438534
  Correction for halogen bonding:                               0.00000000000000
  Electronic entropic energy:                                  -0.00000000000000
  Fermi energy:                                                -0.20701650386171

  Total energy:                                               -59.73765733869016
  Total energy (extrapolated to T->0):                        -59.73765733869016

 ENERGY| Total FORCE_EVAL ( QS ) energy [hartree]            -59.737657338690155

 OPT| **************************************************************************
 OPT| Step number                                                            207
 OPT| Optimization method                                                   BFGS
 OPT| Total energy [hartree]                                      -59.7376573387
 OPT| Internal pressure [bar]                                     704.7887953564
 OPT| Effective energy change [hartree]                            -0.0000038146
 OPT| Predicted energy change [hartree]                            -0.0000024321
 OPT| Scaling factor                                                0.0000000000
 OPT| Step size                                                     0.0009817504
 OPT| Trust radius                                                  0.4724315332
 OPT| Decrease in energy                                                     YES
 OPT| Used time [s]                                                        0.455
 OPT|
 OPT| Maximum step size                                             0.0009817504
 OPT| Convergence limit for maximum step size                       0.0030000000
 OPT| Maximum step size is converged                                         YES
 OPT|
 OPT| RMS step size                                                 0.0004640458
 OPT| Convergence limit for RMS step size                           0.0015000000
 OPT| RMS step size is converged                                             YES
 OPT|
 OPT| Maximum gradient                                              0.0007763375
 OPT| Convergence limit for maximum gradient                        0.0004500000
 OPT| Maximum gradient is converged                                           NO
 OPT|
 OPT| RMS gradient                                                  0.0001198003
 OPT| Convergence limit for RMS gradient                            0.0003000000
 OPT| RMS gradient is converged                                              YES
 OPT|
 OPT| Pressure deviation [bar]                                    704.7887953564
 OPT| Pressure tolerance [bar]                                    100.0000000000
 OPT| Pressure is converged                                                   NO
 OPT| **************************************************************************
 OPT| Estimated peak process memory after this step [MiB]                    175

 --------------------------
 OPTIMIZATION STEP:    208
 --------------------------

 CELL| Volume [angstrom^3]:                                           400.525819
 CELL| Vector a [angstrom]:       7.292     0.000     0.000   |a| =     7.292233
 CELL| Vector b [angstrom]:       0.000     7.292     0.000   |b| =     7.292233
 CELL| Vector c [angstrom]:      -0.000    -0.000     7.532   |c| =     7.531984
 CELL| Angle (b,c), alpha [degree]:                                    90.000000
 CELL| Angle (a,c), beta  [degree]:                                    90.000000
 CELL| Angle (a,b), gamma [degree]:                                    90.000000
 CELL| Numerically orthorhombic:                                              NO
 CELL| Periodicity                                                           XYZ

 Extrapolation method: ASPC

 Number of electrons:                                                        112
 Number of occupied orbitals:                                                 56
 Number of molecular orbitals:                                               144

 Number of orbital functions:                                                144
 Number of independent orbital functions:                                    144


 SCF WAVEFUNCTION OPTIMIZATION

  Step     Update method      Time    Convergence         Total energy    Change
  ------------------------------------------------------------------------------
     1 TBLite/Diag 0.40E+00    0.0     0.00067125       -59.7376631556 -5.97E+01
     2 TBLite/Diag 0.40E+00    0.0     0.00000414       -59.7376631561 -5.01E-10
     3 TBLite/Diag 0.40E+00    0.0     0.00000223       -59.7376631561 -3.13E-11
     4 TBLite/Diag 0.40E+00    0.0     0.00000059       -59.7376631561 -9.09E-12
     5 TBLite/Diag 0.40E+00    0.0     0.00000024       -59.7376631561 -5.90E-13
     6 TBLite/Diag 0.40E+00    0.0     0.00000003       -59.7376631561 -1.78E-13
     7 TBLite/Diag 0.40E+00    0.0     2.8436E-09       -59.7376631561  1.49E-13
     8 TBLite/Diag 0.40E+00    0.0     9.3949E-10       -59.7376631561  1.71E-13

  *** SCF run converged in     8 steps ***


  Core Hamiltonian energy:                                    -60.46449714254416
  Repulsive potential energy:                                   0.80470158740807
  Electrostatic energy:                                         0.00163730605711
  Self-consistent dispersion energy:                            0.00000000000000
  Non-self consistent dispersion energy:                       -0.07950490705193
  Correction for halogen bonding:                               0.00000000000000
  Electronic entropic energy:                                  -0.00000000000000
  Fermi energy:                                                -0.20700346971270

  Total energy:                                               -59.73766315613092
  Total energy (extrapolated to T->0):                        -59.73766315613092

 ENERGY| Total FORCE_EVAL ( QS ) energy [hartree]            -59.737663156130921

 OPT| **************************************************************************
 OPT| Step number                                                            208
 OPT| Optimization method                                                   BFGS
 OPT| Total energy [hartree]                                      -59.7376631561
 OPT| Internal pressure [bar]                                     787.3263136472
 OPT| Effective energy change [hartree]                            -0.0000058174
 OPT| Predicted energy change [hartree]                            -0.0000040811
 OPT| Scaling factor                                                0.0000000000
 OPT| Step size                                                     0.0025048949
 OPT| Trust radius                                                  0.4724315332
 OPT| Decrease in energy                                                     YES
 OPT| Used time [s]                                                        0.460
 OPT|
 OPT| Maximum step size                                             0.0025048949
 OPT| Convergence limit for maximum step size                       0.0030000000
 OPT| Maximum step size is converged                                         YES
 OPT|
 OPT| RMS step size                                                 0.0008337400
 OPT| Convergence limit for RMS step size                           0.0015000000
 OPT| RMS step size is converged                                             YES
 OPT|
 OPT| Maximum gradient                                              0.0007564737
 OPT| Convergence limit for maximum gradient                        0.0004500000
 OPT| Maximum gradient is converged                                           NO
 OPT|
 OPT| RMS gradient                                                  0.0001316145
 OPT| Convergence limit for RMS gradient                            0.0003000000
 OPT| RMS gradient is converged                                              YES
 OPT|
 OPT| Pressure deviation [bar]                                    787.3263136472
 OPT| Pressure tolerance [bar]                                    100.0000000000
 OPT| Pressure is converged                                                   NO
 OPT| **************************************************************************
 OPT| Estimated peak process memory after this step [MiB]                    175

 --------------------------
 OPTIMIZATION STEP:    209
 --------------------------

 CELL| Volume [angstrom^3]:                                           400.684003
 CELL| Vector a [angstrom]:       7.294     0.000     0.000   |a| =     7.293931
 CELL| Vector b [angstrom]:       0.000     7.294     0.000   |b| =     7.293931
 CELL| Vector c [angstrom]:      -0.000    -0.000     7.531   |c| =     7.531452
 CELL| Angle (b,c), alpha [degree]:                                    90.000000
 CELL| Angle (a,c), beta  [degree]:                                    90.000000
 CELL| Angle (a,b), gamma [degree]:                                    90.000000
 CELL| Numerically orthorhombic:                                              NO
 CELL| Periodicity                                                           XYZ

 Extrapolation method: ASPC

 Number of electrons:                                                        112
 Number of occupied orbitals:                                                 56
 Number of molecular orbitals:                                               144

 Number of orbital functions:                                                144
 Number of independent orbital functions:                                    144


 SCF WAVEFUNCTION OPTIMIZATION

  Step     Update method      Time    Convergence         Total energy    Change
  ------------------------------------------------------------------------------
     1 TBLite/Diag 0.40E+00    0.0     0.00055792       -59.7376675730 -5.97E+01
     2 TBLite/Diag 0.40E+00    0.0     0.00000700       -59.7376675739 -9.08E-10
     3 TBLite/Diag 0.40E+00    0.0     0.00000248       -59.7376675739 -1.70E-11
     4 TBLite/Diag 0.40E+00    0.0     0.00000078       -59.7376675740 -1.05E-11
     5 TBLite/Diag 0.40E+00    0.0     0.00000008       -59.7376675740 -1.71E-13
     6 TBLite/Diag 0.40E+00    0.0     0.00000003       -59.7376675740  7.11E-15
     7 TBLite/Diag 0.40E+00    0.0     1.1194E-09       -59.7376675740 -4.26E-14
     8 TBLite/Diag 0.40E+00    0.0     4.9979E-10       -59.7376675740  4.97E-14

  *** SCF run converged in     8 steps ***


  Core Hamiltonian energy:                                    -60.46409201329042
  Repulsive potential energy:                                   0.80425795241463
  Electrostatic energy:                                         0.00163870519876
  Self-consistent dispersion energy:                            0.00000000000000
  Non-self consistent dispersion energy:                       -0.07947221827732
  Correction for halogen bonding:                               0.00000000000000
  Electronic entropic energy:                                  -0.00000000000000
  Fermi energy:                                                -0.20702521839743

  Total energy:                                               -59.73766757395434
  Total energy (extrapolated to T->0):                        -59.73766757395434

 ENERGY| Total FORCE_EVAL ( QS ) energy [hartree]            -59.737667573954340

 OPT| **************************************************************************
 OPT| Step number                                                            209
 OPT| Optimization method                                                   BFGS
 OPT| Total energy [hartree]                                      -59.7376675740
 OPT| Internal pressure [bar]                                     512.2013184252
 OPT| Effective energy change [hartree]                            -0.0000044178
 OPT| Predicted energy change [hartree]                            -0.0000032165
 OPT| Scaling factor                                                0.0000000000
 OPT| Step size                                                     0.0032078326
 OPT| Trust radius                                                  0.4724315332
 OPT| Decrease in energy                                                     YES
 OPT| Used time [s]                                                        0.460
 OPT|
 OPT| Maximum step size                                             0.0032078326
 OPT| Convergence limit for maximum step size                       0.0030000000
 OPT| Maximum step size is converged                                          NO
 OPT|
 OPT| RMS step size                                                 0.0007619646
 OPT| Convergence limit for RMS step size                           0.0015000000
 OPT| RMS step size is converged                                             YES
 OPT|
 OPT| Maximum gradient                                              0.0004592690
 OPT| Convergence limit for maximum gradient                        0.0004500000
 OPT| Maximum gradient is converged                                           NO
 OPT|
 OPT| RMS gradient                                                  0.0001086234
 OPT| Convergence limit for RMS gradient                            0.0003000000
 OPT| RMS gradient is converged                                              YES
 OPT|
 OPT| Pressure deviation [bar]                                    512.2013184252
 OPT| Pressure tolerance [bar]                                    100.0000000000
 OPT| Pressure is converged                                                   NO
 OPT| **************************************************************************
 OPT| Estimated peak process memory after this step [MiB]                    175

 --------------------------
 OPTIMIZATION STEP:    210
 --------------------------

 CELL| Volume [angstrom^3]:                                           400.812276
 CELL| Vector a [angstrom]:       7.295     0.000     0.000   |a| =     7.295251
 CELL| Vector b [angstrom]:       0.000     7.295     0.000   |b| =     7.295251
 CELL| Vector c [angstrom]:      -0.000    -0.000     7.531   |c| =     7.531138
 CELL| Angle (b,c), alpha [degree]:                                    90.000000
 CELL| Angle (a,c), beta  [degree]:                                    90.000000
 CELL| Angle (a,b), gamma [degree]:                                    90.000000
 CELL| Numerically orthorhombic:                                              NO
 CELL| Periodicity                                                           XYZ

 Extrapolation method: ASPC

 Number of electrons:                                                        112
 Number of occupied orbitals:                                                 56
 Number of molecular orbitals:                                               144

 Number of orbital functions:                                                144
 Number of independent orbital functions:                                    144


 SCF WAVEFUNCTION OPTIMIZATION

  Step     Update method      Time    Convergence         Total energy    Change
  ------------------------------------------------------------------------------
     1 TBLite/Diag 0.40E+00    0.0     0.00036526       -59.7376700625 -5.97E+01
     2 TBLite/Diag 0.40E+00    0.0     0.00000935       -59.7376700645 -2.01E-09
     3 TBLite/Diag 0.40E+00    0.0     0.00000357       -59.7376700646 -7.58E-11
     4 TBLite/Diag 0.40E+00    0.0     0.00000128       -59.7376700646 -1.75E-11
     5 TBLite/Diag 0.40E+00    0.0     0.00000017       -59.7376700646 -9.09E-13
     6 TBLite/Diag 0.40E+00    0.0     0.00000008       -59.7376700646 -4.97E-14
     7 TBLite/Diag 0.40E+00    0.0     4.1933E-09       -59.7376700646  2.84E-14
     8 TBLite/Diag 0.40E+00    0.0     4.5386E-10       -59.7376700646  1.85E-13

  *** SCF run converged in     8 steps ***


  Core Hamiltonian energy:                                    -60.46341627136762
  Repulsive potential energy:                                   0.80355307559362
  Electrostatic energy:                                         0.00163915744114
  Self-consistent dispersion energy:                            0.00000000000000
  Non-self consistent dispersion energy:                       -0.07944602624272
  Correction for halogen bonding:                               0.00000000000000
  Electronic entropic energy:                                  -0.00000000000000
  Fermi energy:                                                -0.20705998899270

  Total energy:                                               -59.73767006457557
  Total energy (extrapolated to T->0):                        -59.73767006457557

 ENERGY| Total FORCE_EVAL ( QS ) energy [hartree]            -59.737670064575575

 OPT| **************************************************************************
 OPT| Step number                                                            210
 OPT| Optimization method                                                   BFGS
 OPT| Total energy [hartree]                                      -59.7376700646
 OPT| Internal pressure [bar]                                     125.6925554237
 OPT| Effective energy change [hartree]                            -0.0000024906
 OPT| Predicted energy change [hartree]                            -0.0000018879
 OPT| Scaling factor                                                0.0000000000
 OPT| Step size                                                     0.0024938800
 OPT| Trust radius                                                  0.4724315332
 OPT| Decrease in energy                                                     YES
 OPT| Used time [s]                                                        0.461
 OPT|
 OPT| Maximum step size                                             0.0024938800
 OPT| Convergence limit for maximum step size                       0.0030000000
 OPT| Maximum step size is converged                                         YES
 OPT|
 OPT| RMS step size                                                 0.0004723843
 OPT| Convergence limit for RMS step size                           0.0015000000
 OPT| RMS step size is converged                                             YES
 OPT|
 OPT| Maximum gradient                                              0.0001716094
 OPT| Convergence limit for maximum gradient                        0.0004500000
 OPT| Maximum gradient is converged                                          YES
 OPT|
 OPT| RMS gradient                                                  0.0000732931
 OPT| Convergence limit for RMS gradient                            0.0003000000
 OPT| RMS gradient is converged                                              YES
 OPT|
 OPT| Pressure deviation [bar]                                    125.6925554237
 OPT| Pressure tolerance [bar]                                    100.0000000000
 OPT| Pressure is converged                                                   NO
 OPT| **************************************************************************
 OPT| Estimated peak process memory after this step [MiB]                    175

 --------------------------
 OPTIMIZATION STEP:    211
 --------------------------

 CELL| Volume [angstrom^3]:                                           400.873894
 CELL| Vector a [angstrom]:       7.296     0.000     0.000   |a| =     7.295866
 CELL| Vector b [angstrom]:       0.000     7.296     0.000   |b| =     7.295866
 CELL| Vector c [angstrom]:      -0.000    -0.000     7.531   |c| =     7.531025
 CELL| Angle (b,c), alpha [degree]:                                    90.000000
 CELL| Angle (a,c), beta  [degree]:                                    90.000000
 CELL| Angle (a,b), gamma [degree]:                                    90.000000
 CELL| Numerically orthorhombic:                                              NO
 CELL| Periodicity                                                           XYZ

 Extrapolation method: ASPC

 Number of electrons:                                                        112
 Number of occupied orbitals:                                                 56
 Number of molecular orbitals:                                               144

 Number of orbital functions:                                                144
 Number of independent orbital functions:                                    144


 SCF WAVEFUNCTION OPTIMIZATION

  Step     Update method      Time    Convergence         Total energy    Change
  ------------------------------------------------------------------------------
     1 TBLite/Diag 0.40E+00    0.0     0.00020734       -59.7376712781 -5.97E+01
     2 TBLite/Diag 0.40E+00    0.0     0.00000702       -59.7376712791 -1.09E-09
     3 TBLite/Diag 0.40E+00    0.0     0.00000275       -59.7376712792 -5.51E-11
     4 TBLite/Diag 0.40E+00    0.0     0.00000092       -59.7376712792 -9.90E-12
     5 TBLite/Diag 0.40E+00    0.0     0.00000024       -59.7376712792 -2.34E-13
     6 TBLite/Diag 0.40E+00    0.0     0.00000005       -59.7376712792  1.63E-13
     7 TBLite/Diag 0.40E+00    0.0     3.4408E-09       -59.7376712792 -1.07E-13
     8 TBLite/Diag 0.40E+00    0.0     1.0286E-09       -59.7376712792  1.71E-13
     9 TBLite/Diag 0.40E+00    0.0     2.2747E-11       -59.7376712792 -2.49E-13

  *** SCF run converged in     9 steps ***


  Core Hamiltonian energy:                                    -60.46301074261653
  Repulsive potential energy:                                   0.80313376357594
  Electrostatic energy:                                         0.00163906507070
  Self-consistent dispersion energy:                            0.00000000000000
  Non-self consistent dispersion energy:                       -0.07943336523945
  Correction for halogen bonding:                               0.00000000000000
  Electronic entropic energy:                                  -0.00000000000000
  Fermi energy:                                                -0.20708003971894

  Total energy:                                               -59.73767127920933
  Total energy (extrapolated to T->0):                        -59.73767127920933

 ENERGY| Total FORCE_EVAL ( QS ) energy [hartree]            -59.737671279209330

 OPT| **************************************************************************
 OPT| Step number                                                            211
 OPT| Optimization method                                                   BFGS
 OPT| Total energy [hartree]                                      -59.7376712792
 OPT| Internal pressure [bar]                                     -89.4580913669
 OPT| Effective energy change [hartree]                            -0.0000012146
 OPT| Predicted energy change [hartree]                            -0.0000008749
 OPT| Scaling factor                                                0.0000000000
 OPT| Step size                                                     0.0011623731
 OPT| Trust radius                                                  0.4724315332
 OPT| Decrease in energy                                                     YES
 OPT| Used time [s]                                                        0.466
 OPT|
 OPT| Maximum step size                                             0.0011623731
 OPT| Convergence limit for maximum step size                       0.0030000000
 OPT| Maximum step size is converged                                         YES
 OPT|
 OPT| RMS step size                                                 0.0002235272
 OPT| Convergence limit for RMS step size                           0.0015000000
 OPT| RMS step size is converged                                             YES
 OPT|
 OPT| Maximum gradient                                              0.0001145272
 OPT| Convergence limit for maximum gradient                        0.0004500000
 OPT| Maximum gradient is converged                                          YES
 OPT|
 OPT| RMS gradient                                                  0.0000603322
 OPT| Convergence limit for RMS gradient                            0.0003000000
 OPT| RMS gradient is converged                                              YES
 OPT|
 OPT| Pressure deviation [bar]                                    -89.4580913669
 OPT| Pressure tolerance [bar]                                    100.0000000000
 OPT| Pressure is converged                                                  YES
 OPT| **************************************************************************
 OPT| Estimated peak process memory after this step [MiB]                    175

 *******************************************************************************
 ***                    GEOMETRY OPTIMIZATION COMPLETED                      ***
 *******************************************************************************

 write_final_structure: Optimization converged, writing XYZ file gladly:
  adamantane_GFN1_gamma_cell_opt-FINAL-1_211.xyz

 write_final_structure: Optimization converged, writing CIF file gladly:
  adamantane_GFN1_gamma_cell_opt-FINAL-1_211.cif

 write_final_structure: Done!

                    Reevaluating energy at the minimum

 CELL| Volume [angstrom^3]:                                           400.873894
 CELL| Vector a [angstrom]:       7.296     0.000     0.000   |a| =     7.295866
 CELL| Vector b [angstrom]:       0.000     7.296     0.000   |b| =     7.295866
 CELL| Vector c [angstrom]:      -0.000    -0.000     7.531   |c| =     7.531025
 CELL| Angle (b,c), alpha [degree]:                                    90.000000
 CELL| Angle (a,c), beta  [degree]:                                    90.000000
 CELL| Angle (a,b), gamma [degree]:                                    90.000000
 CELL| Numerically orthorhombic:                                              NO
 CELL| Periodicity                                                           XYZ

 Extrapolation method: ASPC

 Number of electrons:                                                        112
 Number of occupied orbitals:                                                 56
 Number of molecular orbitals:                                               144

 Number of orbital functions:                                                144
 Number of independent orbital functions:                                    144


 SCF WAVEFUNCTION OPTIMIZATION

  Step     Update method      Time    Convergence         Total energy    Change
  ------------------------------------------------------------------------------
     1 TBLite/Diag 0.40E+00    0.0     7.9226E-13       -59.7376712792 -5.97E+01

  *** SCF run converged in     1 steps ***


  Core Hamiltonian energy:                                    -60.46301074261645
  Repulsive potential energy:                                   0.80313376357594
  Electrostatic energy:                                         0.00163906507068
  Self-consistent dispersion energy:                            0.00000000000000
  Non-self consistent dispersion energy:                       -0.07943336523945
  Correction for halogen bonding:                               0.00000000000000
  Electronic entropic energy:                                  -0.00000000000000
  Fermi energy:                                                -0.20708003971898

  Total energy:                                               -59.73767127920927
  Total energy (extrapolated to T->0):                        -59.73767127920927

 ENERGY| Total FORCE_EVAL ( QS ) energy [hartree]            -59.737671279209273

 -------------------------------------------------------------------------------
 -                                                                             -
 -                                DBCSR STATISTICS                             -
 -                                                                             -
 -------------------------------------------------------------------------------
 COUNTER                                    TOTAL       BLAS       SMM       ACC
 flops     2 x    16 x     2              6553600       0.0%    100.0%      0.0%     
 flops     4 x    16 x     2              8192000       0.0%    100.0%      0.0%     
 flops     2 x    16 x     4              8192000       0.0%    100.0%      0.0%     
 flops     4 x    16 x     4             10240000       0.0%    100.0%      0.0%     
 flops     2 x    32 x     2             52428800       0.0%    100.0%      0.0%     
 flops     2 x    32 x     4             65536000       0.0%    100.0%      0.0%     
 flops     4 x    32 x     2             65536000       0.0%    100.0%      0.0%     
 flops     2 x     2 x   144             76640256       0.0%    100.0%      0.0%     
 flops     4 x    32 x     4             81920000       0.0%    100.0%      0.0%     
 flops     4 x     2 x   144             92897280       0.0%    100.0%      0.0%     
 flops     2 x     4 x   144             92897280       0.0%    100.0%      0.0%     
 flops     4 x     4 x   144            121927680       0.0%    100.0%      0.0%     
 flops inhomo. stacks                           0       0.0%      0.0%      0.0%
 flops total                       682.960896E+06       0.0%    100.0%      0.0%
 flops max/rank                    682.960896E+06       0.0%    100.0%      0.0%
 matmuls inhomo. stacks                         0       0.0%      0.0%      0.0%
 matmuls total                             849628       0.0%    100.0%      0.0%
 number of processed stacks                  1404       0.0%    100.0%      0.0%
 average stack size                                     0.0     605.1       0.0
 marketing flops                   591.224832E+06
 -------------------------------------------------------------------------------
 # multiplications                            176
 max memory usage/rank              13.679350E+09
 # max total images/rank                        1
 # max 3D layers                                1
 # MPI messages exchanged                       0
 -------------------------------------------------------------------------------
 -                                                                             -
 -                      DBCSR MESSAGE PASSING PERFORMANCE                      -
 -                                                                             -
 -------------------------------------------------------------------------------
 ROUTINE             CALLS      AVE VOLUME [Bytes]
 MP_Bcast               13                     12.
 MP_Allreduce          823                      9.
 MP_Alltoall          5514                 112999.
 MP_ISend              704                  12143.
 MP_IRecv              704                  12143.
 -------------------------------------------------------------------------------

 -------------------------------------------------------------------------------
 -                                                                             -
 -                          OFFLOAD MEMPOOL STATISTICS                         -
 -                                                                             -
 -------------------------------------------------------------------------------
 Memory consumption                Number of allocations  Used [MiB]  Size [MiB]
 Device                                                1           0           0
 Host                                                  1           0           0
 -------------------------------------------------------------------------------

 MEMORY| Estimated peak process memory [MiB]                                 175

 -------------------------------------------------------------------------------
 -                                                                             -
 -                         MESSAGE PASSING PERFORMANCE                         -
 -                                                                             -
 -------------------------------------------------------------------------------

 ROUTINE             CALLS      AVE VOLUME [Bytes]
 MP_Group               12
 MP_Bcast              250                    585.
 MP_Allreduce         1969                    390.
 MP_Sync               137
 MP_comm_split         125
 -------------------------------------------------------------------------------


 -------------------------------------------------------------------------------
 -                                                                             -
 -                           R E F E R E N C E S                               -
 -                                                                             -
 -------------------------------------------------------------------------------
 
 CP2K version 2026.1 (Development Version), the CP2K developers group (2026).
 CP2K is freely available from https://www.cp2k.org/ .
 
 M. Iannuzzi, J. Wilhelm, F. Stein, A. Bussy, H. Elgabarty, D. Golze, A. Hehn, 
 M. Graml, S. Marek, B. Sertcan Gökmen, C. Schran, H. Forbert, R. Z. 
 Khaliullin, A. Kozhevnikov, M. Taillefumier, R. Meli, V. V. Rybkin, M. Brehm, 
 R. Schade, O. Schütt, J. V. Pototschnig, H. Mirhosseini, A. Knüpfer, D. Marx, 
 M. Krack, J. Hutter, T. D. Kühne.
 J. Phys. Chem. B 130, 1237-1310 (2026).
 The CP2K Program Package Made Simple.
 https://doi.org/10.1021/acs.jpcb.5c05851

 A. Katbashev, M. Stahn, T. Rose, V. Alizadeh, M. Friede, C. Plett, P. 
 Steinbach, S. Ehlert.
 J. Phys. Chem. A 129, 2667-2682 (2025).
 Overview on Building Blocks and Applications of Efficient and Robust Extended 
 Tight Binding.
 https://doi.org/10.1021/acs.jpca.4c08263

 T. D. Kühne, M. Iannuzzi, M. Del Ben, V. V. Rybkin, P. Seewald, F. Stein, T. 
 Laino, R. Z. Khaliullin, O. Schütt, F. Schiffmann, D. Golze, J. Wilhelm, S. 
 Chulkov, M. H. Bani-Hashemian, V. Weber, U. Borstnik, M. Taillefumier, A. S. 
 Jakobovits, A. Lazzaro, H. Pabst, T. Müller, R. Schade, M. Guidon, S. 
 Andermatt, N. Holmberg, G. K. Schenter, A. Hehn, A. Bussy, F. Belleflamme, G. 
 Tabacchi, A. Glöß, M. Lass, I. Bethune, C. J. Mundy, C. Plessl, M. Watkins, 
 J. VandeVondele, M. Krack, J. Hutter.
 J. Chem. Phys. 152, 194103 (2020).
 CP2K: An electronic structure and molecular dynamics software package - 
 Quickstep: Efficient and accurate electronic structure calculations.
 https://doi.org/10.1063/5.0007045

 P. Pracht, E. Caldeweyher, S. Ehlert, S. Grimme.
 ChemRxiv, (2019).
 A Robust Non-Self-Consistent Tight-Binding Quantum Chemistry Method for large 
 Molecules.
 https://doi.org/10.26434/chemrxiv.8326202.v1

 S. Grimme, C. Bannwarth, P. Shushkov.
 J. Chem. Theory Comput. 13, 1989 (2017).
 A Robust and Accurate Tight-Binding Quantum Chemical Method for Structures, 
 Vibrational Frequencies, and Noncovalent Interactions of Large Molecular 
 Systems Parametrized for All spd-Block Elements (Z = 1-86).
 https://doi.org/10.1021/acs.jctc.7b00118

 O. Schuett, P. Messmer, J. Hutter, J. VandeVondele.
 Electronic Structure Calculations on Graphics Processing Units, 173-190 (2016).
 GPU-Accelerated Sparse Matrix-Matrix Multiplication for Linear Scaling Density 
 Functional Theory.
 https://doi.org/10.1002/9781118670712.ch8

 A. Heinecke, G. Henry, M. Hutchinson, H. Pabst.
 Proceedings of Intl. Supercomputing Conference, 981-991 (2016).
 LIBXSMM: Accelerating Small Matrix Multiplications by Runtime Code Generation.
 https://doi.org/10.1109/SC.2016.83

 U. Borstnik, J. VandeVondele, V. Weber, J. Hutter.
 Parallel Comput. 40, 47-58 (2014).
 Sparse matrix multiplication: The distributed block-compressed sparse row 
 library.
 https://doi.org/10.1016/j.parco.2014.03.012

 T. D. Kühne, M. Krack, F. R. Mohamed, M. Parrinello.
 Phys. Rev. Lett. 98, 066401 (2007).
 Efficient and accurate Car-Parrinello-like approach to Born-Oppenheimer 
 molecular dynamics.
 https://doi.org/10.1103/PhysRevLett.98.066401

 M. Frigo, S. G. Johnson.
 Proc. IEEE 93, 216-231 (2005).
 The design and implementation of FFTW3.
 https://doi.org/10.1109/JPROC.2004.840301

 J. Kolafa.
 J. Comput. Chem. 25, 335-342 (2004).
 Time-reversible always stable predictor-corrector method for molecular dynamics 
 of polarizable molecules.
 https://doi.org/10.1002/jcc.10385

 N. D. Mermin.
 Phys. Rev. 137, A1441-A1443 (1965).
 Thermal Properties of the Inhomogeneous Electron Gas.
 https://doi.org/10.1103/PhysRev.137.A1441


 -------------------------------------------------------------------------------
 -                                                                             -
 -                                T I M I N G                                  -
 -                                                                             -
 -------------------------------------------------------------------------------
 SUBROUTINE                       CALLS  ASD         SELF TIME        TOTAL TIME
                                MAXIMUM       AVERAGE  MAXIMUM  AVERAGE  MAXIMUM
 CP2K                                 1  1.0    0.002    0.002    5.627    5.627
 cp_cell_opt                          1  2.0    0.000    0.000    5.621    5.621
 geoopt_bfgs                          1  3.0    0.001    0.001    5.621    5.621
 cp_eval_at                          13  4.0    0.001    0.001    5.595    5.595
 qs_forces                           12  5.0    0.001    0.001    5.491    5.491
 build_tblite_matrices               25  7.0    2.502    2.502    2.531    2.531
 rebuild_ks_matrix                  114  9.7    0.000    0.000    2.447    2.447
 build_tblite_ks_matrix             114 10.7    2.446    2.446    2.447    2.447
 qs_ks_update_qs_env_forces          12  6.0    0.000    0.000    2.412    2.412
 qs_energies                         13  5.9    0.000    0.000    1.749    1.749
 qs_energies_init_hamiltonians       13  6.9    0.000    0.000    1.135    1.135
 scf_env_do_scf                      13  6.9    0.000    0.000    0.474    0.474
 scf_env_do_scf_inner_loop          102  8.0    0.011    0.011    0.473    0.473
 qs_scf_new_mos                     102  9.0    0.000    0.000    0.399    0.399
 eigensolver                        102 10.0    0.001    0.001    0.160    0.160
 cp_fm_syevd                        125 10.6    0.000    0.000    0.156    0.156
 cp_fm_syevd_base                   125 11.6    0.149    0.149    0.149    0.149
 cp_dbcsr_plus_fm_fm_t              126 10.8    0.001    0.001    0.136    0.136
 dbcsr_multiply_generic             176 12.0    0.004    0.004    0.131    0.131
 calculate_dm_sparse                114 10.0    0.000    0.000    0.124    0.124
 dbcsr_complete_redistribute        556 12.2    0.100    0.100    0.120    0.120
 init_scf_run                        13  6.9    0.000    0.000    0.116    0.116
 -------------------------------------------------------------------------------

 The number of warnings for this run is : 0
 
 -------------------------------------------------------------------------------
  **** **** ******  **  PROGRAM ENDED AT                 2026-05-23 23:04:15.442
 ***** ** ***  *** **   PROGRAM RAN ON                                spark-c86c
 **    ****   ******    PROGRAM RAN BY                                  kuehne88
 ***** **    ** ** **   PROGRAM PROCESS ID                               2275653
  **** **  *******  **  PROGRAM STOPPED IN /home/kuehne88/periodic-gfn2-benchmar
                                           ks/X23b/runs/cellopt_gamma/GFN1/adama
                                           ntane_GFN1_gamma_cellopt
