 DBCSR| CPU Multiplication driver                                           XSMM (U)
 DBCSR| Multrec recursion limit                                              512 (U)
 DBCSR| Multiplication stack size                                           1000 (D)
 DBCSR| Maximum elements for images                                    UNLIMITED (U)
 DBCSR| Multiplicative factor virtual images                                   1 (U)
 DBCSR| Use multiplication densification                                       T (D)
 DBCSR| Multiplication size stacks                                             3 (U)
 DBCSR| Use memory pool for CPU allocation                                     F (U)
 DBCSR| Number of 3D layers                                               SINGLE (U)
 DBCSR| Use MPI memory allocation                                              F (U)
 DBCSR| Use RMA algorithm                                                      F (U)
 DBCSR| Use Communication thread                                               T (U)
 DBCSR| Communication thread load                                             87 (D)
 DBCSR| MPI: My process id                                                     0
 DBCSR| MPI: Number of processes                                               1
 DBCSR| OMP: Current number of threads                                         1
 DBCSR| OMP: Max number of threads                                             1
 DBCSR| Split modifier for TAS multiplication algorithm                  1.0E+00 (U)


  **** **** ******  **  PROGRAM STARTED AT               2026-05-23 22:46:19.562
 ***** ** ***  *** **   PROGRAM STARTED ON                            spark-c86c
 **    ****   ******    PROGRAM STARTED BY                              kuehne88
 ***** **    ** ** **   PROGRAM PROCESS ID                               2225840
  **** **  *******  **  PROGRAM STARTED IN /home/kuehne88/periodic-gfn2-benchmar
                                           ks/X23b/runs/molecule_geoopt/GFN1/tri
                                           oxane_GFN1_mol_geoopt

 CP2K| version string:                 CP2K version 2026.1 (Development Version)
 CP2K| source code revision number:                                   0622d442e4
 CP2K| cp2kflags: omp fftw3 libxc parallel scalapack mpi_f08 xsmm spglib libdftd
 CP2K|            4 dftd4_v3 mctc-lib tblite
 CP2K| is freely available from                            https://www.cp2k.org/
 CP2K| Program compiled at                                   2026-05-23 22:05:08
 CP2K| Program compiled on                                            spark-c86c
 CP2K| Program compiled for                                              aarch64
 CP2K| Data directory path    /home/kuehne88/cp2k-master-tblite-20260523/install
 CP2K| Input file name                              trioxane_GFN1_mol_geoopt.inp

 GLOBAL| Force Environment number                                              1
 GLOBAL| Basis set file name                                           BASIS_SET
 GLOBAL| Potential file name                                           POTENTIAL
 GLOBAL| MM Potential file name                                     MM_POTENTIAL
 GLOBAL| Coordinate file name                                      __STD_INPUT__
 GLOBAL| Method name                                                        CP2K
 GLOBAL| Project name                                   trioxane_GFN1_mol_geoopt
 GLOBAL| Run type                                                        GEO_OPT
 GLOBAL| FFT library                                                       FFTW3
 GLOBAL| Diagonalization library                                       ScaLAPACK
 GLOBAL| Cholesky decomposition library                                ScaLAPACK
 GLOBAL| DGEMM library                                                      BLAS
 GLOBAL| Direct generalized diagonalization requested                          F
 GLOBAL| Orthonormality check for eigenvectors                          DISABLED
 GLOBAL| Matrix multiplication library                                 ScaLAPACK
 GLOBAL| All-to-all communication in single precision                          F
 GLOBAL| FFTs using library dependent lengths                                  F
 GLOBAL| Grid backend                                                       AUTO
 GLOBAL| Global print level                                                  LOW
 GLOBAL| MPI I/O enabled                                                       T
 GLOBAL| Total number of message passing processes                             1
 GLOBAL| Number of distributed systems (nodes)                                 1
 GLOBAL| Number of threads for this process                                    1
 GLOBAL| This output is from process                                           0
 GLOBAL| OpenMP stack size per thread (OMP_STACKSIZE)                    default
 GLOBAL| CPU model name                                                  UNKNOWN
 GLOBAL| CPUID                                                              2200
 GLOBAL| Compiled for CPUID                                                 2000

 *** HINT in environment.F:970 :: The compiler target flags (arm_arch64)   ***
 *** used to build this binary cannot exploit all extensions of this CPU   ***
 *** model (arm_sve256). Consider compiler target flags as part of FCFLAGS ***
 *** and CFLAGS (ARCH file).                                               ***


 MEMORY| system memory details [Kb]
 MEMORY|                        rank 0           min           max       average
 MEMORY| MemTotal            125508532     125508532     125508532     125508532
 MEMORY| MemFree             106278832     106278832     106278832     106278832
 MEMORY| Buffers                865996        865996        865996        865996
 MEMORY| Cached               13214344      13214344      13214344      13214344
 MEMORY| Slab                  1565168       1565168       1565168       1565168
 MEMORY| SReclaimable           888300        888300        888300        888300
 MEMORY| MemLikelyFree       121247472     121247472     121247472     121247472


 GENERATE|  Preliminary Number of Bonds generated:                             0
 GENERATE|  Achieved consistency in connectivity generation.


                  #####   #####        #     #   #     #       #          
                 #     # #     #      #    ##### #     #   # #####  ####  
                 #     # #           #       #   ###   #       #   #    # 
                 #     #  #####     #        #   #  #  #   #   #   ###### 
                 #   # #       #   #         #   #   # #   #   #   #      
                 #    #  #     #  #          #   #  #  # # #   #    #   # 
                  #### #  #####  #           #   ###   ##  #   #     ###  

                                   GFN1-xTB  
                                 Version 0.0                       
                            Johann V. Pototschnig                  



 TOTAL NUMBERS AND MAXIMUM NUMBERS

  Total number of            - Atomic kinds:                                   3
                             - Atoms:                                         12
                             - Shell sets:                                    24
                             - Shells:                                        24
                             - Primitive Cartesian functions:                138
                             - Cartesian basis functions:                     36
                             - Spherical basis functions:                     36

  Maximum angular momentum of the orbital basis functions:                     1


 SCF PARAMETERS         Density guess:                                     MOPAC
                        --------------------------------------------------------
                        max_scf:                                             300
                        max_scf_history:                                       0
                        max_diis:                                              4
                        --------------------------------------------------------
                        eps_scf:                                        1.00E-09
                        eps_scf_history:                                0.00E+00
                        eps_diis:                                       1.00E-01
                        eps_eigval:                                     1.00E-05
                        --------------------------------------------------------
                        level_shift [a.u.]:                             0.000000
                        added MOs                                        18    0
                        --------------------------------------------------------
                        Mixing method:                           DIRECT_P_MIXING
                        --------------------------------------------------------
                        Smear method:                                FERMI_DIRAC
                        Electronic temperature [K]:                        300.0
                        Electronic temperature [a.u.]:                  9.50E-04
                        Accuracy threshold:                             1.00E-06
                        --------------------------------------------------------
                        No outer SCF

 BFGS| Use rational function optimization for step estimation:                NO
 BFGS| Use model Hessian for initial guess:                                  YES
 BFGS| Restart Hessian:                                                       NO
 BFGS| Trust radius:                                                       0.472

 *******************************************************************************
 ***                     STARTING GEOMETRY OPTIMIZATION                      ***
 ***                                   BFGS                                  ***
 *******************************************************************************

 Extrapolation method: initial_guess

 Number of electrons:                                                         36
 Number of occupied orbitals:                                                 18
 Number of molecular orbitals:                                                36

 Number of orbital functions:                                                 36
 Number of independent orbital functions:                                     36


 SCF WAVEFUNCTION OPTIMIZATION

  Step     Update method      Time    Convergence         Total energy    Change
  ------------------------------------------------------------------------------
     1 TBLite/Diag 0.40E+00    0.0     1.55853770       -23.3316618412 -2.33E+01
     2 TBLite/Diag 0.40E+00    0.0     0.22446141       -23.6841599627 -3.52E-01
     3 TBLite/Diag 0.40E+00    0.0     0.04542052       -23.6904478954 -6.29E-03
     4 TBLite/Diag 0.40E+00    0.0     0.01959464       -23.6906792185 -2.31E-04
     5 TBLite/Diag 0.40E+00    0.0     0.01352592       -23.6908790660 -2.00E-04
     6 TBLite/Diag 0.40E+00    0.0     0.00493692       -23.6910378283 -1.59E-04
     7 TBLite/Diag 0.40E+00    0.0     0.00052191       -23.6910380108 -1.82E-07
     8 TBLite/Diag 0.40E+00    0.0     0.00024566       -23.6910384054 -3.95E-07
     9 TBLite/Diag 0.40E+00    0.0     0.00000800       -23.6910384062 -7.81E-10
    10 TBLite/Diag 0.40E+00    0.0     0.00000282       -23.6910384062 -5.74E-11
    11 TBLite/Diag 0.40E+00    0.0     0.00000002       -23.6910384062 -3.55E-15
    12 TBLite/Diag 0.40E+00    0.0     6.3648E-10       -23.6910384062 -3.55E-15

  *** SCF run converged in    12 steps ***


  Core Hamiltonian energy:                                    -23.95108073545910
  Repulsive potential energy:                                   0.14114796743509
  Electrostatic energy:                                         0.12246849988332
  Self-consistent dispersion energy:                            0.00000000000000
  Non-self consistent dispersion energy:                       -0.00357413808165
  Correction for halogen bonding:                               0.00000000000000
  Electronic entropic energy:                                  -0.00000000000000
  Fermi energy:                                                -0.16560318589214

  Total energy:                                               -23.69103840622235
  Total energy (extrapolated to T->0):                        -23.69103840622235

 ENERGY| Total FORCE_EVAL ( QS ) energy [hartree]            -23.691038406222351

 OPT| **************************************************************************
 OPT| Step number                                                              0
 OPT| Optimization method                                                   BFGS
 OPT| Total energy [hartree]                                      -23.6910384062
 OPT| Used time [s]                                                        0.013
 OPT| **************************************************************************
 OPT| Estimated peak process memory [MiB]                                    166

 --------------------------
 OPTIMIZATION STEP:      1
 --------------------------

 Extrapolation method: ASPC

 Number of electrons:                                                         36
 Number of occupied orbitals:                                                 18
 Number of molecular orbitals:                                                36

 Number of orbital functions:                                                 36
 Number of independent orbital functions:                                     36


 SCF WAVEFUNCTION OPTIMIZATION

  Step     Update method      Time    Convergence         Total energy    Change
  ------------------------------------------------------------------------------
     1 TBLite/Diag 0.40E+00    0.0     0.01710704       -23.6913725426 -2.37E+01
     2 TBLite/Diag 0.40E+00    0.0     0.00207812       -23.6913960087 -2.35E-05
     3 TBLite/Diag 0.40E+00    0.0     0.00017420       -23.6913961241 -1.15E-07
     4 TBLite/Diag 0.40E+00    0.0     0.00006619       -23.6913961314 -7.28E-09
     5 TBLite/Diag 0.40E+00    0.0     0.00002947       -23.6913961329 -1.51E-09
     6 TBLite/Diag 0.40E+00    0.0     0.00000114       -23.6913961329 -2.54E-12
     7 TBLite/Diag 0.40E+00    0.0     0.00000015       -23.6913961329 -4.97E-14
     8 TBLite/Diag 0.40E+00    0.0     3.3987E-09       -23.6913961329 -1.42E-14
     9 TBLite/Diag 0.40E+00    0.0     5.5187E-10       -23.6913961329  2.13E-14

  *** SCF run converged in     9 steps ***


  Core Hamiltonian energy:                                    -23.95132444171498
  Repulsive potential energy:                                   0.14095961199144
  Electrostatic energy:                                         0.12253837915751
  Self-consistent dispersion energy:                            0.00000000000000
  Non-self consistent dispersion energy:                       -0.00356968236857
  Correction for halogen bonding:                               0.00000000000000
  Electronic entropic energy:                                  -0.00000000000000
  Fermi energy:                                                -0.16421523004002

  Total energy:                                               -23.69139613293460
  Total energy (extrapolated to T->0):                        -23.69139613293460

 ENERGY| Total FORCE_EVAL ( QS ) energy [hartree]            -23.691396132934596

 OPT| **************************************************************************
 OPT| Step number                                                              1
 OPT| Optimization method                                                   BFGS
 OPT| Total energy [hartree]                                      -23.6913961329
 OPT| Effective energy change [hartree]                            -0.0003577267
 OPT| Predicted energy change [hartree]                            -0.0006149107
 OPT| Scaling factor                                                0.0000000000
 OPT| Step size                                                     0.0276984236
 OPT| Trust radius                                                  0.4724315332
 OPT| Decrease in energy                                                     YES
 OPT| Used time [s]                                                        0.010
 OPT|
 OPT| Maximum step size                                             0.0276984236
 OPT| Convergence limit for maximum step size                       0.0030000000
 OPT| Maximum step size is converged                                          NO
 OPT|
 OPT| RMS step size                                                 0.0134729849
 OPT| Convergence limit for RMS step size                           0.0015000000
 OPT| RMS step size is converged                                              NO
 OPT|
 OPT| Maximum gradient                                              0.0095331126
 OPT| Convergence limit for maximum gradient                        0.0004500000
 OPT| Maximum gradient is converged                                           NO
 OPT|
 OPT| RMS gradient                                                  0.0031518881
 OPT| Convergence limit for RMS gradient                            0.0003000000
 OPT| RMS gradient is converged                                               NO
 OPT| **************************************************************************
 OPT| Estimated peak process memory after this step [MiB]                    166

 --------------------------
 OPTIMIZATION STEP:      2
 --------------------------

 Extrapolation method: ASPC

 Number of electrons:                                                         36
 Number of occupied orbitals:                                                 18
 Number of molecular orbitals:                                                36

 Number of orbital functions:                                                 36
 Number of independent orbital functions:                                     36


 SCF WAVEFUNCTION OPTIMIZATION

  Step     Update method      Time    Convergence         Total energy    Change
  ------------------------------------------------------------------------------
     1 TBLite/Diag 0.40E+00    0.0     0.01598130       -23.6919080151 -2.37E+01
     2 TBLite/Diag 0.40E+00    0.0     0.00104670       -23.6919131607 -5.15E-06
     3 TBLite/Diag 0.40E+00    0.0     0.00034590       -23.6919134609 -3.00E-07
     4 TBLite/Diag 0.40E+00    0.0     0.00004997       -23.6919134649 -4.01E-09
     5 TBLite/Diag 0.40E+00    0.0     0.00000499       -23.6919134650 -6.87E-11
     6 TBLite/Diag 0.40E+00    0.0     0.00000124       -23.6919134650 -2.38E-12
     7 TBLite/Diag 0.40E+00    0.0     0.00000001       -23.6919134650 -7.11E-15
     8 TBLite/Diag 0.40E+00    0.0     1.1517E-09       -23.6919134650  3.55E-15
     9 TBLite/Diag 0.40E+00    0.0     8.2555E-10       -23.6919134650  3.55E-15

  *** SCF run converged in     9 steps ***


  Core Hamiltonian energy:                                    -23.95012623886435
  Repulsive potential energy:                                   0.14055939387142
  Electrostatic energy:                                         0.12122359656938
  Self-consistent dispersion energy:                            0.00000000000000
  Non-self consistent dispersion energy:                       -0.00357021659644
  Correction for halogen bonding:                               0.00000000000000
  Electronic entropic energy:                                  -0.00000000000000
  Fermi energy:                                                -0.16421507335153

  Total energy:                                               -23.69191346501999
  Total energy (extrapolated to T->0):                        -23.69191346501999

 ENERGY| Total FORCE_EVAL ( QS ) energy [hartree]            -23.691913465019987

 OPT| **************************************************************************
 OPT| Step number                                                              2
 OPT| Optimization method                                                   BFGS
 OPT| Total energy [hartree]                                      -23.6919134650
 OPT| Effective energy change [hartree]                            -0.0005173321
 OPT| Predicted energy change [hartree]                            -0.0004383554
 OPT| Scaling factor                                                0.0000000000
 OPT| Step size                                                     0.0285706709
 OPT| Trust radius                                                  0.4724315332
 OPT| Decrease in energy                                                     YES
 OPT| Used time [s]                                                        0.011
 OPT|
 OPT| Maximum step size                                             0.0285706709
 OPT| Convergence limit for maximum step size                       0.0030000000
 OPT| Maximum step size is converged                                          NO
 OPT|
 OPT| RMS step size                                                 0.0115072522
 OPT| Convergence limit for RMS step size                           0.0015000000
 OPT| RMS step size is converged                                              NO
 OPT|
 OPT| Maximum gradient                                              0.0015651012
 OPT| Convergence limit for maximum gradient                        0.0004500000
 OPT| Maximum gradient is converged                                           NO
 OPT|
 OPT| RMS gradient                                                  0.0008287663
 OPT| Convergence limit for RMS gradient                            0.0003000000
 OPT| RMS gradient is converged                                               NO
 OPT| **************************************************************************
 OPT| Estimated peak process memory after this step [MiB]                    167

 --------------------------
 OPTIMIZATION STEP:      3
 --------------------------

 Extrapolation method: ASPC

 Number of electrons:                                                         36
 Number of occupied orbitals:                                                 18
 Number of molecular orbitals:                                                36

 Number of orbital functions:                                                 36
 Number of independent orbital functions:                                     36


 SCF WAVEFUNCTION OPTIMIZATION

  Step     Update method      Time    Convergence         Total energy    Change
  ------------------------------------------------------------------------------
     1 TBLite/Diag 0.40E+00    0.0     0.01360921       -23.6920433744 -2.37E+01
     2 TBLite/Diag 0.40E+00    0.0     0.00023272       -23.6920435669 -1.92E-07
     3 TBLite/Diag 0.40E+00    0.0     0.00007605       -23.6920435767 -9.77E-09
     4 TBLite/Diag 0.40E+00    0.0     0.00001259       -23.6920435775 -8.40E-10
     5 TBLite/Diag 0.40E+00    0.0     0.00000554       -23.6920435776 -7.84E-11
     6 TBLite/Diag 0.40E+00    0.0     0.00000032       -23.6920435776 -1.63E-13
     7 TBLite/Diag 0.40E+00    0.0     5.9237E-09       -23.6920435776  0.00E+00
     8 TBLite/Diag 0.40E+00    0.0     3.5451E-09       -23.6920435776  3.55E-15
     9 TBLite/Diag 0.40E+00    0.0     2.0952E-10       -23.6920435776 -3.55E-15

  *** SCF run converged in     9 steps ***


  Core Hamiltonian energy:                                    -23.94952859384043
  Repulsive potential energy:                                   0.13996130803035
  Electrostatic energy:                                         0.12109282253805
  Self-consistent dispersion energy:                            0.00000000000000
  Non-self consistent dispersion energy:                       -0.00356911430708
  Correction for halogen bonding:                               0.00000000000000
  Electronic entropic energy:                                  -0.00000000000000
  Fermi energy:                                                -0.16416214339121

  Total energy:                                               -23.69204357757911
  Total energy (extrapolated to T->0):                        -23.69204357757911

 ENERGY| Total FORCE_EVAL ( QS ) energy [hartree]            -23.692043577579113

 OPT| **************************************************************************
 OPT| Step number                                                              3
 OPT| Optimization method                                                   BFGS
 OPT| Total energy [hartree]                                      -23.6920435776
 OPT| Effective energy change [hartree]                            -0.0001301126
 OPT| Predicted energy change [hartree]                            -0.0001322445
 OPT| Scaling factor                                                0.0000000000
 OPT| Step size                                                     0.0234275173
 OPT| Trust radius                                                  0.4724315332
 OPT| Decrease in energy                                                     YES
 OPT| Used time [s]                                                        0.011
 OPT|
 OPT| Maximum step size                                             0.0234275173
 OPT| Convergence limit for maximum step size                       0.0030000000
 OPT| Maximum step size is converged                                          NO
 OPT|
 OPT| RMS step size                                                 0.0112475780
 OPT| Convergence limit for RMS step size                           0.0015000000
 OPT| RMS step size is converged                                              NO
 OPT|
 OPT| Maximum gradient                                              0.0030133887
 OPT| Convergence limit for maximum gradient                        0.0004500000
 OPT| Maximum gradient is converged                                           NO
 OPT|
 OPT| RMS gradient                                                  0.0012023967
 OPT| Convergence limit for RMS gradient                            0.0003000000
 OPT| RMS gradient is converged                                               NO
 OPT| **************************************************************************
 OPT| Estimated peak process memory after this step [MiB]                    167

 --------------------------
 OPTIMIZATION STEP:      4
 --------------------------

 Extrapolation method: ASPC

 Number of electrons:                                                         36
 Number of occupied orbitals:                                                 18
 Number of molecular orbitals:                                                36

 Number of orbital functions:                                                 36
 Number of independent orbital functions:                                     36


 SCF WAVEFUNCTION OPTIMIZATION

  Step     Update method      Time    Convergence         Total energy    Change
  ------------------------------------------------------------------------------
     1 TBLite/Diag 0.40E+00    0.0     0.01895828       -23.6922294594 -2.37E+01
     2 TBLite/Diag 0.40E+00    0.0     0.00018531       -23.6922296779 -2.18E-07
     3 TBLite/Diag 0.40E+00    0.0     0.00003114       -23.6922296800 -2.08E-09
     4 TBLite/Diag 0.40E+00    0.0     0.00001380       -23.6922296800 -3.27E-11
     5 TBLite/Diag 0.40E+00    0.0     0.00000642       -23.6922296801 -6.22E-11
     6 TBLite/Diag 0.40E+00    0.0     0.00000060       -23.6922296801 -5.54E-13
     7 TBLite/Diag 0.40E+00    0.0     7.4133E-09       -23.6922296801  1.42E-14
     8 TBLite/Diag 0.40E+00    0.0     1.8976E-09       -23.6922296801 -3.20E-14
     9 TBLite/Diag 0.40E+00    0.0     1.7716E-10       -23.6922296801  1.78E-14

  *** SCF run converged in     9 steps ***


  Core Hamiltonian energy:                                    -23.94887077864118
  Repulsive potential energy:                                   0.13944618266268
  Electrostatic energy:                                         0.12076115109921
  Self-consistent dispersion energy:                            0.00000000000000
  Non-self consistent dispersion energy:                       -0.00356623521715
  Correction for halogen bonding:                               0.00000000000000
  Electronic entropic energy:                                  -0.00000000000000
  Fermi energy:                                                -0.16362715687766

  Total energy:                                               -23.69222968009643
  Total energy (extrapolated to T->0):                        -23.69222968009643

 ENERGY| Total FORCE_EVAL ( QS ) energy [hartree]            -23.692229680096428

 OPT| **************************************************************************
 OPT| Step number                                                              4
 OPT| Optimization method                                                   BFGS
 OPT| Total energy [hartree]                                      -23.6922296801
 OPT| Effective energy change [hartree]                            -0.0001861025
 OPT| Predicted energy change [hartree]                            -0.0001349688
 OPT| Scaling factor                                                0.0000000000
 OPT| Step size                                                     0.0337759502
 OPT| Trust radius                                                  0.4724315332
 OPT| Decrease in energy                                                     YES
 OPT| Used time [s]                                                        0.011
 OPT|
 OPT| Maximum step size                                             0.0337759502
 OPT| Convergence limit for maximum step size                       0.0030000000
 OPT| Maximum step size is converged                                          NO
 OPT|
 OPT| RMS step size                                                 0.0151362481
 OPT| Convergence limit for RMS step size                           0.0015000000
 OPT| RMS step size is converged                                              NO
 OPT|
 OPT| Maximum gradient                                              0.0039122047
 OPT| Convergence limit for maximum gradient                        0.0004500000
 OPT| Maximum gradient is converged                                           NO
 OPT|
 OPT| RMS gradient                                                  0.0014454935
 OPT| Convergence limit for RMS gradient                            0.0003000000
 OPT| RMS gradient is converged                                               NO
 OPT| **************************************************************************
 OPT| Estimated peak process memory after this step [MiB]                    167

 --------------------------
 OPTIMIZATION STEP:      5
 --------------------------

 Extrapolation method: ASPC

 Number of electrons:                                                         36
 Number of occupied orbitals:                                                 18
 Number of molecular orbitals:                                                36

 Number of orbital functions:                                                 36
 Number of independent orbital functions:                                     36


 SCF WAVEFUNCTION OPTIMIZATION

  Step     Update method      Time    Convergence         Total energy    Change
  ------------------------------------------------------------------------------
     1 TBLite/Diag 0.40E+00    0.0     0.02031113       -23.6923888116 -2.37E+01
     2 TBLite/Diag 0.40E+00    0.0     0.00039738       -23.6923900727 -1.26E-06
     3 TBLite/Diag 0.40E+00    0.0     0.00017736       -23.6923901353 -6.25E-08
     4 TBLite/Diag 0.40E+00    0.0     0.00001002       -23.6923901354 -1.63E-10
     5 TBLite/Diag 0.40E+00    0.0     0.00000459       -23.6923901355 -6.61E-11
     6 TBLite/Diag 0.40E+00    0.0     0.00000095       -23.6923901355 -1.57E-12
     7 TBLite/Diag 0.40E+00    0.0     7.1488E-09       -23.6923901355 -1.07E-14
     8 TBLite/Diag 0.40E+00    0.0     2.8818E-09       -23.6923901355  0.00E+00
     9 TBLite/Diag 0.40E+00    0.0     1.5311E-10       -23.6923901355  0.00E+00

  *** SCF run converged in     9 steps ***


  Core Hamiltonian energy:                                    -23.94914102221147
  Repulsive potential energy:                                   0.13934352278477
  Electrostatic energy:                                         0.12096864293165
  Self-consistent dispersion energy:                            0.00000000000000
  Non-self consistent dispersion energy:                       -0.00356127899669
  Correction for halogen bonding:                               0.00000000000000
  Electronic entropic energy:                                  -0.00000000000000
  Fermi energy:                                                -0.16306470696889

  Total energy:                                               -23.69239013549174
  Total energy (extrapolated to T->0):                        -23.69239013549174

 ENERGY| Total FORCE_EVAL ( QS ) energy [hartree]            -23.692390135491742

 OPT| **************************************************************************
 OPT| Step number                                                              5
 OPT| Optimization method                                                   BFGS
 OPT| Total energy [hartree]                                      -23.6923901355
 OPT| Effective energy change [hartree]                            -0.0001604554
 OPT| Predicted energy change [hartree]                            -0.0001175258
 OPT| Scaling factor                                                0.0000000000
 OPT| Step size                                                     0.0439447959
 OPT| Trust radius                                                  0.4724315332
 OPT| Decrease in energy                                                     YES
 OPT| Used time [s]                                                        0.011
 OPT|
 OPT| Maximum step size                                             0.0439447959
 OPT| Convergence limit for maximum step size                       0.0030000000
 OPT| Maximum step size is converged                                          NO
 OPT|
 OPT| RMS step size                                                 0.0175604060
 OPT| Convergence limit for RMS step size                           0.0015000000
 OPT| RMS step size is converged                                              NO
 OPT|
 OPT| Maximum gradient                                              0.0020681625
 OPT| Convergence limit for maximum gradient                        0.0004500000
 OPT| Maximum gradient is converged                                           NO
 OPT|
 OPT| RMS gradient                                                  0.0008631168
 OPT| Convergence limit for RMS gradient                            0.0003000000
 OPT| RMS gradient is converged                                               NO
 OPT| **************************************************************************
 OPT| Estimated peak process memory after this step [MiB]                    167

 --------------------------
 OPTIMIZATION STEP:      6
 --------------------------

 Extrapolation method: ASPC

 Number of electrons:                                                         36
 Number of occupied orbitals:                                                 18
 Number of molecular orbitals:                                                36

 Number of orbital functions:                                                 36
 Number of independent orbital functions:                                     36


 SCF WAVEFUNCTION OPTIMIZATION

  Step     Update method      Time    Convergence         Total energy    Change
  ------------------------------------------------------------------------------
     1 TBLite/Diag 0.40E+00    0.0     0.01154634       -23.6924361539 -2.37E+01
     2 TBLite/Diag 0.40E+00    0.0     0.00033262       -23.6924367946 -6.41E-07
     3 TBLite/Diag 0.40E+00    0.0     0.00014286       -23.6924368300 -3.54E-08
     4 TBLite/Diag 0.40E+00    0.0     0.00000551       -23.6924368301 -7.03E-11
     5 TBLite/Diag 0.40E+00    0.0     0.00000374       -23.6924368301 -3.63E-11
     6 TBLite/Diag 0.40E+00    0.0     0.00000122       -23.6924368301 -2.66E-12
     7 TBLite/Diag 0.40E+00    0.0     4.7994E-09       -23.6924368301 -1.42E-14
     8 TBLite/Diag 0.40E+00    0.0     2.7142E-09       -23.6924368301  1.78E-14
     9 TBLite/Diag 0.40E+00    0.0     1.4640E-10       -23.6924368301 -1.42E-14

  *** SCF run converged in     9 steps ***


  Core Hamiltonian energy:                                    -23.94989392212231
  Repulsive potential energy:                                   0.13978641003070
  Electrostatic energy:                                         0.12122862209479
  Self-consistent dispersion energy:                            0.00000000000000
  Non-self consistent dispersion energy:                       -0.00355794012801
  Correction for halogen bonding:                               0.00000000000000
  Electronic entropic energy:                                  -0.00000000000000
  Fermi energy:                                                -0.16284807752458

  Total energy:                                               -23.69243683012482
  Total energy (extrapolated to T->0):                        -23.69243683012482

 ENERGY| Total FORCE_EVAL ( QS ) energy [hartree]            -23.692436830124823

 OPT| **************************************************************************
 OPT| Step number                                                              6
 OPT| Optimization method                                                   BFGS
 OPT| Total energy [hartree]                                      -23.6924368301
 OPT| Effective energy change [hartree]                            -0.0000466946
 OPT| Predicted energy change [hartree]                            -0.0000406163
 OPT| Scaling factor                                                0.0000000000
 OPT| Step size                                                     0.0291566183
 OPT| Trust radius                                                  0.4724315332
 OPT| Decrease in energy                                                     YES
 OPT| Used time [s]                                                        0.011
 OPT|
 OPT| Maximum step size                                             0.0291566183
 OPT| Convergence limit for maximum step size                       0.0030000000
 OPT| Maximum step size is converged                                          NO
 OPT|
 OPT| RMS step size                                                 0.0103316530
 OPT| Convergence limit for RMS step size                           0.0015000000
 OPT| RMS step size is converged                                              NO
 OPT|
 OPT| Maximum gradient                                              0.0005463527
 OPT| Convergence limit for maximum gradient                        0.0004500000
 OPT| Maximum gradient is converged                                           NO
 OPT|
 OPT| RMS gradient                                                  0.0002521633
 OPT| Convergence limit for RMS gradient                            0.0003000000
 OPT| RMS gradient is converged                                              YES
 OPT| **************************************************************************
 OPT| Estimated peak process memory after this step [MiB]                    167

 --------------------------
 OPTIMIZATION STEP:      7
 --------------------------

 Extrapolation method: ASPC

 Number of electrons:                                                         36
 Number of occupied orbitals:                                                 18
 Number of molecular orbitals:                                                36

 Number of orbital functions:                                                 36
 Number of independent orbital functions:                                     36


 SCF WAVEFUNCTION OPTIMIZATION

  Step     Update method      Time    Convergence         Total energy    Change
  ------------------------------------------------------------------------------
     1 TBLite/Diag 0.40E+00    0.0     0.00197366       -23.6924395448 -2.37E+01
     2 TBLite/Diag 0.40E+00    0.0     0.00006432       -23.6924395616 -1.69E-08
     3 TBLite/Diag 0.40E+00    0.0     0.00003343       -23.6924395628 -1.13E-09
     4 TBLite/Diag 0.40E+00    0.0     0.00000348       -23.6924395628 -2.68E-11
     5 TBLite/Diag 0.40E+00    0.0     0.00000144       -23.6924395628 -4.82E-12
     6 TBLite/Diag 0.40E+00    0.0     0.00000058       -23.6924395628 -4.33E-13
     7 TBLite/Diag 0.40E+00    0.0     8.4535E-09       -23.6924395628 -7.11E-15
     8 TBLite/Diag 0.40E+00    0.0     5.2652E-09       -23.6924395628  1.07E-14
     9 TBLite/Diag 0.40E+00    0.0     1.3821E-10       -23.6924395628  3.55E-15

  *** SCF run converged in     9 steps ***


  Core Hamiltonian energy:                                    -23.95018370440830
  Repulsive potential energy:                                   0.14003203648838
  Electrostatic energy:                                         0.12126953430860
  Self-consistent dispersion energy:                            0.00000000000000
  Non-self consistent dispersion energy:                       -0.00355742918484
  Correction for halogen bonding:                               0.00000000000000
  Electronic entropic energy:                                  -0.00000000000000
  Fermi energy:                                                -0.16283594807751

  Total energy:                                               -23.69243956279616
  Total energy (extrapolated to T->0):                        -23.69243956279616

 ENERGY| Total FORCE_EVAL ( QS ) energy [hartree]            -23.692439562796164

 OPT| **************************************************************************
 OPT| Step number                                                              7
 OPT| Optimization method                                                   BFGS
 OPT| Total energy [hartree]                                      -23.6924395628
 OPT| Effective energy change [hartree]                            -0.0000027327
 OPT| Predicted energy change [hartree]                            -0.0000023723
 OPT| Scaling factor                                                0.0000000000
 OPT| Step size                                                     0.0053846335
 OPT| Trust radius                                                  0.4724315332
 OPT| Decrease in energy                                                     YES
 OPT| Used time [s]                                                        0.011
 OPT|
 OPT| Maximum step size                                             0.0053846335
 OPT| Convergence limit for maximum step size                       0.0030000000
 OPT| Maximum step size is converged                                          NO
 OPT|
 OPT| RMS step size                                                 0.0017134245
 OPT| Convergence limit for RMS step size                           0.0015000000
 OPT| RMS step size is converged                                              NO
 OPT|
 OPT| Maximum gradient                                              0.0002658814
 OPT| Convergence limit for maximum gradient                        0.0004500000
 OPT| Maximum gradient is converged                                          YES
 OPT|
 OPT| RMS gradient                                                  0.0000919865
 OPT| Convergence limit for RMS gradient                            0.0003000000
 OPT| RMS gradient is converged                                              YES
 OPT| **************************************************************************
 OPT| Estimated peak process memory after this step [MiB]                    167

 --------------------------
 OPTIMIZATION STEP:      8
 --------------------------

 Extrapolation method: ASPC

 Number of electrons:                                                         36
 Number of occupied orbitals:                                                 18
 Number of molecular orbitals:                                                36

 Number of orbital functions:                                                 36
 Number of independent orbital functions:                                     36


 SCF WAVEFUNCTION OPTIMIZATION

  Step     Update method      Time    Convergence         Total energy    Change
  ------------------------------------------------------------------------------
     1 TBLite/Diag 0.40E+00    0.0     0.00030205       -23.6924397720 -2.37E+01
     2 TBLite/Diag 0.40E+00    0.0     0.00001024       -23.6924397726 -5.54E-10
     3 TBLite/Diag 0.40E+00    0.0     0.00000810       -23.6924397726 -5.89E-11
     4 TBLite/Diag 0.40E+00    0.0     0.00000156       -23.6924397727 -4.53E-12
     5 TBLite/Diag 0.40E+00    0.0     0.00000049       -23.6924397727 -4.37E-13
     6 TBLite/Diag 0.40E+00    0.0     0.00000008       -23.6924397727 -3.55E-14
     7 TBLite/Diag 0.40E+00    0.0     0.00000001       -23.6924397727  1.07E-14
     8 TBLite/Diag 0.40E+00    0.0     3.6188E-09       -23.6924397727 -7.11E-15
     9 TBLite/Diag 0.40E+00    0.0     1.2262E-10       -23.6924397727  0.00E+00

  *** SCF run converged in     9 steps ***


  Core Hamiltonian energy:                                    -23.95025354028560
  Repulsive potential energy:                                   0.14010210623637
  Electrostatic energy:                                         0.12126905250965
  Self-consistent dispersion energy:                            0.00000000000000
  Non-self consistent dispersion energy:                       -0.00355739111286
  Correction for halogen bonding:                               0.00000000000000
  Electronic entropic energy:                                  -0.00000000000000
  Fermi energy:                                                -0.16283810936202

  Total energy:                                               -23.69243977265244
  Total energy (extrapolated to T->0):                        -23.69243977265244

 ENERGY| Total FORCE_EVAL ( QS ) energy [hartree]            -23.692439772652438

 OPT| **************************************************************************
 OPT| Step number                                                              8
 OPT| Optimization method                                                   BFGS
 OPT| Total energy [hartree]                                      -23.6924397727
 OPT| Effective energy change [hartree]                            -0.0000002099
 OPT| Predicted energy change [hartree]                            -0.0000002566
 OPT| Scaling factor                                                0.0000000000
 OPT| Step size                                                     0.0008593536
 OPT| Trust radius                                                  0.4724315332
 OPT| Decrease in energy                                                     YES
 OPT| Used time [s]                                                        0.011
 OPT|
 OPT| Maximum step size                                             0.0008593536
 OPT| Convergence limit for maximum step size                       0.0030000000
 OPT| Maximum step size is converged                                         YES
 OPT|
 OPT| RMS step size                                                 0.0002969647
 OPT| Convergence limit for RMS step size                           0.0015000000
 OPT| RMS step size is converged                                             YES
 OPT|
 OPT| Maximum gradient                                              0.0000775999
 OPT| Convergence limit for maximum gradient                        0.0004500000
 OPT| Maximum gradient is converged                                          YES
 OPT|
 OPT| RMS gradient                                                  0.0000306943
 OPT| Convergence limit for RMS gradient                            0.0003000000
 OPT| RMS gradient is converged                                              YES
 OPT| **************************************************************************
 OPT| Estimated peak process memory after this step [MiB]                    167

 *******************************************************************************
 ***                    GEOMETRY OPTIMIZATION COMPLETED                      ***
 *******************************************************************************

 write_final_structure: Optimization converged, writing XYZ file gladly:
  trioxane_GFN1_mol_geoopt-FINAL-1_8.xyz

 write_final_structure: Optimization converged, writing CIF file gladly:
  trioxane_GFN1_mol_geoopt-FINAL-1_8.cif

 write_final_structure: Done!

                    Reevaluating energy at the minimum

 Extrapolation method: ASPC

 Number of electrons:                                                         36
 Number of occupied orbitals:                                                 18
 Number of molecular orbitals:                                                36

 Number of orbital functions:                                                 36
 Number of independent orbital functions:                                     36


 SCF WAVEFUNCTION OPTIMIZATION

  Step     Update method      Time    Convergence         Total energy    Change
  ------------------------------------------------------------------------------
     1 TBLite/Diag 0.40E+00    0.0     3.6703E-11       -23.6924397727 -2.37E+01

  *** SCF run converged in     1 steps ***


  Core Hamiltonian energy:                                    -23.95025354028527
  Repulsive potential energy:                                   0.14010210623637
  Electrostatic energy:                                         0.12126905250932
  Self-consistent dispersion energy:                            0.00000000000000
  Non-self consistent dispersion energy:                       -0.00355739111286
  Correction for halogen bonding:                               0.00000000000000
  Electronic entropic energy:                                  -0.00000000000000
  Fermi energy:                                                -0.16283810936175

  Total energy:                                               -23.69243977265243
  Total energy (extrapolated to T->0):                        -23.69243977265243

 ENERGY| Total FORCE_EVAL ( QS ) energy [hartree]            -23.692439772652435

 -------------------------------------------------------------------------------
 -                                                                             -
 -                                DBCSR STATISTICS                             -
 -                                                                             -
 -------------------------------------------------------------------------------
 COUNTER                                    TOTAL       BLAS       SMM       ACC
 flops     2 x     4 x     2                40320       0.0%    100.0%      0.0%     
 flops     4 x     4 x     2                80640       0.0%    100.0%      0.0%     
 flops     2 x     4 x     4                80640       0.0%    100.0%      0.0%     
 flops     4 x     4 x     4               161280       0.0%    100.0%      0.0%     
 flops     2 x    32 x     2               322560       0.0%    100.0%      0.0%     
 flops     2 x     2 x    36               622944       0.0%    100.0%      0.0%     
 flops     4 x    32 x     2               645120       0.0%    100.0%      0.0%     
 flops     2 x    32 x     4               645120       0.0%    100.0%      0.0%     
 flops     4 x     2 x    36              1067904       0.0%    100.0%      0.0%     
 flops     2 x     4 x    36              1067904       0.0%    100.0%      0.0%     
 flops     4 x    32 x     4              1290240       0.0%    100.0%      0.0%     
 flops     4 x     4 x    36              2491776       0.0%    100.0%      0.0%     
 flops inhomo. stacks                           0       0.0%      0.0%      0.0%
 flops total                         8.516448E+06       0.0%    100.0%      0.0%
 flops max/rank                      8.516448E+06       0.0%    100.0%      0.0%
 matmuls inhomo. stacks                         0       0.0%      0.0%      0.0%
 matmuls total                              18114       0.0%    100.0%      0.0%
 number of processed stacks                   692       0.0%    100.0%      0.0%
 average stack size                                     0.0      26.2       0.0
 marketing flops                     8.071488E+06
 -------------------------------------------------------------------------------
 # multiplications                            138
 max memory usage/rank              13.672063E+09
 # max total images/rank                        1
 # max 3D layers                                1
 # MPI messages exchanged                       0
 -------------------------------------------------------------------------------
 -                                                                             -
 -                      DBCSR MESSAGE PASSING PERFORMANCE                      -
 -                                                                             -
 -------------------------------------------------------------------------------
 ROUTINE             CALLS      AVE VOLUME [Bytes]
 MP_Bcast               13                     12.
 MP_Allreduce          663                      9.
 MP_Alltoall          4423                   7032.
 MP_ISend              552                    784.
 MP_IRecv              552                    784.
 -------------------------------------------------------------------------------

 -------------------------------------------------------------------------------
 -                                                                             -
 -                          OFFLOAD MEMPOOL STATISTICS                         -
 -                                                                             -
 -------------------------------------------------------------------------------
 Memory consumption                Number of allocations  Used [MiB]  Size [MiB]
 Device                                                1           0           0
 Host                                                  1           0           0
 -------------------------------------------------------------------------------

 MEMORY| Estimated peak process memory [MiB]                                 167

 -------------------------------------------------------------------------------
 -                                                                             -
 -                         MESSAGE PASSING PERFORMANCE                         -
 -                                                                             -
 -------------------------------------------------------------------------------

 ROUTINE             CALLS      AVE VOLUME [Bytes]
 MP_Group                1
 MP_Bcast              196                    153.
 MP_Allreduce         1596                     89.
 MP_Sync               104
 MP_comm_split         103
 -------------------------------------------------------------------------------


 -------------------------------------------------------------------------------
 -                                                                             -
 -                           R E F E R E N C E S                               -
 -                                                                             -
 -------------------------------------------------------------------------------
 
 CP2K version 2026.1 (Development Version), the CP2K developers group (2026).
 CP2K is freely available from https://www.cp2k.org/ .
 
 M. Iannuzzi, J. Wilhelm, F. Stein, A. Bussy, H. Elgabarty, D. Golze, A. Hehn, 
 M. Graml, S. Marek, B. Sertcan Gökmen, C. Schran, H. Forbert, R. Z. 
 Khaliullin, A. Kozhevnikov, M. Taillefumier, R. Meli, V. V. Rybkin, M. Brehm, 
 R. Schade, O. Schütt, J. V. Pototschnig, H. Mirhosseini, A. Knüpfer, D. Marx, 
 M. Krack, J. Hutter, T. D. Kühne.
 J. Phys. Chem. B 130, 1237-1310 (2026).
 The CP2K Program Package Made Simple.
 https://doi.org/10.1021/acs.jpcb.5c05851

 A. Katbashev, M. Stahn, T. Rose, V. Alizadeh, M. Friede, C. Plett, P. 
 Steinbach, S. Ehlert.
 J. Phys. Chem. A 129, 2667-2682 (2025).
 Overview on Building Blocks and Applications of Efficient and Robust Extended 
 Tight Binding.
 https://doi.org/10.1021/acs.jpca.4c08263

 T. D. Kühne, M. Iannuzzi, M. Del Ben, V. V. Rybkin, P. Seewald, F. Stein, T. 
 Laino, R. Z. Khaliullin, O. Schütt, F. Schiffmann, D. Golze, J. Wilhelm, S. 
 Chulkov, M. H. Bani-Hashemian, V. Weber, U. Borstnik, M. Taillefumier, A. S. 
 Jakobovits, A. Lazzaro, H. Pabst, T. Müller, R. Schade, M. Guidon, S. 
 Andermatt, N. Holmberg, G. K. Schenter, A. Hehn, A. Bussy, F. Belleflamme, G. 
 Tabacchi, A. Glöß, M. Lass, I. Bethune, C. J. Mundy, C. Plessl, M. Watkins, 
 J. VandeVondele, M. Krack, J. Hutter.
 J. Chem. Phys. 152, 194103 (2020).
 CP2K: An electronic structure and molecular dynamics software package - 
 Quickstep: Efficient and accurate electronic structure calculations.
 https://doi.org/10.1063/5.0007045

 P. Pracht, E. Caldeweyher, S. Ehlert, S. Grimme.
 ChemRxiv, (2019).
 A Robust Non-Self-Consistent Tight-Binding Quantum Chemistry Method for large 
 Molecules.
 https://doi.org/10.26434/chemrxiv.8326202.v1

 S. Grimme, C. Bannwarth, P. Shushkov.
 J. Chem. Theory Comput. 13, 1989 (2017).
 A Robust and Accurate Tight-Binding Quantum Chemical Method for Structures, 
 Vibrational Frequencies, and Noncovalent Interactions of Large Molecular 
 Systems Parametrized for All spd-Block Elements (Z = 1-86).
 https://doi.org/10.1021/acs.jctc.7b00118

 O. Schuett, P. Messmer, J. Hutter, J. VandeVondele.
 Electronic Structure Calculations on Graphics Processing Units, 173-190 (2016).
 GPU-Accelerated Sparse Matrix-Matrix Multiplication for Linear Scaling Density 
 Functional Theory.
 https://doi.org/10.1002/9781118670712.ch8

 A. Heinecke, G. Henry, M. Hutchinson, H. Pabst.
 Proceedings of Intl. Supercomputing Conference, 981-991 (2016).
 LIBXSMM: Accelerating Small Matrix Multiplications by Runtime Code Generation.
 https://doi.org/10.1109/SC.2016.83

 U. Borstnik, J. VandeVondele, V. Weber, J. Hutter.
 Parallel Comput. 40, 47-58 (2014).
 Sparse matrix multiplication: The distributed block-compressed sparse row 
 library.
 https://doi.org/10.1016/j.parco.2014.03.012

 T. D. Kühne, M. Krack, F. R. Mohamed, M. Parrinello.
 Phys. Rev. Lett. 98, 066401 (2007).
 Efficient and accurate Car-Parrinello-like approach to Born-Oppenheimer 
 molecular dynamics.
 https://doi.org/10.1103/PhysRevLett.98.066401

 M. Frigo, S. G. Johnson.
 Proc. IEEE 93, 216-231 (2005).
 The design and implementation of FFTW3.
 https://doi.org/10.1109/JPROC.2004.840301

 J. Kolafa.
 J. Comput. Chem. 25, 335-342 (2004).
 Time-reversible always stable predictor-corrector method for molecular dynamics 
 of polarizable molecules.
 https://doi.org/10.1002/jcc.10385

 N. D. Mermin.
 Phys. Rev. 137, A1441-A1443 (1965).
 Thermal Properties of the Inhomogeneous Electron Gas.
 https://doi.org/10.1103/PhysRev.137.A1441


 -------------------------------------------------------------------------------
 -                                                                             -
 -                                T I M I N G                                  -
 -                                                                             -
 -------------------------------------------------------------------------------
 SUBROUTINE                       CALLS  ASD         SELF TIME        TOTAL TIME
                                MAXIMUM       AVERAGE  MAXIMUM  AVERAGE  MAXIMUM
 CP2K                                 1  1.0    0.002    0.002    0.111    0.111
 cp_geo_opt                           1  2.0    0.000    0.000    0.105    0.105
 geoopt_bfgs                          1  3.0    0.001    0.001    0.105    0.105
 cp_eval_at                          10  4.0    0.000    0.000    0.100    0.100
 qs_forces                            9  5.0    0.000    0.000    0.096    0.096
 qs_energies                         10  5.9    0.000    0.000    0.082    0.082
 scf_env_do_scf                      10  6.9    0.000    0.000    0.058    0.058
 scf_env_do_scf_inner_loop           85  8.0    0.002    0.002    0.058    0.058
 qs_scf_new_mos                      85  9.0    0.000    0.000    0.050    0.050
 cp_dbcsr_plus_fm_fm_t              103 10.8    0.000    0.000    0.027    0.027
 calculate_dm_sparse                 94 10.0    0.000    0.000    0.025    0.025
 dbcsr_multiply_generic             138 11.9    0.001    0.001    0.024    0.024
 copy_dbcsr_to_fm                   205 10.5    0.001    0.001    0.015    0.015
 dbcsr_complete_redistribute        446 12.2    0.008    0.008    0.014    0.014
 init_scf_run                        10  6.9    0.000    0.000    0.014    0.014
 make_m2s                           276 12.9    0.001    0.001    0.014    0.014
 rebuild_ks_matrix                   94  9.7    0.000    0.000    0.013    0.013
 build_tblite_ks_matrix              94 10.7    0.013    0.013    0.013    0.013
 scf_env_initial_rho_setup           10  7.9    0.000    0.000    0.013    0.013
 wfi_extrapolate                     10  8.9    0.000    0.000    0.013    0.013
 build_tblite_matrices               19  7.0    0.011    0.011    0.012    0.012
 eigensolver                         85 10.0    0.001    0.001    0.011    0.011
 qs_ks_update_qs_env_forces           9  6.0    0.000    0.000    0.011    0.011
 cp_fm_syevd                        103 10.5    0.000    0.000    0.011    0.011
 qs_diis_b_step                      75 10.0    0.000    0.000    0.008    0.008
 cp_dbcsr_sm_fm_multiply             35 10.4    0.000    0.000    0.008    0.008
 copy_fm_to_dbcsr                   241 11.7    0.000    0.000    0.008    0.008
 cp_fm_syevd_base                   103 11.5    0.008    0.008    0.008    0.008
 qs_energies_init_hamiltonians       10  6.9    0.000    0.000    0.006    0.006
 make_images                        276 13.9    0.002    0.002    0.006    0.006
 multiply_cannon                    138 12.9    0.002    0.002    0.005    0.005
 dbcsr_finalize                    1662 13.2    0.001    0.001    0.005    0.005
 cp_dbcsr_sm_fm_multiply_core        35 11.4    0.000    0.000    0.004    0.004
 dbcsr_desymmetrize_deep            205 11.5    0.002    0.002    0.004    0.004
 reorthogonalize_vectors              9  9.9    0.000    0.000    0.004    0.004
 make_basis_lowdin                    9 10.9    0.000    0.000    0.004    0.004
 qs_init_subsys                       1  2.0    0.001    0.001    0.004    0.004
 dbcsr_crop_matrix                  206 13.8    0.000    0.000    0.004    0.004
 dbcsr_create_new                  3181 13.4    0.003    0.003    0.004    0.004
 qs_ks_update_qs_env                 85  9.0    0.000    0.000    0.003    0.003
 dbcsr_copy_submatrix               206 14.8    0.001    0.001    0.003    0.003
 dbcsr_merge_all                    755 14.8    0.001    0.001    0.003    0.003
 parallel_gemm_fm_gemm              229 10.5    0.000    0.000    0.002    0.002
 compute_matrix_w                    10  6.9    0.000    0.000    0.002    0.002
 calculate_w_matrix_1                 9  8.0    0.000    0.000    0.002    0.002
 cp_fm_gemm                         229 11.5    0.002    0.002    0.002    0.002
 -------------------------------------------------------------------------------

 The number of warnings for this run is : 0
 
 -------------------------------------------------------------------------------
  **** **** ******  **  PROGRAM ENDED AT                 2026-05-23 22:46:19.930
 ***** ** ***  *** **   PROGRAM RAN ON                                spark-c86c
 **    ****   ******    PROGRAM RAN BY                                  kuehne88
 ***** **    ** ** **   PROGRAM PROCESS ID                               2225840
  **** **  *******  **  PROGRAM STOPPED IN /home/kuehne88/periodic-gfn2-benchmar
                                           ks/X23b/runs/molecule_geoopt/GFN1/tri
                                           oxane_GFN1_mol_geoopt
