 DBCSR| CPU Multiplication driver                                           XSMM (U)
 DBCSR| Multrec recursion limit                                              512 (U)
 DBCSR| Multiplication stack size                                           1000 (D)
 DBCSR| Maximum elements for images                                    UNLIMITED (U)
 DBCSR| Multiplicative factor virtual images                                   1 (U)
 DBCSR| Use multiplication densification                                       T (D)
 DBCSR| Multiplication size stacks                                             3 (U)
 DBCSR| Use memory pool for CPU allocation                                     F (U)
 DBCSR| Number of 3D layers                                               SINGLE (U)
 DBCSR| Use MPI memory allocation                                              F (U)
 DBCSR| Use RMA algorithm                                                      F (U)
 DBCSR| Use Communication thread                                               T (U)
 DBCSR| Communication thread load                                             87 (D)
 DBCSR| MPI: My process id                                                     0
 DBCSR| MPI: Number of processes                                               1
 DBCSR| OMP: Current number of threads                                         1
 DBCSR| OMP: Max number of threads                                             1
 DBCSR| Split modifier for TAS multiplication algorithm                  1.0E+00 (U)


  **** **** ******  **  PROGRAM STARTED AT               2026-05-23 22:47:11.360
 ***** ** ***  *** **   PROGRAM STARTED ON                            spark-c86c
 **    ****   ******    PROGRAM STARTED BY                              kuehne88
 ***** **    ** ** **   PROGRAM PROCESS ID                               2268105
  **** **  *******  **  PROGRAM STARTED IN /home/kuehne88/periodic-gfn2-benchmar
                                           ks/X23b/runs/cellopt_gamma/GFN2/ammon
                                           ia_GFN2_gamma_cellopt

 CP2K| version string:                 CP2K version 2026.1 (Development Version)
 CP2K| source code revision number:                                   0622d442e4
 CP2K| cp2kflags: omp fftw3 libxc parallel scalapack mpi_f08 xsmm spglib libdftd
 CP2K|            4 dftd4_v3 mctc-lib tblite
 CP2K| is freely available from                            https://www.cp2k.org/
 CP2K| Program compiled at                                   2026-05-23 22:05:08
 CP2K| Program compiled on                                            spark-c86c
 CP2K| Program compiled for                                              aarch64
 CP2K| Data directory path    /home/kuehne88/cp2k-master-tblite-20260523/install
 CP2K| Input file name                            ammonia_GFN2_gamma_cellopt.inp

 GLOBAL| Force Environment number                                              1
 GLOBAL| Basis set file name                                           BASIS_SET
 GLOBAL| Potential file name                                           POTENTIAL
 GLOBAL| MM Potential file name                                     MM_POTENTIAL
 GLOBAL| Coordinate file name                                      __STD_INPUT__
 GLOBAL| Method name                                                        CP2K
 GLOBAL| Project name                                ammonia_GFN2_gamma_cell_opt
 GLOBAL| Run type                                                       CELL_OPT
 GLOBAL| FFT library                                                       FFTW3
 GLOBAL| Diagonalization library                                       ScaLAPACK
 GLOBAL| Cholesky decomposition library                                ScaLAPACK
 GLOBAL| DGEMM library                                                      BLAS
 GLOBAL| Direct generalized diagonalization requested                          F
 GLOBAL| Orthonormality check for eigenvectors                          DISABLED
 GLOBAL| Matrix multiplication library                                 ScaLAPACK
 GLOBAL| All-to-all communication in single precision                          F
 GLOBAL| FFTs using library dependent lengths                                  F
 GLOBAL| Grid backend                                                       AUTO
 GLOBAL| Global print level                                                  LOW
 GLOBAL| MPI I/O enabled                                                       T
 GLOBAL| Total number of message passing processes                             1
 GLOBAL| Number of distributed systems (nodes)                                 1
 GLOBAL| Number of threads for this process                                    1
 GLOBAL| This output is from process                                           0
 GLOBAL| OpenMP stack size per thread (OMP_STACKSIZE)                    default
 GLOBAL| CPU model name                                                  UNKNOWN
 GLOBAL| CPUID                                                              2200
 GLOBAL| Compiled for CPUID                                                 2000

 *** HINT in environment.F:970 :: The compiler target flags (arm_arch64)   ***
 *** used to build this binary cannot exploit all extensions of this CPU   ***
 *** model (arm_sve256). Consider compiler target flags as part of FCFLAGS ***
 *** and CFLAGS (ARCH file).                                               ***


 MEMORY| system memory details [Kb]
 MEMORY|                        rank 0           min           max       average
 MEMORY| MemTotal            125508532     125508532     125508532     125508532
 MEMORY| MemFree             104319692     104319692     104319692     104319692
 MEMORY| Buffers                867808        867808        867808        867808
 MEMORY| Cached               14066720      14066720      14066720      14066720
 MEMORY| Slab                  1595228       1595228       1595228       1595228
 MEMORY| SReclaimable           916916        916916        916916        916916
 MEMORY| MemLikelyFree       120171136     120171136     120171136     120171136


 GENERATE|  Preliminary Number of Bonds generated:                             0
 GENERATE|  Achieved consistency in connectivity generation.


                  #####   #####        #     #   #     #       #          
                 #     # #     #      #    ##### #     #   # #####  ####  
                 #     # #           #       #   ###   #       #   #    # 
                 #     #  #####     #        #   #  #  #   #   #   ###### 
                 #   # #       #   #         #   #   # #   #   #   #      
                 #    #  #     #  #          #   #  #  # # #   #    #   # 
                  #### #  #####  #           #   ###   ##  #   #     ###  

                                   GFN2-xTB  
                                 Version 0.0                       
                            Johann V. Pototschnig                  



 TOTAL NUMBERS AND MAXIMUM NUMBERS

  Total number of            - Atomic kinds:                                   2
                             - Atoms:                                         16
                             - Shell sets:                                    20
                             - Shells:                                        20
                             - Primitive Cartesian functions:                 68
                             - Cartesian basis functions:                     28
                             - Spherical basis functions:                     28

  Maximum angular momentum of the orbital basis functions:                     1


 SCF PARAMETERS         Density guess:                                     MOPAC
                        --------------------------------------------------------
                        max_scf:                                             300
                        max_scf_history:                                       0
                        max_diis:                                              4
                        --------------------------------------------------------
                        eps_scf:                                        1.00E-09
                        eps_scf_history:                                0.00E+00
                        eps_diis:                                       1.00E-01
                        eps_eigval:                                     1.00E-05
                        --------------------------------------------------------
                        level_shift [a.u.]:                             0.000000
                        added MOs                                        12    0
                        --------------------------------------------------------
                        Mixing method:                           DIRECT_P_MIXING
                        --------------------------------------------------------
                        Smear method:                                FERMI_DIRAC
                        Electronic temperature [K]:                        300.0
                        Electronic temperature [a.u.]:                  9.50E-04
                        Accuracy threshold:                             1.00E-06
                        --------------------------------------------------------
                        No outer SCF

 CELL_OPT| Pressure tolerance [bar]:                                       100.0
 CELL_OPT| Keep volume of cell:                                               NO
 CELL_OPT| Keep angles between the cell vectors:                              NO
 CELL_OPT| Keep cell symmetry:                                                NO
 CELL_OPT| Constraint:                                                      NONE

 BFGS| Use rational function optimization for step estimation:                NO
 BFGS| Use model Hessian for initial guess:                                   NO
 BFGS| Restart Hessian:                                                       NO
 BFGS| Trust radius:                                                       0.472

 *******************************************************************************
 ***                     STARTING   CELL   OPTIMIZATION                      ***
 ***                                   BFGS                                  ***
 *******************************************************************************

 CELL| Volume [angstrom^3]:                                           135.045176
 CELL| Vector a [angstrom]:       5.130     0.000     0.000   |a| =     5.130500
 CELL| Vector b [angstrom]:       0.000     5.130     0.000   |b| =     5.130500
 CELL| Vector c [angstrom]:       0.000     0.000     5.130   |c| =     5.130500
 CELL| Angle (b,c), alpha [degree]:                                    90.000000
 CELL| Angle (a,c), beta  [degree]:                                    90.000000
 CELL| Angle (a,b), gamma [degree]:                                    90.000000
 CELL| Numerically orthorhombic:                                             YES
 CELL| Periodicity                                                           XYZ

 Extrapolation method: initial_guess

 Number of electrons:                                                         32
 Number of occupied orbitals:                                                 16
 Number of molecular orbitals:                                                28

 Number of orbital functions:                                                 28
 Number of independent orbital functions:                                     28


 SCF WAVEFUNCTION OPTIMIZATION

  Step     Update method      Time    Convergence         Total energy    Change
  ------------------------------------------------------------------------------
     1 TBLite/Diag 0.40E+00    0.0     0.90747828       -17.6550302191 -1.77E+01
     2 TBLite/Diag 0.40E+00    0.0     0.05397891       -17.7079472446 -5.29E-02
     3 TBLite/Diag 0.40E+00    0.0     0.08532070       -17.7236119039 -1.57E-02
     4 TBLite/Diag 0.40E+00    0.0     0.11934220       -17.6769146481  4.67E-02
     5 TBLite/Diag 0.40E+00    0.0     0.09278917       -17.7277269620 -5.08E-02
     6 TBLite/Diag 0.40E+00    0.0     0.00135723       -17.7277314197 -4.46E-06
     7 TBLite/Diag 0.40E+00    0.0     0.00039998       -17.7277322251 -8.05E-07
     8 TBLite/Diag 0.40E+00    0.0     0.00003971       -17.7277322273 -2.18E-09
     9 TBLite/Diag 0.40E+00    0.0     0.00002469       -17.7277322280 -7.08E-10
    10 TBLite/Diag 0.40E+00    0.0     0.00000898       -17.7277322285 -5.18E-10
    11 TBLite/Diag 0.40E+00    0.0     0.00000085       -17.7277322285 -2.64E-12
    12 TBLite/Diag 0.40E+00    0.0     0.00000015       -17.7277322285 -1.24E-13
    13 TBLite/Diag 0.40E+00    0.0     0.00000001       -17.7277322285 -7.11E-15
    14 TBLite/Diag 0.40E+00    0.0     1.6876E-09       -17.7277322285 -7.11E-15
    15 TBLite/Diag 0.40E+00    0.0     9.0435E-11       -17.7277322285  2.13E-14

  *** SCF run converged in    15 steps ***


  Core Hamiltonian energy:                                    -18.05561214094899
  Repulsive potential energy:                                   0.27370664767201
  Electrostatic energy:                                         0.07236893219247
  Self-consistent dispersion energy:                           -0.02229528906149
  Non-self consistent dispersion energy:                        0.00409962165338
  Correction for halogen bonding:                               0.00000000000000
  Electronic entropic energy:                                  -0.00000000000000
  Fermi energy:                                                -0.08483391964428

  Total energy:                                               -17.72773222849262
  Total energy (extrapolated to T->0):                        -17.72773222849262

 ENERGY| Total FORCE_EVAL ( QS ) energy [hartree]            -17.727732228492620

 OPT| **************************************************************************
 OPT| Step number                                                              0
 OPT| Optimization method                                                   BFGS
 OPT| Total energy [hartree]                                      -17.7277322285
 OPT| Internal pressure [bar]                                   41224.4111424989
 OPT| Used time [s]                                                        0.949
 OPT| **************************************************************************
 OPT| Estimated peak process memory [MiB]                                    161

 --------------------------
 OPTIMIZATION STEP:      1
 --------------------------

 CELL| Volume [angstrom^3]:                                           135.596295
 CELL| Vector a [angstrom]:       5.137     0.000     0.000   |a| =     5.137470
 CELL| Vector b [angstrom]:      -0.000     5.137     0.000   |b| =     5.137470
 CELL| Vector c [angstrom]:       0.000     0.000     5.137   |c| =     5.137470
 CELL| Angle (b,c), alpha [degree]:                                    89.999997
 CELL| Angle (a,c), beta  [degree]:                                    90.000000
 CELL| Angle (a,b), gamma [degree]:                                    90.000003
 CELL| Numerically orthorhombic:                                              NO
 CELL| Periodicity                                                           XYZ

 Extrapolation method: ASPC

 Number of electrons:                                                         32
 Number of occupied orbitals:                                                 16
 Number of molecular orbitals:                                                28

 Number of orbital functions:                                                 28
 Number of independent orbital functions:                                     28


 SCF WAVEFUNCTION OPTIMIZATION

  Step     Update method      Time    Convergence         Total energy    Change
  ------------------------------------------------------------------------------
     1 TBLite/Diag 0.40E+00    0.0     0.04460425       -17.7333412267 -1.77E+01
     2 TBLite/Diag 0.40E+00    0.0     0.00153529       -17.7333625359 -2.13E-05
     3 TBLite/Diag 0.40E+00    0.0     0.00074096       -17.7333637148 -1.18E-06
     4 TBLite/Diag 0.40E+00    0.0     0.00025099       -17.7333640837 -3.69E-07
     5 TBLite/Diag 0.40E+00    0.0     0.00000546       -17.7333640838 -1.19E-10
     6 TBLite/Diag 0.40E+00    0.0     0.00000279       -17.7333640839 -4.98E-11
     7 TBLite/Diag 0.40E+00    0.0     0.00000006       -17.7333640839 -7.11E-15
     8 TBLite/Diag 0.40E+00    0.0     0.00000003       -17.7333640839 -1.78E-14
     9 TBLite/Diag 0.40E+00    0.0     1.4805E-09       -17.7333640839  1.07E-14
    10 TBLite/Diag 0.40E+00    0.0     3.5721E-10       -17.7333640839  1.07E-14

  *** SCF run converged in    10 steps ***


  Core Hamiltonian energy:                                    -18.02330624384582
  Repulsive potential energy:                                   0.23588785583374
  Electrostatic energy:                                         0.07218112358926
  Self-consistent dispersion energy:                           -0.02219684957777
  Non-self consistent dispersion energy:                        0.00407003014432
  Correction for halogen bonding:                               0.00000000000000
  Electronic entropic energy:                                  -0.00000000000000
  Fermi energy:                                                -0.10398070060128

  Total energy:                                               -17.73336408385628
  Total energy (extrapolated to T->0):                        -17.73336408385628

 ENERGY| Total FORCE_EVAL ( QS ) energy [hartree]            -17.733364083856280

 OPT| **************************************************************************
 OPT| Step number                                                              1
 OPT| Optimization method                                                   BFGS
 OPT| Total energy [hartree]                                      -17.7333640839
 OPT| Internal pressure [bar]                                    5795.7002484894
 OPT| Effective energy change [hartree]                            -0.0056318554
 OPT| Predicted energy change [hartree]                            -0.0043333844
 OPT| Scaling factor                                                0.0000000000
 OPT| Step size                                                     0.0184007328
 OPT| Trust radius                                                  0.4724315332
 OPT| Decrease in energy                                                     YES
 OPT| Used time [s]                                                        0.939
 OPT|
 OPT| Maximum step size                                             0.0184007328
 OPT| Convergence limit for maximum step size                       0.0030000000
 OPT| Maximum step size is converged                                          NO
 OPT|
 OPT| RMS step size                                                 0.0126686905
 OPT| Convergence limit for RMS step size                           0.0015000000
 OPT| RMS step size is converged                                              NO
 OPT|
 OPT| Maximum gradient                                              0.0059308658
 OPT| Convergence limit for maximum gradient                        0.0004500000
 OPT| Maximum gradient is converged                                           NO
 OPT|
 OPT| RMS gradient                                                  0.0040054326
 OPT| Convergence limit for RMS gradient                            0.0003000000
 OPT| RMS gradient is converged                                               NO
 OPT|
 OPT| Pressure deviation [bar]                                   5795.7002484894
 OPT| Pressure tolerance [bar]                                    100.0000000000
 OPT| Pressure is converged                                                   NO
 OPT| **************************************************************************
 OPT| Estimated peak process memory after this step [MiB]                    161

 --------------------------
 OPTIMIZATION STEP:      2
 --------------------------

 CELL| Volume [angstrom^3]:                                           135.712828
 CELL| Vector a [angstrom]:       5.139     0.000     0.000   |a| =     5.138941
 CELL| Vector b [angstrom]:      -0.000     5.139     0.000   |b| =     5.138941
 CELL| Vector c [angstrom]:       0.000     0.000     5.139   |c| =     5.138941
 CELL| Angle (b,c), alpha [degree]:                                    89.999996
 CELL| Angle (a,c), beta  [degree]:                                    90.000000
 CELL| Angle (a,b), gamma [degree]:                                    90.000004
 CELL| Numerically orthorhombic:                                              NO
 CELL| Periodicity                                                           XYZ

 Extrapolation method: ASPC

 Number of electrons:                                                         32
 Number of occupied orbitals:                                                 16
 Number of molecular orbitals:                                                28

 Number of orbital functions:                                                 28
 Number of independent orbital functions:                                     28


 SCF WAVEFUNCTION OPTIMIZATION

  Step     Update method      Time    Convergence         Total energy    Change
  ------------------------------------------------------------------------------
     1 TBLite/Diag 0.40E+00    0.0     0.01922577       -17.7340743792 -1.77E+01
     2 TBLite/Diag 0.40E+00    0.0     0.00058870       -17.7340775267 -3.15E-06
     3 TBLite/Diag 0.40E+00    0.0     0.00028972       -17.7340777019 -1.75E-07
     4 TBLite/Diag 0.40E+00    0.0     0.00010544       -17.7340777659 -6.40E-08
     5 TBLite/Diag 0.40E+00    0.0     0.00000190       -17.7340777659 -2.21E-11
     6 TBLite/Diag 0.40E+00    0.0     0.00000071       -17.7340777659 -3.61E-12
     7 TBLite/Diag 0.40E+00    0.0     0.00000005       -17.7340777659 -1.78E-14
     8 TBLite/Diag 0.40E+00    0.0     2.9266E-09       -17.7340777659  3.20E-14
     9 TBLite/Diag 0.40E+00    0.0     1.0094E-09       -17.7340777659  0.00E+00
    10 TBLite/Diag 0.40E+00    0.0     1.3935E-10       -17.7340777659 -2.13E-14

  *** SCF run converged in    10 steps ***


  Core Hamiltonian energy:                                    -18.00851378683550
  Repulsive potential energy:                                   0.22048597836346
  Electrostatic energy:                                         0.07206130051103
  Self-consistent dispersion energy:                           -0.02217601875101
  Non-self consistent dispersion energy:                        0.00406476080106
  Correction for halogen bonding:                               0.00000000000000
  Electronic entropic energy:                                  -0.00000000000000
  Fermi energy:                                                -0.11260965673822

  Total energy:                                               -17.73407776591096
  Total energy (extrapolated to T->0):                        -17.73407776591096

 ENERGY| Total FORCE_EVAL ( QS ) energy [hartree]            -17.734077765910957

 OPT| **************************************************************************
 OPT| Step number                                                              2
 OPT| Optimization method                                                   BFGS
 OPT| Total energy [hartree]                                      -17.7340777659
 OPT| Internal pressure [bar]                                   -9183.3177020589
 OPT| Effective energy change [hartree]                            -0.0007136821
 OPT| Predicted energy change [hartree]                            -0.0006376355
 OPT| Scaling factor                                                0.0000000000
 OPT| Step size                                                     0.0087298164
 OPT| Trust radius                                                  0.4724315332
 OPT| Decrease in energy                                                     YES
 OPT| Used time [s]                                                        0.940
 OPT|
 OPT| Maximum step size                                             0.0087298164
 OPT| Convergence limit for maximum step size                       0.0030000000
 OPT| Maximum step size is converged                                          NO
 OPT|
 OPT| RMS step size                                                 0.0058960412
 OPT| Convergence limit for RMS step size                           0.0015000000
 OPT| RMS step size is converged                                              NO
 OPT|
 OPT| Maximum gradient                                              0.0029436573
 OPT| Convergence limit for maximum gradient                        0.0004500000
 OPT| Maximum gradient is converged                                           NO
 OPT|
 OPT| RMS gradient                                                  0.0010671620
 OPT| Convergence limit for RMS gradient                            0.0003000000
 OPT| RMS gradient is converged                                               NO
 OPT|
 OPT| Pressure deviation [bar]                                  -9183.3177020589
 OPT| Pressure tolerance [bar]                                    100.0000000000
 OPT| Pressure is converged                                                   NO
 OPT| **************************************************************************
 OPT| Estimated peak process memory after this step [MiB]                    162

 --------------------------
 OPTIMIZATION STEP:      3
 --------------------------

 CELL| Volume [angstrom^3]:                                           135.585116
 CELL| Vector a [angstrom]:       5.137     0.000     0.000   |a| =     5.137329
 CELL| Vector b [angstrom]:      -0.000     5.137     0.000   |b| =     5.137329
 CELL| Vector c [angstrom]:       0.000     0.000     5.137   |c| =     5.137329
 CELL| Angle (b,c), alpha [degree]:                                    89.999995
 CELL| Angle (a,c), beta  [degree]:                                    90.000000
 CELL| Angle (a,b), gamma [degree]:                                    90.000005
 CELL| Numerically orthorhombic:                                              NO
 CELL| Periodicity                                                           XYZ

 Extrapolation method: ASPC

 Number of electrons:                                                         32
 Number of occupied orbitals:                                                 16
 Number of molecular orbitals:                                                28

 Number of orbital functions:                                                 28
 Number of independent orbital functions:                                     28


 SCF WAVEFUNCTION OPTIMIZATION

  Step     Update method      Time    Convergence         Total energy    Change
  ------------------------------------------------------------------------------
     1 TBLite/Diag 0.40E+00    0.0     0.00177058       -17.7341507224 -1.77E+01
     2 TBLite/Diag 0.40E+00    0.0     0.00001895       -17.7341507306 -8.28E-09
     3 TBLite/Diag 0.40E+00    0.0     0.00002193       -17.7341507333 -2.65E-09
     4 TBLite/Diag 0.40E+00    0.0     0.00000560       -17.7341507335 -1.64E-10
     5 TBLite/Diag 0.40E+00    0.0     0.00000043       -17.7341507335 -1.23E-12
     6 TBLite/Diag 0.40E+00    0.0     0.00000002       -17.7341507335  2.13E-14
     7 TBLite/Diag 0.40E+00    0.0     0.00000002       -17.7341507335 -2.49E-14
     8 TBLite/Diag 0.40E+00    0.0     3.2203E-10       -17.7341507335  2.13E-14

  *** SCF run converged in     8 steps ***


  Core Hamiltonian energy:                                    -18.00649623609114
  Repulsive potential energy:                                   0.21844345850087
  Electrostatic energy:                                         0.07202748629739
  Self-consistent dispersion energy:                           -0.02219807328514
  Non-self consistent dispersion energy:                        0.00407263111403
  Correction for halogen bonding:                               0.00000000000000
  Electronic entropic energy:                                  -0.00000000000000
  Fermi energy:                                                -0.11412585404101

  Total energy:                                               -17.73415073346399
  Total energy (extrapolated to T->0):                        -17.73415073346399

 ENERGY| Total FORCE_EVAL ( QS ) energy [hartree]            -17.734150733463995

 OPT| **************************************************************************
 OPT| Step number                                                              3
 OPT| Optimization method                                                   BFGS
 OPT| Total energy [hartree]                                      -17.7341507335
 OPT| Internal pressure [bar]                                  -11406.3556990830
 OPT| Effective energy change [hartree]                            -0.0000729676
 OPT| Predicted energy change [hartree]                            -0.0000420743
 OPT| Scaling factor                                                0.0000000000
 OPT| Step size                                                     0.0030471983
 OPT| Trust radius                                                  0.4724315332
 OPT| Decrease in energy                                                     YES
 OPT| Used time [s]                                                        0.937
 OPT|
 OPT| Maximum step size                                             0.0030471983
 OPT| Convergence limit for maximum step size                       0.0030000000
 OPT| Maximum step size is converged                                          NO
 OPT|
 OPT| RMS step size                                                 0.0015417895
 OPT| Convergence limit for RMS step size                           0.0015000000
 OPT| RMS step size is converged                                              NO
 OPT|
 OPT| Maximum gradient                                              0.0036539441
 OPT| Convergence limit for maximum gradient                        0.0004500000
 OPT| Maximum gradient is converged                                           NO
 OPT|
 OPT| RMS gradient                                                  0.0010561308
 OPT| Convergence limit for RMS gradient                            0.0003000000
 OPT| RMS gradient is converged                                               NO
 OPT|
 OPT| Pressure deviation [bar]                                 -11406.3556990830
 OPT| Pressure tolerance [bar]                                    100.0000000000
 OPT| Pressure is converged                                                   NO
 OPT| **************************************************************************
 OPT| Estimated peak process memory after this step [MiB]                    162

 --------------------------
 OPTIMIZATION STEP:      4
 --------------------------

 CELL| Volume [angstrom^3]:                                           134.728875
 CELL| Vector a [angstrom]:       5.126     0.000     0.000   |a| =     5.126491
 CELL| Vector b [angstrom]:      -0.000     5.126     0.000   |b| =     5.126491
 CELL| Vector c [angstrom]:       0.000     0.000     5.126   |c| =     5.126491
 CELL| Angle (b,c), alpha [degree]:                                    89.999988
 CELL| Angle (a,c), beta  [degree]:                                    89.999999
 CELL| Angle (a,b), gamma [degree]:                                    90.000012
 CELL| Numerically orthorhombic:                                              NO
 CELL| Periodicity                                                           XYZ

 Extrapolation method: ASPC

 Number of electrons:                                                         32
 Number of occupied orbitals:                                                 16
 Number of molecular orbitals:                                                28

 Number of orbital functions:                                                 28
 Number of independent orbital functions:                                     28


 SCF WAVEFUNCTION OPTIMIZATION

  Step     Update method      Time    Convergence         Total energy    Change
  ------------------------------------------------------------------------------
     1 TBLite/Diag 0.40E+00    0.0     0.00297167       -17.7344356649 -1.77E+01
     2 TBLite/Diag 0.40E+00    0.0     0.00040336       -17.7344371650 -1.50E-06
     3 TBLite/Diag 0.40E+00    0.0     0.00017072       -17.7344372708 -1.06E-07
     4 TBLite/Diag 0.40E+00    0.0     0.00004504       -17.7344372844 -1.36E-08
     5 TBLite/Diag 0.40E+00    0.0     0.00000153       -17.7344372844 -1.63E-11
     6 TBLite/Diag 0.40E+00    0.0     0.00000007       -17.7344372844 -5.68E-14
     7 TBLite/Diag 0.40E+00    0.0     0.00000009       -17.7344372844 -3.55E-15
     8 TBLite/Diag 0.40E+00    0.0     2.2765E-09       -17.7344372844 -1.07E-14
     9 TBLite/Diag 0.40E+00    0.0     7.6364E-10       -17.7344372844 -3.55E-15

  *** SCF run converged in     9 steps ***


  Core Hamiltonian energy:                                    -18.00152692117324
  Repulsive potential energy:                                   0.21342849529516
  Electrostatic energy:                                         0.07188294896265
  Self-consistent dispersion energy:                           -0.02234690978305
  Non-self consistent dispersion energy:                        0.00412510225813
  Correction for halogen bonding:                               0.00000000000000
  Electronic entropic energy:                                  -0.00000000000000
  Fermi energy:                                                -0.11905077902218

  Total energy:                                               -17.73443728444035
  Total energy (extrapolated to T->0):                        -17.73443728444035

 ENERGY| Total FORCE_EVAL ( QS ) energy [hartree]            -17.734437284440354

 OPT| **************************************************************************
 OPT| Step number                                                              4
 OPT| Optimization method                                                   BFGS
 OPT| Total energy [hartree]                                      -17.7344372844
 OPT| Internal pressure [bar]                                  -17643.2919867449
 OPT| Effective energy change [hartree]                            -0.0002865510
 OPT| Predicted energy change [hartree]                            -0.0001874135
 OPT| Scaling factor                                                0.0000000000
 OPT| Step size                                                     0.0204793135
 OPT| Trust radius                                                  0.4724315332
 OPT| Decrease in energy                                                     YES
 OPT| Used time [s]                                                        0.942
 OPT|
 OPT| Maximum step size                                             0.0204793135
 OPT| Convergence limit for maximum step size                       0.0030000000
 OPT| Maximum step size is converged                                          NO
 OPT|
 OPT| RMS step size                                                 0.0075873154
 OPT| Convergence limit for RMS step size                           0.0015000000
 OPT| RMS step size is converged                                              NO
 OPT|
 OPT| Maximum gradient                                              0.0056280802
 OPT| Convergence limit for maximum gradient                        0.0004500000
 OPT| Maximum gradient is converged                                           NO
 OPT|
 OPT| RMS gradient                                                  0.0017905120
 OPT| Convergence limit for RMS gradient                            0.0003000000
 OPT| RMS gradient is converged                                               NO
 OPT|
 OPT| Pressure deviation [bar]                                 -17643.2919867449
 OPT| Pressure tolerance [bar]                                    100.0000000000
 OPT| Pressure is converged                                                   NO
 OPT| **************************************************************************
 OPT| Estimated peak process memory after this step [MiB]                    162

 --------------------------
 OPTIMIZATION STEP:      5
 --------------------------

 CELL| Volume [angstrom^3]:                                           132.808291
 CELL| Vector a [angstrom]:       5.102     0.000     0.000   |a| =     5.102015
 CELL| Vector b [angstrom]:      -0.000     5.102     0.000   |b| =     5.102015
 CELL| Vector c [angstrom]:       0.000     0.000     5.102   |c| =     5.102015
 CELL| Angle (b,c), alpha [degree]:                                    89.999973
 CELL| Angle (a,c), beta  [degree]:                                    89.999999
 CELL| Angle (a,b), gamma [degree]:                                    90.000025
 CELL| Numerically orthorhombic:                                              NO
 CELL| Periodicity                                                           XYZ

 Extrapolation method: ASPC

 Number of electrons:                                                         32
 Number of occupied orbitals:                                                 16
 Number of molecular orbitals:                                                28

 Number of orbital functions:                                                 28
 Number of independent orbital functions:                                     28


 SCF WAVEFUNCTION OPTIMIZATION

  Step     Update method      Time    Convergence         Total energy    Change
  ------------------------------------------------------------------------------
     1 TBLite/Diag 0.40E+00    0.0     0.00732695       -17.7348989850 -1.77E+01
     2 TBLite/Diag 0.40E+00    0.0     0.00112230       -17.7349102933 -1.13E-05
     3 TBLite/Diag 0.40E+00    0.0     0.00039747       -17.7349110205 -7.27E-07
     4 TBLite/Diag 0.40E+00    0.0     0.00004915       -17.7349110433 -2.27E-08
     5 TBLite/Diag 0.40E+00    0.0     0.00000227       -17.7349110433 -3.93E-11
     6 TBLite/Diag 0.40E+00    0.0     0.00000046       -17.7349110433 -2.22E-12
     7 TBLite/Diag 0.40E+00    0.0     0.00000013       -17.7349110433 -1.78E-14
     8 TBLite/Diag 0.40E+00    0.0     4.6672E-09       -17.7349110433 -1.78E-14
     9 TBLite/Diag 0.40E+00    0.0     1.6337E-09       -17.7349110433  1.07E-14
    10 TBLite/Diag 0.40E+00    0.0     1.5686E-10       -17.7349110433  0.00E+00

  *** SCF run converged in    10 steps ***


  Core Hamiltonian energy:                                    -17.99723218639524
  Repulsive potential energy:                                   0.20912418890412
  Electrostatic energy:                                         0.07163543548500
  Self-consistent dispersion energy:                           -0.02268609518337
  Non-self consistent dispersion energy:                        0.00424761389778
  Correction for halogen bonding:                               0.00000000000000
  Electronic entropic energy:                                  -0.00000000000000
  Fermi energy:                                                -0.12563706969325

  Total energy:                                               -17.73491104329171
  Total energy (extrapolated to T->0):                        -17.73491104329171

 ENERGY| Total FORCE_EVAL ( QS ) energy [hartree]            -17.734911043291707

 OPT| **************************************************************************
 OPT| Step number                                                              5
 OPT| Optimization method                                                   BFGS
 OPT| Total energy [hartree]                                      -17.7349110433
 OPT| Internal pressure [bar]                                  -24343.3637827527
 OPT| Effective energy change [hartree]                            -0.0004737589
 OPT| Predicted energy change [hartree]                            -0.0003017658
 OPT| Scaling factor                                                0.0000000000
 OPT| Step size                                                     0.0462536222
 OPT| Trust radius                                                  0.4724315332
 OPT| Decrease in energy                                                     YES
 OPT| Used time [s]                                                        0.974
 OPT|
 OPT| Maximum step size                                             0.0462536222
 OPT| Convergence limit for maximum step size                       0.0030000000
 OPT| Maximum step size is converged                                          NO
 OPT|
 OPT| RMS step size                                                 0.0151162616
 OPT| Convergence limit for RMS step size                           0.0015000000
 OPT| RMS step size is converged                                              NO
 OPT|
 OPT| Maximum gradient                                              0.0076913796
 OPT| Convergence limit for maximum gradient                        0.0004500000
 OPT| Maximum gradient is converged                                           NO
 OPT|
 OPT| RMS gradient                                                  0.0028800193
 OPT| Convergence limit for RMS gradient                            0.0003000000
 OPT| RMS gradient is converged                                               NO
 OPT|
 OPT| Pressure deviation [bar]                                 -24343.3637827527
 OPT| Pressure tolerance [bar]                                    100.0000000000
 OPT| Pressure is converged                                                   NO
 OPT| **************************************************************************
 OPT| Estimated peak process memory after this step [MiB]                    162

 --------------------------
 OPTIMIZATION STEP:      6
 --------------------------

 CELL| Volume [angstrom^3]:                                           128.717649
 CELL| Vector a [angstrom]:       5.049     0.000     0.000   |a| =     5.049085
 CELL| Vector b [angstrom]:      -0.000     5.049     0.000   |b| =     5.049085
 CELL| Vector c [angstrom]:       0.000     0.000     5.049   |c| =     5.049085
 CELL| Angle (b,c), alpha [degree]:                                    89.999942
 CELL| Angle (a,c), beta  [degree]:                                    89.999997
 CELL| Angle (a,b), gamma [degree]:                                    90.000055
 CELL| Numerically orthorhombic:                                              NO
 CELL| Periodicity                                                           XYZ

 Extrapolation method: ASPC

 Number of electrons:                                                         32
 Number of occupied orbitals:                                                 16
 Number of molecular orbitals:                                                28

 Number of orbital functions:                                                 28
 Number of independent orbital functions:                                     28


 SCF WAVEFUNCTION OPTIMIZATION

  Step     Update method      Time    Convergence         Total energy    Change
  ------------------------------------------------------------------------------
     1 TBLite/Diag 0.40E+00    0.0     0.01556652       -17.7357045777 -1.77E+01
     2 TBLite/Diag 0.40E+00    0.0     0.00261439       -17.7357668307 -6.23E-05
     3 TBLite/Diag 0.40E+00    0.0     0.00093807       -17.7357710117 -4.18E-06
     4 TBLite/Diag 0.40E+00    0.0     0.00008093       -17.7357710707 -5.89E-08
     5 TBLite/Diag 0.40E+00    0.0     0.00000432       -17.7357710708 -9.97E-11
     6 TBLite/Diag 0.40E+00    0.0     0.00000199       -17.7357710708 -3.12E-11
     7 TBLite/Diag 0.40E+00    0.0     0.00000019       -17.7357710708 -3.91E-14
     8 TBLite/Diag 0.40E+00    0.0     0.00000001       -17.7357710708  2.13E-14
     9 TBLite/Diag 0.40E+00    0.0     2.5818E-09       -17.7357710708 -2.84E-14
    10 TBLite/Diag 0.40E+00    0.0     9.3398E-10       -17.7357710708  7.11E-15

  *** SCF run converged in    10 steps ***


  Core Hamiltonian energy:                                    -17.99483293818924
  Repulsive potential energy:                                   0.20678527059933
  Electrostatic energy:                                         0.07119223769714
  Self-consistent dispersion energy:                           -0.02343665227998
  Non-self consistent dispersion energy:                        0.00452101137784
  Correction for halogen bonding:                               0.00000000000000
  Electronic entropic energy:                                  -0.00000000000000
  Fermi energy:                                                -0.13478866722255

  Total energy:                                               -17.73577107079491
  Total energy (extrapolated to T->0):                        -17.73577107079491

 ENERGY| Total FORCE_EVAL ( QS ) energy [hartree]            -17.735771070794907

 OPT| **************************************************************************
 OPT| Step number                                                              6
 OPT| Optimization method                                                   BFGS
 OPT| Total energy [hartree]                                      -17.7357710708
 OPT| Internal pressure [bar]                                  -30541.1958609005
 OPT| Effective energy change [hartree]                            -0.0008600275
 OPT| Predicted energy change [hartree]                            -0.0005598743
 OPT| Scaling factor                                                0.0000000000
 OPT| Step size                                                     0.1000228385
 OPT| Trust radius                                                  0.4724315332
 OPT| Decrease in energy                                                     YES
 OPT| Used time [s]                                                        1.004
 OPT|
 OPT| Maximum step size                                             0.1000228385
 OPT| Convergence limit for maximum step size                       0.0030000000
 OPT| Maximum step size is converged                                          NO
 OPT|
 OPT| RMS step size                                                 0.0305356471
 OPT| Convergence limit for RMS step size                           0.0015000000
 OPT| RMS step size is converged                                              NO
 OPT|
 OPT| Maximum gradient                                              0.0094504330
 OPT| Convergence limit for maximum gradient                        0.0004500000
 OPT| Maximum gradient is converged                                           NO
 OPT|
 OPT| RMS gradient                                                  0.0039771847
 OPT| Convergence limit for RMS gradient                            0.0003000000
 OPT| RMS gradient is converged                                               NO
 OPT|
 OPT| Pressure deviation [bar]                                 -30541.1958609005
 OPT| Pressure tolerance [bar]                                    100.0000000000
 OPT| Pressure is converged                                                   NO
 OPT| **************************************************************************
 OPT| Estimated peak process memory after this step [MiB]                    162

 --------------------------
 OPTIMIZATION STEP:      7
 --------------------------

 CELL| Volume [angstrom^3]:                                           123.732108
 CELL| Vector a [angstrom]:       4.983     0.000     0.000   |a| =     4.983037
 CELL| Vector b [angstrom]:      -0.000     4.983     0.000   |b| =     4.983037
 CELL| Vector c [angstrom]:       0.000     0.000     4.983   |c| =     4.983037
 CELL| Angle (b,c), alpha [degree]:                                    89.999901
 CELL| Angle (a,c), beta  [degree]:                                    89.999995
 CELL| Angle (a,b), gamma [degree]:                                    90.000093
 CELL| Numerically orthorhombic:                                              NO
 CELL| Periodicity                                                           XYZ

 Extrapolation method: ASPC

 Number of electrons:                                                         32
 Number of occupied orbitals:                                                 16
 Number of molecular orbitals:                                                28

 Number of orbital functions:                                                 28
 Number of independent orbital functions:                                     28


 SCF WAVEFUNCTION OPTIMIZATION

  Step     Update method      Time    Convergence         Total energy    Change
  ------------------------------------------------------------------------------
     1 TBLite/Diag 0.40E+00    0.0     0.01807372       -17.7367210925 -1.77E+01
     2 TBLite/Diag 0.40E+00    0.0     0.00328312       -17.7368220822 -1.01E-04
     3 TBLite/Diag 0.40E+00    0.0     0.00125983       -17.7368296266 -7.54E-06
     4 TBLite/Diag 0.40E+00    0.0     0.00009495       -17.7368296827 -5.61E-08
     5 TBLite/Diag 0.40E+00    0.0     0.00000562       -17.7368296828 -1.46E-10
     6 TBLite/Diag 0.40E+00    0.0     0.00000172       -17.7368296828 -3.06E-11
     7 TBLite/Diag 0.40E+00    0.0     0.00000015       -17.7368296828 -1.78E-14
     8 TBLite/Diag 0.40E+00    0.0     0.00000003       -17.7368296828 -1.07E-14
     9 TBLite/Diag 0.40E+00    0.0     3.5319E-09       -17.7368296828  1.07E-14
    10 TBLite/Diag 0.40E+00    0.0     1.3246E-09       -17.7368296828  3.55E-15
    11 TBLite/Diag 0.40E+00    0.0     5.4373E-11       -17.7368296828 -3.55E-15

  *** SCF run converged in    11 steps ***


  Core Hamiltonian energy:                                    -17.99819184881083
  Repulsive potential energy:                                   0.21027500302134
  Electrostatic energy:                                         0.07060693609987
  Self-consistent dispersion energy:                           -0.02440963452257
  Non-self consistent dispersion energy:                        0.00488986137441
  Correction for halogen bonding:                               0.00000000000000
  Electronic entropic energy:                                  -0.00000000000000
  Fermi energy:                                                -0.14091736872661

  Total energy:                                               -17.73682968283778
  Total energy (extrapolated to T->0):                        -17.73682968283778

 ENERGY| Total FORCE_EVAL ( QS ) energy [hartree]            -17.736829682837779

 OPT| **************************************************************************
 OPT| Step number                                                              7
 OPT| Optimization method                                                   BFGS
 OPT| Total energy [hartree]                                      -17.7368296828
 OPT| Internal pressure [bar]                                  -28612.4693099385
 OPT| Effective energy change [hartree]                            -0.0010586120
 OPT| Predicted energy change [hartree]                            -0.0006509128
 OPT| Scaling factor                                                0.0000000000
 OPT| Step size                                                     0.1248125111
 OPT| Trust radius                                                  0.4724315332
 OPT| Decrease in energy                                                     YES
 OPT| Used time [s]                                                        1.077
 OPT|
 OPT| Maximum step size                                             0.1248125111
 OPT| Convergence limit for maximum step size                       0.0030000000
 OPT| Maximum step size is converged                                          NO
 OPT|
 OPT| RMS step size                                                 0.0358979062
 OPT| Convergence limit for RMS step size                           0.0015000000
 OPT| RMS step size is converged                                              NO
 OPT|
 OPT| Maximum gradient                                              0.0086235084
 OPT| Convergence limit for maximum gradient                        0.0004500000
 OPT| Maximum gradient is converged                                           NO
 OPT|
 OPT| RMS gradient                                                  0.0040517670
 OPT| Convergence limit for RMS gradient                            0.0003000000
 OPT| RMS gradient is converged                                               NO
 OPT|
 OPT| Pressure deviation [bar]                                 -28612.4693099385
 OPT| Pressure tolerance [bar]                                    100.0000000000
 OPT| Pressure is converged                                                   NO
 OPT| **************************************************************************
 OPT| Estimated peak process memory after this step [MiB]                    162

 --------------------------
 OPTIMIZATION STEP:      8
 --------------------------

 CELL| Volume [angstrom^3]:                                           119.487478
 CELL| Vector a [angstrom]:       4.925     0.000     0.000   |a| =     4.925392
 CELL| Vector b [angstrom]:      -0.000     4.925     0.000   |b| =     4.925392
 CELL| Vector c [angstrom]:       0.000     0.000     4.925   |c| =     4.925392
 CELL| Angle (b,c), alpha [degree]:                                    89.999862
 CELL| Angle (a,c), beta  [degree]:                                    89.999993
 CELL| Angle (a,b), gamma [degree]:                                    90.000130
 CELL| Numerically orthorhombic:                                              NO
 CELL| Periodicity                                                           XYZ

 Extrapolation method: ASPC

 Number of electrons:                                                         32
 Number of occupied orbitals:                                                 16
 Number of molecular orbitals:                                                28

 Number of orbital functions:                                                 28
 Number of independent orbital functions:                                     28


 SCF WAVEFUNCTION OPTIMIZATION

  Step     Update method      Time    Convergence         Total energy    Change
  ------------------------------------------------------------------------------
     1 TBLite/Diag 0.40E+00    0.0     0.01321968       -17.7377793597 -1.77E+01
     2 TBLite/Diag 0.40E+00    0.0     0.00259711       -17.7378443333 -6.50E-05
     3 TBLite/Diag 0.40E+00    0.0     0.00108730       -17.7378497214 -5.39E-06
     4 TBLite/Diag 0.40E+00    0.0     0.00009287       -17.7378497688 -4.74E-08
     5 TBLite/Diag 0.40E+00    0.0     0.00000415       -17.7378497689 -9.56E-11
     6 TBLite/Diag 0.40E+00    0.0     0.00000186       -17.7378497689 -4.13E-12
     7 TBLite/Diag 0.40E+00    0.0     0.00000005       -17.7378497689  7.11E-15
     8 TBLite/Diag 0.40E+00    0.0     0.00000002       -17.7378497689 -1.78E-14
     9 TBLite/Diag 0.40E+00    0.0     2.7404E-09       -17.7378497689  0.00E+00
    10 TBLite/Diag 0.40E+00    0.0     9.5172E-10       -17.7378497689  1.07E-14

  *** SCF run converged in    10 steps ***


  Core Hamiltonian energy:                                    -18.00735271574354
  Repulsive potential energy:                                   0.21974919108719
  Electrostatic energy:                                         0.06980377125191
  Self-consistent dispersion energy:                           -0.02529712656868
  Non-self consistent dispersion energy:                        0.00524711105257
  Correction for halogen bonding:                               0.00000000000000
  Electronic entropic energy:                                  -0.00000000000000
  Fermi energy:                                                -0.14075137395406

  Total energy:                                               -17.73784976892056
  Total energy (extrapolated to T->0):                        -17.73784976892056

 ENERGY| Total FORCE_EVAL ( QS ) energy [hartree]            -17.737849768920562

 OPT| **************************************************************************
 OPT| Step number                                                              8
 OPT| Optimization method                                                   BFGS
 OPT| Total energy [hartree]                                      -17.7378497689
 OPT| Internal pressure [bar]                                  -14212.9802567718
 OPT| Effective energy change [hartree]                            -0.0010200861
 OPT| Predicted energy change [hartree]                            -0.0006995562
 OPT| Scaling factor                                                0.0000000000
 OPT| Step size                                                     0.1089338747
 OPT| Trust radius                                                  0.4724315332
 OPT| Decrease in energy                                                     YES
 OPT| Used time [s]                                                        1.135
 OPT|
 OPT| Maximum step size                                             0.1089338747
 OPT| Convergence limit for maximum step size                       0.0030000000
 OPT| Maximum step size is converged                                          NO
 OPT|
 OPT| RMS step size                                                 0.0292218635
 OPT| Convergence limit for RMS step size                           0.0015000000
 OPT| RMS step size is converged                                              NO
 OPT|
 OPT| Maximum gradient                                              0.0045842708
 OPT| Convergence limit for maximum gradient                        0.0004500000
 OPT| Maximum gradient is converged                                           NO
 OPT|
 OPT| RMS gradient                                                  0.0030968261
 OPT| Convergence limit for RMS gradient                            0.0003000000
 OPT| RMS gradient is converged                                               NO
 OPT|
 OPT| Pressure deviation [bar]                                 -14212.9802567718
 OPT| Pressure tolerance [bar]                                    100.0000000000
 OPT| Pressure is converged                                                   NO
 OPT| **************************************************************************
 OPT| Estimated peak process memory after this step [MiB]                    162

 --------------------------
 OPTIMIZATION STEP:      9
 --------------------------

 CELL| Volume [angstrom^3]:                                           118.958850
 CELL| Vector a [angstrom]:       4.918     0.000     0.000   |a| =     4.918118
 CELL| Vector b [angstrom]:      -0.000     4.918     0.000   |b| =     4.918118
 CELL| Vector c [angstrom]:       0.000     0.000     4.918   |c| =     4.918118
 CELL| Angle (b,c), alpha [degree]:                                    89.999851
 CELL| Angle (a,c), beta  [degree]:                                    89.999992
 CELL| Angle (a,b), gamma [degree]:                                    90.000141
 CELL| Numerically orthorhombic:                                              NO
 CELL| Periodicity                                                           XYZ

 Extrapolation method: ASPC

 Number of electrons:                                                         32
 Number of occupied orbitals:                                                 16
 Number of molecular orbitals:                                                28

 Number of orbital functions:                                                 28
 Number of independent orbital functions:                                     28


 SCF WAVEFUNCTION OPTIMIZATION

  Step     Update method      Time    Convergence         Total energy    Change
  ------------------------------------------------------------------------------
     1 TBLite/Diag 0.40E+00    0.0     0.00580791       -17.7385667443 -1.77E+01
     2 TBLite/Diag 0.40E+00    0.0     0.00011999       -17.7385671526 -4.08E-07
     3 TBLite/Diag 0.40E+00    0.0     0.00017315       -17.7385673472 -1.95E-07
     4 TBLite/Diag 0.40E+00    0.0     0.00002021       -17.7385673491 -1.89E-09
     5 TBLite/Diag 0.40E+00    0.0     0.00000345       -17.7385673492 -1.02E-10
     6 TBLite/Diag 0.40E+00    0.0     0.00000040       -17.7385673492 -8.49E-13
     7 TBLite/Diag 0.40E+00    0.0     0.00000025       -17.7385673492 -6.39E-14
     8 TBLite/Diag 0.40E+00    0.0     9.8409E-09       -17.7385673492 -3.55E-15
     9 TBLite/Diag 0.40E+00    0.0     5.6625E-10       -17.7385673492  3.55E-15

  *** SCF run converged in     9 steps ***


  Core Hamiltonian energy:                                    -18.01565280751861
  Repulsive potential energy:                                   0.22794225673617
  Electrostatic energy:                                         0.06926186324780
  Self-consistent dispersion energy:                           -0.02541057853496
  Non-self consistent dispersion energy:                        0.00529191685897
  Correction for halogen bonding:                               0.00000000000000
  Electronic entropic energy:                                  -0.00000000000000
  Fermi energy:                                                -0.13461757520051

  Total energy:                                               -17.73856734921063
  Total energy (extrapolated to T->0):                        -17.73856734921063

 ENERGY| Total FORCE_EVAL ( QS ) energy [hartree]            -17.738567349210626

 OPT| **************************************************************************
 OPT| Step number                                                              9
 OPT| Optimization method                                                   BFGS
 OPT| Total energy [hartree]                                      -17.7385673492
 OPT| Internal pressure [bar]                                   -2185.7759350558
 OPT| Effective energy change [hartree]                            -0.0007175803
 OPT| Predicted energy change [hartree]                            -0.0005372342
 OPT| Scaling factor                                                0.0000000000
 OPT| Step size                                                     0.0137463646
 OPT| Trust radius                                                  0.4724315332
 OPT| Decrease in energy                                                     YES
 OPT| Used time [s]                                                        1.138
 OPT|
 OPT| Maximum step size                                             0.0137463646
 OPT| Convergence limit for maximum step size                       0.0030000000
 OPT| Maximum step size is converged                                          NO
 OPT|
 OPT| RMS step size                                                 0.0067914371
 OPT| Convergence limit for RMS step size                           0.0015000000
 OPT| RMS step size is converged                                              NO
 OPT|
 OPT| Maximum gradient                                              0.0046209372
 OPT| Convergence limit for maximum gradient                        0.0004500000
 OPT| Maximum gradient is converged                                           NO
 OPT|
 OPT| RMS gradient                                                  0.0026634833
 OPT| Convergence limit for RMS gradient                            0.0003000000
 OPT| RMS gradient is converged                                               NO
 OPT|
 OPT| Pressure deviation [bar]                                  -2185.7759350558
 OPT| Pressure tolerance [bar]                                    100.0000000000
 OPT| Pressure is converged                                                   NO
 OPT| **************************************************************************
 OPT| Estimated peak process memory after this step [MiB]                    162

 --------------------------
 OPTIMIZATION STEP:     10
 --------------------------

 CELL| Volume [angstrom^3]:                                           118.373066
 CELL| Vector a [angstrom]:       4.910     0.000     0.000   |a| =     4.910032
 CELL| Vector b [angstrom]:      -0.000     4.910     0.000   |b| =     4.910032
 CELL| Vector c [angstrom]:       0.000     0.000     4.910   |c| =     4.910032
 CELL| Angle (b,c), alpha [degree]:                                    89.999834
 CELL| Angle (a,c), beta  [degree]:                                    89.999991
 CELL| Angle (a,b), gamma [degree]:                                    90.000157
 CELL| Numerically orthorhombic:                                              NO
 CELL| Periodicity                                                           XYZ

 Extrapolation method: ASPC

 Number of electrons:                                                         32
 Number of occupied orbitals:                                                 16
 Number of molecular orbitals:                                                28

 Number of orbital functions:                                                 28
 Number of independent orbital functions:                                     28


 SCF WAVEFUNCTION OPTIMIZATION

  Step     Update method      Time    Convergence         Total energy    Change
  ------------------------------------------------------------------------------
     1 TBLite/Diag 0.40E+00    0.0     0.01479501       -17.7391129859 -1.77E+01
     2 TBLite/Diag 0.40E+00    0.0     0.00034857       -17.7391145870 -1.60E-06
     3 TBLite/Diag 0.40E+00    0.0     0.00021725       -17.7391148865 -3.00E-07
     4 TBLite/Diag 0.40E+00    0.0     0.00007913       -17.7391149210 -3.45E-08
     5 TBLite/Diag 0.40E+00    0.0     0.00000410       -17.7391149211 -1.46E-10
     6 TBLite/Diag 0.40E+00    0.0     0.00000034       -17.7391149211 -1.29E-12
     7 TBLite/Diag 0.40E+00    0.0     0.00000025       -17.7391149211 -8.17E-14
     8 TBLite/Diag 0.40E+00    0.0     6.1806E-09       -17.7391149211  7.11E-15
     9 TBLite/Diag 0.40E+00    0.0     1.2293E-09       -17.7391149211 -2.13E-14
    10 TBLite/Diag 0.40E+00    0.0     5.5857E-11       -17.7391149211  7.11E-15

  *** SCF run converged in    10 steps ***


  Core Hamiltonian energy:                                    -18.01833538377702
  Repulsive potential energy:                                   0.23074389843667
  Electrostatic energy:                                         0.06866107950401
  Self-consistent dispersion energy:                           -0.02553530928711
  Non-self consistent dispersion energy:                        0.00535079400621
  Correction for halogen bonding:                               0.00000000000000
  Electronic entropic energy:                                  -0.00000000000000
  Fermi energy:                                                -0.13060950580726

  Total energy:                                               -17.73911492111725
  Total energy (extrapolated to T->0):                        -17.73911492111725

 ENERGY| Total FORCE_EVAL ( QS ) energy [hartree]            -17.739114921117245

 OPT| **************************************************************************
 OPT| Step number                                                             10
 OPT| Optimization method                                                   BFGS
 OPT| Total energy [hartree]                                      -17.7391149211
 OPT| Internal pressure [bar]                                    4761.0732448611
 OPT| Effective energy change [hartree]                            -0.0005475719
 OPT| Predicted energy change [hartree]                            -0.0004253777
 OPT| Scaling factor                                                0.0000000000
 OPT| Step size                                                     0.0152803164
 OPT| Trust radius                                                  0.4724315332
 OPT| Decrease in energy                                                     YES
 OPT| Used time [s]                                                        1.152
 OPT|
 OPT| Maximum step size                                             0.0152803164
 OPT| Convergence limit for maximum step size                       0.0030000000
 OPT| Maximum step size is converged                                          NO
 OPT|
 OPT| RMS step size                                                 0.0079884769
 OPT| Convergence limit for RMS step size                           0.0015000000
 OPT| RMS step size is converged                                              NO
 OPT|
 OPT| Maximum gradient                                              0.0036977637
 OPT| Convergence limit for maximum gradient                        0.0004500000
 OPT| Maximum gradient is converged                                           NO
 OPT|
 OPT| RMS gradient                                                  0.0024947790
 OPT| Convergence limit for RMS gradient                            0.0003000000
 OPT| RMS gradient is converged                                               NO
 OPT|
 OPT| Pressure deviation [bar]                                   4761.0732448611
 OPT| Pressure tolerance [bar]                                    100.0000000000
 OPT| Pressure is converged                                                   NO
 OPT| **************************************************************************
 OPT| Estimated peak process memory after this step [MiB]                    162

 --------------------------
 OPTIMIZATION STEP:     11
 --------------------------

 CELL| Volume [angstrom^3]:                                           117.676613
 CELL| Vector a [angstrom]:       4.900     0.000     0.000   |a| =     4.900383
 CELL| Vector b [angstrom]:      -0.000     4.900     0.000   |b| =     4.900383
 CELL| Vector c [angstrom]:       0.000     0.000     4.900   |c| =     4.900383
 CELL| Angle (b,c), alpha [degree]:                                    89.999812
 CELL| Angle (a,c), beta  [degree]:                                    89.999990
 CELL| Angle (a,b), gamma [degree]:                                    90.000178
 CELL| Numerically orthorhombic:                                              NO
 CELL| Periodicity                                                           XYZ

 Extrapolation method: ASPC

 Number of electrons:                                                         32
 Number of occupied orbitals:                                                 16
 Number of molecular orbitals:                                                28

 Number of orbital functions:                                                 28
 Number of independent orbital functions:                                     28


 SCF WAVEFUNCTION OPTIMIZATION

  Step     Update method      Time    Convergence         Total energy    Change
  ------------------------------------------------------------------------------
     1 TBLite/Diag 0.40E+00    0.0     0.02094310       -17.7394495762 -1.77E+01
     2 TBLite/Diag 0.40E+00    0.0     0.00038986       -17.7394512589 -1.68E-06
     3 TBLite/Diag 0.40E+00    0.0     0.00023921       -17.7394514862 -2.27E-07
     4 TBLite/Diag 0.40E+00    0.0     0.00008330       -17.7394515238 -3.76E-08
     5 TBLite/Diag 0.40E+00    0.0     0.00000372       -17.7394515239 -1.28E-10
     6 TBLite/Diag 0.40E+00    0.0     0.00000054       -17.7394515239 -2.61E-12
     7 TBLite/Diag 0.40E+00    0.0     0.00000019       -17.7394515239 -1.78E-14
     8 TBLite/Diag 0.40E+00    0.0     2.6253E-09       -17.7394515239 -1.42E-14
     9 TBLite/Diag 0.40E+00    0.0     1.3908E-09       -17.7394515239  1.07E-14
    10 TBLite/Diag 0.40E+00    0.0     1.6728E-10       -17.7394515239 -3.55E-15

  *** SCF run converged in    10 steps ***


  Core Hamiltonian energy:                                    -18.01459953730215
  Repulsive potential energy:                                   0.22725423834544
  Electrostatic energy:                                         0.06816053601390
  Self-consistent dispersion energy:                           -0.02568458754638
  Non-self consistent dispersion energy:                        0.00541782659451
  Correction for halogen bonding:                               0.00000000000000
  Electronic entropic energy:                                  -0.00000000000000
  Fermi energy:                                                -0.13031811427993

  Total energy:                                               -17.73945152389468
  Total energy (extrapolated to T->0):                        -17.73945152389468

 ENERGY| Total FORCE_EVAL ( QS ) energy [hartree]            -17.739451523894683

 OPT| **************************************************************************
 OPT| Step number                                                             11
 OPT| Optimization method                                                   BFGS
 OPT| Total energy [hartree]                                      -17.7394515239
 OPT| Internal pressure [bar]                                    5119.7728278585
 OPT| Effective energy change [hartree]                            -0.0003366028
 OPT| Predicted energy change [hartree]                            -0.0003036970
 OPT| Scaling factor                                                0.0000000000
 OPT| Step size                                                     0.0182328575
 OPT| Trust radius                                                  0.4724315332
 OPT| Decrease in energy                                                     YES
 OPT| Used time [s]                                                        1.158
 OPT|
 OPT| Maximum step size                                             0.0182328575
 OPT| Convergence limit for maximum step size                       0.0030000000
 OPT| Maximum step size is converged                                          NO
 OPT|
 OPT| RMS step size                                                 0.0079894621
 OPT| Convergence limit for RMS step size                           0.0015000000
 OPT| RMS step size is converged                                              NO
 OPT|
 OPT| Maximum gradient                                              0.0023270913
 OPT| Convergence limit for maximum gradient                        0.0004500000
 OPT| Maximum gradient is converged                                           NO
 OPT|
 OPT| RMS gradient                                                  0.0014229257
 OPT| Convergence limit for RMS gradient                            0.0003000000
 OPT| RMS gradient is converged                                               NO
 OPT|
 OPT| Pressure deviation [bar]                                   5119.7728278585
 OPT| Pressure tolerance [bar]                                    100.0000000000
 OPT| Pressure is converged                                                   NO
 OPT| **************************************************************************
 OPT| Estimated peak process memory after this step [MiB]                    162

 --------------------------
 OPTIMIZATION STEP:     12
 --------------------------

 CELL| Volume [angstrom^3]:                                           117.762589
 CELL| Vector a [angstrom]:       4.902     0.000     0.000   |a| =     4.901576
 CELL| Vector b [angstrom]:      -0.000     4.902     0.000   |b| =     4.901576
 CELL| Vector c [angstrom]:       0.000     0.000     4.902   |c| =     4.901576
 CELL| Angle (b,c), alpha [degree]:                                    89.999804
 CELL| Angle (a,c), beta  [degree]:                                    89.999990
 CELL| Angle (a,b), gamma [degree]:                                    90.000186
 CELL| Numerically orthorhombic:                                              NO
 CELL| Periodicity                                                           XYZ

 Extrapolation method: ASPC

 Number of electrons:                                                         32
 Number of occupied orbitals:                                                 16
 Number of molecular orbitals:                                                28

 Number of orbital functions:                                                 28
 Number of independent orbital functions:                                     28


 SCF WAVEFUNCTION OPTIMIZATION

  Step     Update method      Time    Convergence         Total energy    Change
  ------------------------------------------------------------------------------
     1 TBLite/Diag 0.40E+00    0.0     0.00878489       -17.7395240719 -1.77E+01
     2 TBLite/Diag 0.40E+00    0.0     0.00029418       -17.7395248864 -8.14E-07
     3 TBLite/Diag 0.40E+00    0.0     0.00015845       -17.7395249469 -6.05E-08
     4 TBLite/Diag 0.40E+00    0.0     0.00004407       -17.7395249576 -1.06E-08
     5 TBLite/Diag 0.40E+00    0.0     0.00000094       -17.7395249576 -5.21E-12
     6 TBLite/Diag 0.40E+00    0.0     0.00000020       -17.7395249576 -2.52E-13
     7 TBLite/Diag 0.40E+00    0.0     4.5344E-09       -17.7395249576 -3.55E-15
     8 TBLite/Diag 0.40E+00    0.0     7.9814E-10       -17.7395249576  7.11E-15

  *** SCF run converged in     8 steps ***


  Core Hamiltonian energy:                                    -18.01028583737603
  Repulsive potential energy:                                   0.22289860604014
  Electrostatic energy:                                         0.06811627299922
  Self-consistent dispersion energy:                           -0.02566372169049
  Non-self consistent dispersion energy:                        0.00540972245808
  Correction for halogen bonding:                               0.00000000000000
  Electronic entropic energy:                                  -0.00000000000000
  Fermi energy:                                                -0.13195469596319

  Total energy:                                               -17.73952495756909
  Total energy (extrapolated to T->0):                        -17.73952495756909

 ENERGY| Total FORCE_EVAL ( QS ) energy [hartree]            -17.739524957569092

 OPT| **************************************************************************
 OPT| Step number                                                             12
 OPT| Optimization method                                                   BFGS
 OPT| Total energy [hartree]                                      -17.7395249576
 OPT| Internal pressure [bar]                                     364.8493866646
 OPT| Effective energy change [hartree]                            -0.0000734337
 OPT| Predicted energy change [hartree]                            -0.0000681505
 OPT| Scaling factor                                                0.0000000000
 OPT| Step size                                                     0.0030107972
 OPT| Trust radius                                                  0.4724315332
 OPT| Decrease in energy                                                     YES
 OPT| Used time [s]                                                        1.154
 OPT|
 OPT| Maximum step size                                             0.0030107972
 OPT| Convergence limit for maximum step size                       0.0030000000
 OPT| Maximum step size is converged                                          NO
 OPT|
[...]
 OPT| Convergence limit for maximum gradient                        0.0004500000
 OPT| Maximum gradient is converged                                          YES
 OPT|
 OPT| RMS gradient                                                  0.0000389575
 OPT| Convergence limit for RMS gradient                            0.0003000000
 OPT| RMS gradient is converged                                              YES
 OPT|
 OPT| Pressure deviation [bar]                                    320.7215464663
 OPT| Pressure tolerance [bar]                                    100.0000000000
 OPT| Pressure is converged                                                   NO
 OPT| **************************************************************************
 OPT| Estimated peak process memory after this step [MiB]                    162

 --------------------------
 OPTIMIZATION STEP:     29
 --------------------------

 CELL| Volume [angstrom^3]:                                           116.826787
 CELL| Vector a [angstrom]:       4.889     0.000     0.000   |a| =     4.888559
 CELL| Vector b [angstrom]:      -0.000     4.889     0.000   |b| =     4.888559
 CELL| Vector c [angstrom]:       0.000     0.000     4.889   |c| =     4.888558
 CELL| Angle (b,c), alpha [degree]:                                    89.996967
 CELL| Angle (a,c), beta  [degree]:                                    89.999840
 CELL| Angle (a,b), gamma [degree]:                                    90.002872
 CELL| Numerically orthorhombic:                                              NO
 CELL| Periodicity                                                           XYZ

 Extrapolation method: ASPC

 Number of electrons:                                                         32
 Number of occupied orbitals:                                                 16
 Number of molecular orbitals:                                                28

 Number of orbital functions:                                                 28
 Number of independent orbital functions:                                     28


 SCF WAVEFUNCTION OPTIMIZATION

  Step     Update method      Time    Convergence         Total energy    Change
  ------------------------------------------------------------------------------
     1 TBLite/Diag 0.40E+00    0.0     0.00165535       -17.7403344948 -1.77E+01
     2 TBLite/Diag 0.40E+00    0.0     0.00001834       -17.7403344975 -2.72E-09
     3 TBLite/Diag 0.40E+00    0.0     0.00001245       -17.7403344977 -1.84E-10
     4 TBLite/Diag 0.40E+00    0.0     0.00000474       -17.7403344978 -1.03E-10
     5 TBLite/Diag 0.40E+00    0.0     0.00000014       -17.7403344978 -1.78E-14
     6 TBLite/Diag 0.40E+00    0.0     0.00000004       -17.7403344978 -2.49E-14
     7 TBLite/Diag 0.40E+00    0.0     2.9535E-09       -17.7403344978  3.55E-15
     8 TBLite/Diag 0.40E+00    0.0     1.3590E-09       -17.7403344978  1.78E-14
     9 TBLite/Diag 0.40E+00    0.0     2.0030E-10       -17.7403344978 -1.07E-14

  *** SCF run converged in     9 steps ***


  Core Hamiltonian energy:                                    -18.01145395563910
  Repulsive potential energy:                                   0.22252696681834
  Electrostatic energy:                                         0.06910287205969
  Self-consistent dispersion energy:                           -0.02599495744184
  Non-self consistent dispersion energy:                        0.00548457638984
  Correction for halogen bonding:                               0.00000000000000
  Electronic entropic energy:                                  -0.00000000000000
  Fermi energy:                                                -0.13477434806693

  Total energy:                                               -17.74033449781308
  Total energy (extrapolated to T->0):                        -17.74033449781308

 ENERGY| Total FORCE_EVAL ( QS ) energy [hartree]            -17.740334497813077

 OPT| **************************************************************************
 OPT| Step number                                                             29
 OPT| Optimization method                                                   BFGS
 OPT| Total energy [hartree]                                      -17.7403344978
 OPT| Internal pressure [bar]                                      57.3303712534
 OPT| Effective energy change [hartree]                            -0.0000004314
 OPT| Predicted energy change [hartree]                            -0.0000004060
 OPT| Scaling factor                                                0.0000000000
 OPT| Step size                                                     0.0022693557
 OPT| Trust radius                                                  0.4724315332
 OPT| Decrease in energy                                                     YES
 OPT| Used time [s]                                                        0.614
 OPT|
 OPT| Maximum step size                                             0.0022693557
 OPT| Convergence limit for maximum step size                       0.0030000000
 OPT| Maximum step size is converged                                         YES
 OPT|
 OPT| RMS step size                                                 0.0013372377
 OPT| Convergence limit for RMS step size                           0.0015000000
 OPT| RMS step size is converged                                             YES
 OPT|
 OPT| Maximum gradient                                              0.0000242118
 OPT| Convergence limit for maximum gradient                        0.0004500000
 OPT| Maximum gradient is converged                                          YES
 OPT|
 OPT| RMS gradient                                                  0.0000123590
 OPT| Convergence limit for RMS gradient                            0.0003000000
 OPT| RMS gradient is converged                                              YES
 OPT|
 OPT| Pressure deviation [bar]                                     57.3303712534
 OPT| Pressure tolerance [bar]                                    100.0000000000
 OPT| Pressure is converged                                                  YES
 OPT| **************************************************************************
 OPT| Estimated peak process memory after this step [MiB]                    162

 *******************************************************************************
 ***                    GEOMETRY OPTIMIZATION COMPLETED                      ***
 *******************************************************************************

 write_final_structure: Optimization converged, writing XYZ file gladly:
  ammonia_GFN2_gamma_cell_opt-FINAL-1_29.xyz

 write_final_structure: Optimization converged, writing CIF file gladly:
  ammonia_GFN2_gamma_cell_opt-FINAL-1_29.cif

 write_final_structure: Done!

                    Reevaluating energy at the minimum

 CELL| Volume [angstrom^3]:                                           116.826787
 CELL| Vector a [angstrom]:       4.889     0.000     0.000   |a| =     4.888559
 CELL| Vector b [angstrom]:      -0.000     4.889     0.000   |b| =     4.888559
 CELL| Vector c [angstrom]:       0.000     0.000     4.889   |c| =     4.888558
 CELL| Angle (b,c), alpha [degree]:                                    89.996967
 CELL| Angle (a,c), beta  [degree]:                                    89.999840
 CELL| Angle (a,b), gamma [degree]:                                    90.002872
 CELL| Numerically orthorhombic:                                              NO
 CELL| Periodicity                                                           XYZ

 Extrapolation method: ASPC

 Number of electrons:                                                         32
 Number of occupied orbitals:                                                 16
 Number of molecular orbitals:                                                28

 Number of orbital functions:                                                 28
 Number of independent orbital functions:                                     28


 SCF WAVEFUNCTION OPTIMIZATION

  Step     Update method      Time    Convergence         Total energy    Change
  ------------------------------------------------------------------------------
     1 TBLite/Diag 0.40E+00    0.0     3.7121E-11       -17.7403344978 -1.77E+01

  *** SCF run converged in     1 steps ***


  Core Hamiltonian energy:                                    -18.01145395563878
  Repulsive potential energy:                                   0.22252696681834
  Electrostatic energy:                                         0.06910287205938
  Self-consistent dispersion energy:                           -0.02599495744184
  Non-self consistent dispersion energy:                        0.00548457638984
  Correction for halogen bonding:                               0.00000000000000
  Electronic entropic energy:                                  -0.00000000000000
  Fermi energy:                                                -0.13477434806637

  Total energy:                                               -17.74033449781307
  Total energy (extrapolated to T->0):                        -17.74033449781307

 ENERGY| Total FORCE_EVAL ( QS ) energy [hartree]            -17.740334497813066

 -------------------------------------------------------------------------------
 -                                                                             -
 -                                DBCSR STATISTICS                             -
 -                                                                             -
 -------------------------------------------------------------------------------
 COUNTER                                    TOTAL       BLAS       SMM       ACC
 flops     1 x    28 x     1              1128960       0.0%    100.0%      0.0%     
 flops     1 x     1 x    28              1472016       0.0%    100.0%      0.0%     
 flops     4 x    28 x     1              1505280       0.0%    100.0%      0.0%     
 flops     1 x    28 x     4              1505280       0.0%    100.0%      0.0%     
 flops     4 x     1 x    28              1811712       0.0%    100.0%      0.0%     
 flops     1 x     4 x    28              1811712       0.0%    100.0%      0.0%     
 flops     4 x    28 x     4              2007040       0.0%    100.0%      0.0%     
 flops     4 x     4 x    28              3019520       0.0%    100.0%      0.0%     
 flops inhomo. stacks                           0       0.0%      0.0%      0.0%
 flops total                        14.261520E+06       0.0%    100.0%      0.0%
 flops max/rank                     14.261520E+06       0.0%    100.0%      0.0%
 matmuls inhomo. stacks                         0       0.0%      0.0%      0.0%
 matmuls total                              81672       0.0%    100.0%      0.0%
 number of processed stacks                  1908       0.0%    100.0%      0.0%
 average stack size                                     0.0      42.8       0.0
 marketing flops                    14.601216E+06
 -------------------------------------------------------------------------------
 # multiplications                            477
 max memory usage/rank              13.669290E+09
 # max total images/rank                        1
 # max 3D layers                                1
 # MPI messages exchanged                       0
 -------------------------------------------------------------------------------
 -                                                                             -
 -                      DBCSR MESSAGE PASSING PERFORMANCE                      -
 -                                                                             -
 -------------------------------------------------------------------------------
 ROUTINE             CALLS      AVE VOLUME [Bytes]
 MP_Bcast                9                     12.
 MP_Allreduce         2140                      8.
 MP_Alltoall         14980                   5097.
 MP_ISend             1908                   1024.
 MP_IRecv             1908                   1024.
 -------------------------------------------------------------------------------

 -------------------------------------------------------------------------------
 -                                                                             -
 -                          OFFLOAD MEMPOOL STATISTICS                         -
 -                                                                             -
 -------------------------------------------------------------------------------
 Memory consumption                Number of allocations  Used [MiB]  Size [MiB]
 Device                                                1           0           0
 Host                                                  1           0           0
 -------------------------------------------------------------------------------

 MEMORY| Estimated peak process memory [MiB]                                 162

 -------------------------------------------------------------------------------
 -                                                                             -
 -                         MESSAGE PASSING PERFORMANCE                         -
 -                                                                             -
 -------------------------------------------------------------------------------

 ROUTINE             CALLS      AVE VOLUME [Bytes]
 MP_Group               30
 MP_Bcast              672                    123.
 MP_Allreduce        10330                    129.
 MP_Sync               366
 MP_comm_split         336
 -------------------------------------------------------------------------------


 -------------------------------------------------------------------------------
 -                                                                             -
 -                           R E F E R E N C E S                               -
 -                                                                             -
 -------------------------------------------------------------------------------
 
 CP2K version 2026.1 (Development Version), the CP2K developers group (2026).
 CP2K is freely available from https://www.cp2k.org/ .
 
 M. Iannuzzi, J. Wilhelm, F. Stein, A. Bussy, H. Elgabarty, D. Golze, A. Hehn, 
 M. Graml, S. Marek, B. Sertcan Gökmen, C. Schran, H. Forbert, R. Z. 
 Khaliullin, A. Kozhevnikov, M. Taillefumier, R. Meli, V. V. Rybkin, M. Brehm, 
 R. Schade, O. Schütt, J. V. Pototschnig, H. Mirhosseini, A. Knüpfer, D. Marx, 
 M. Krack, J. Hutter, T. D. Kühne.
 J. Phys. Chem. B 130, 1237-1310 (2026).
 The CP2K Program Package Made Simple.
 https://doi.org/10.1021/acs.jpcb.5c05851

 A. Katbashev, M. Stahn, T. Rose, V. Alizadeh, M. Friede, C. Plett, P. 
 Steinbach, S. Ehlert.
 J. Phys. Chem. A 129, 2667-2682 (2025).
 Overview on Building Blocks and Applications of Efficient and Robust Extended 
 Tight Binding.
 https://doi.org/10.1021/acs.jpca.4c08263

 T. D. Kühne, M. Iannuzzi, M. Del Ben, V. V. Rybkin, P. Seewald, F. Stein, T. 
 Laino, R. Z. Khaliullin, O. Schütt, F. Schiffmann, D. Golze, J. Wilhelm, S. 
 Chulkov, M. H. Bani-Hashemian, V. Weber, U. Borstnik, M. Taillefumier, A. S. 
 Jakobovits, A. Lazzaro, H. Pabst, T. Müller, R. Schade, M. Guidon, S. 
 Andermatt, N. Holmberg, G. K. Schenter, A. Hehn, A. Bussy, F. Belleflamme, G. 
 Tabacchi, A. Glöß, M. Lass, I. Bethune, C. J. Mundy, C. Plessl, M. Watkins, 
 J. VandeVondele, M. Krack, J. Hutter.
 J. Chem. Phys. 152, 194103 (2020).
 CP2K: An electronic structure and molecular dynamics software package - 
 Quickstep: Efficient and accurate electronic structure calculations.
 https://doi.org/10.1063/5.0007045

 P. Pracht, E. Caldeweyher, S. Ehlert, S. Grimme.
 ChemRxiv, (2019).
 A Robust Non-Self-Consistent Tight-Binding Quantum Chemistry Method for large 
 Molecules.
 https://doi.org/10.26434/chemrxiv.8326202.v1

 S. Grimme, C. Bannwarth, P. Shushkov.
 J. Chem. Theory Comput. 13, 1989 (2017).
 A Robust and Accurate Tight-Binding Quantum Chemical Method for Structures, 
 Vibrational Frequencies, and Noncovalent Interactions of Large Molecular 
 Systems Parametrized for All spd-Block Elements (Z = 1-86).
 https://doi.org/10.1021/acs.jctc.7b00118

 O. Schuett, P. Messmer, J. Hutter, J. VandeVondele.
 Electronic Structure Calculations on Graphics Processing Units, 173-190 (2016).
 GPU-Accelerated Sparse Matrix-Matrix Multiplication for Linear Scaling Density 
 Functional Theory.
 https://doi.org/10.1002/9781118670712.ch8

 A. Heinecke, G. Henry, M. Hutchinson, H. Pabst.
 Proceedings of Intl. Supercomputing Conference, 981-991 (2016).
 LIBXSMM: Accelerating Small Matrix Multiplications by Runtime Code Generation.
 https://doi.org/10.1109/SC.2016.83

 U. Borstnik, J. VandeVondele, V. Weber, J. Hutter.
 Parallel Comput. 40, 47-58 (2014).
 Sparse matrix multiplication: The distributed block-compressed sparse row 
 library.
 https://doi.org/10.1016/j.parco.2014.03.012

 T. D. Kühne, M. Krack, F. R. Mohamed, M. Parrinello.
 Phys. Rev. Lett. 98, 066401 (2007).
 Efficient and accurate Car-Parrinello-like approach to Born-Oppenheimer 
 molecular dynamics.
 https://doi.org/10.1103/PhysRevLett.98.066401

 M. Frigo, S. G. Johnson.
 Proc. IEEE 93, 216-231 (2005).
 The design and implementation of FFTW3.
 https://doi.org/10.1109/JPROC.2004.840301

 J. Kolafa.
 J. Comput. Chem. 25, 335-342 (2004).
 Time-reversible always stable predictor-corrector method for molecular dynamics 
 of polarizable molecules.
 https://doi.org/10.1002/jcc.10385

 N. D. Mermin.
 Phys. Rev. 137, A1441-A1443 (1965).
 Thermal Properties of the Inhomogeneous Electron Gas.
 https://doi.org/10.1103/PhysRev.137.A1441


 -------------------------------------------------------------------------------
 -                                                                             -
 -                                T I M I N G                                  -
 -                                                                             -
 -------------------------------------------------------------------------------
 SUBROUTINE                       CALLS  ASD         SELF TIME        TOTAL TIME
                                MAXIMUM       AVERAGE  MAXIMUM  AVERAGE  MAXIMUM
 CP2K                                 1  1.0    0.002    0.002   30.280   30.280
 cp_cell_opt                          1  2.0    0.000    0.000   30.274   30.274
 geoopt_bfgs                          1  3.0    0.004    0.004   30.274   30.274
 cp_eval_at                          31  4.0    0.004    0.004   30.231   30.231
 qs_forces                           30  5.0    0.002    0.002   30.088   30.088
 build_tblite_matrices               61  7.0   27.175   27.175   27.563   27.563
 qs_energies                         31  6.0    0.001    0.001    8.235    8.235
 qs_energies_init_hamiltonians       31  7.0    0.000    0.000    7.515    7.515
 rebuild_ks_matrix                  307  9.7    0.000    0.000    2.034    2.034
 build_tblite_ks_matrix             307 10.7    2.027    2.027    2.034    2.034
 qs_ks_update_qs_env_forces          30  6.0    0.000    0.000    1.910    1.910
 -------------------------------------------------------------------------------

 The number of warnings for this run is : 0
 
 -------------------------------------------------------------------------------
  **** **** ******  **  PROGRAM ENDED AT                 2026-05-23 22:47:41.976
 ***** ** ***  *** **   PROGRAM RAN ON                                spark-c86c
 **    ****   ******    PROGRAM RAN BY                                  kuehne88
 ***** **    ** ** **   PROGRAM PROCESS ID                               2268105
  **** **  *******  **  PROGRAM STOPPED IN /home/kuehne88/periodic-gfn2-benchmar
                                           ks/X23b/runs/cellopt_gamma/GFN2/ammon
                                           ia_GFN2_gamma_cellopt
