 DBCSR| CPU Multiplication driver                                           XSMM (U)
 DBCSR| Multrec recursion limit                                              512 (U)
 DBCSR| Multiplication stack size                                           1000 (D)
 DBCSR| Maximum elements for images                                    UNLIMITED (U)
 DBCSR| Multiplicative factor virtual images                                   1 (U)
 DBCSR| Use multiplication densification                                       T (D)
 DBCSR| Multiplication size stacks                                             3 (U)
 DBCSR| Use memory pool for CPU allocation                                     F (U)
 DBCSR| Number of 3D layers                                               SINGLE (U)
 DBCSR| Use MPI memory allocation                                              F (U)
 DBCSR| Use RMA algorithm                                                      F (U)
 DBCSR| Use Communication thread                                               T (U)
 DBCSR| Communication thread load                                             87 (D)
 DBCSR| MPI: My process id                                                     0
 DBCSR| MPI: Number of processes                                               1
 DBCSR| OMP: Current number of threads                                         1
 DBCSR| OMP: Max number of threads                                             1
 DBCSR| Split modifier for TAS multiplication algorithm                  1.0E+00 (U)


  **** **** ******  **  PROGRAM STARTED AT               2026-05-23 22:46:49.851
 ***** ** ***  *** **   PROGRAM STARTED ON                            spark-c86c
 **    ****   ******    PROGRAM STARTED BY                              kuehne88
 ***** **    ** ** **   PROGRAM PROCESS ID                               2264521
  **** **  *******  **  PROGRAM STARTED IN /home/kuehne88/periodic-gfn2-benchmar
                                           ks/X23b/runs/cellopt_gamma/GFN1/co2_G
                                           FN1_gamma_cellopt

 CP2K| version string:                 CP2K version 2026.1 (Development Version)
 CP2K| source code revision number:                                   0622d442e4
 CP2K| cp2kflags: omp fftw3 libxc parallel scalapack mpi_f08 xsmm spglib libdftd
 CP2K|            4 dftd4_v3 mctc-lib tblite
 CP2K| is freely available from                            https://www.cp2k.org/
 CP2K| Program compiled at                                   2026-05-23 22:05:08
 CP2K| Program compiled on                                            spark-c86c
 CP2K| Program compiled for                                              aarch64
 CP2K| Data directory path    /home/kuehne88/cp2k-master-tblite-20260523/install
 CP2K| Input file name                                co2_GFN1_gamma_cellopt.inp

 GLOBAL| Force Environment number                                              1
 GLOBAL| Basis set file name                                           BASIS_SET
 GLOBAL| Potential file name                                           POTENTIAL
 GLOBAL| MM Potential file name                                     MM_POTENTIAL
 GLOBAL| Coordinate file name                                      __STD_INPUT__
 GLOBAL| Method name                                                        CP2K
 GLOBAL| Project name                                    co2_GFN1_gamma_cell_opt
 GLOBAL| Run type                                                       CELL_OPT
 GLOBAL| FFT library                                                       FFTW3
 GLOBAL| Diagonalization library                                       ScaLAPACK
 GLOBAL| Cholesky decomposition library                                ScaLAPACK
 GLOBAL| DGEMM library                                                      BLAS
 GLOBAL| Direct generalized diagonalization requested                          F
 GLOBAL| Orthonormality check for eigenvectors                          DISABLED
 GLOBAL| Matrix multiplication library                                 ScaLAPACK
 GLOBAL| All-to-all communication in single precision                          F
 GLOBAL| FFTs using library dependent lengths                                  F
 GLOBAL| Grid backend                                                       AUTO
 GLOBAL| Global print level                                                  LOW
 GLOBAL| MPI I/O enabled                                                       T
 GLOBAL| Total number of message passing processes                             1
 GLOBAL| Number of distributed systems (nodes)                                 1
 GLOBAL| Number of threads for this process                                    1
 GLOBAL| This output is from process                                           0
 GLOBAL| OpenMP stack size per thread (OMP_STACKSIZE)                    default
 GLOBAL| CPU model name                                                  UNKNOWN
 GLOBAL| CPUID                                                              2200
 GLOBAL| Compiled for CPUID                                                 2000

 *** HINT in environment.F:970 :: The compiler target flags (arm_arch64)   ***
 *** used to build this binary cannot exploit all extensions of this CPU   ***
 *** model (arm_sve256). Consider compiler target flags as part of FCFLAGS ***
 *** and CFLAGS (ARCH file).                                               ***


 MEMORY| system memory details [Kb]
 MEMORY|                        rank 0           min           max       average
 MEMORY| MemTotal            125508532     125508532     125508532     125508532
 MEMORY| MemFree             101568908     101568908     101568908     101568908
 MEMORY| Buffers                867396        867396        867396        867396
 MEMORY| Cached               13914828      13914828      13914828      13914828
 MEMORY| Slab                  1588512       1588512       1588512       1588512
 MEMORY| SReclaimable           910340        910340        910340        910340
 MEMORY| MemLikelyFree       117261472     117261472     117261472     117261472


 GENERATE|  Preliminary Number of Bonds generated:                             0
 GENERATE|  Achieved consistency in connectivity generation.


                  #####   #####        #     #   #     #       #          
                 #     # #     #      #    ##### #     #   # #####  ####  
                 #     # #           #       #   ###   #       #   #    # 
                 #     #  #####     #        #   #  #  #   #   #   ###### 
                 #   # #       #   #         #   #   # #   #   #   #      
                 #    #  #     #  #          #   #  #  # # #   #    #   # 
                  #### #  #####  #           #   ###   ##  #   #     ###  

                                   GFN1-xTB  
                                 Version 0.0                       
                            Johann V. Pototschnig                  



 TOTAL NUMBERS AND MAXIMUM NUMBERS

  Total number of            - Atomic kinds:                                   2
                             - Atoms:                                         12
                             - Shell sets:                                    24
                             - Shells:                                        24
                             - Primitive Cartesian functions:                144
                             - Cartesian basis functions:                     48
                             - Spherical basis functions:                     48

  Maximum angular momentum of the orbital basis functions:                     1


 SCF PARAMETERS         Density guess:                                     MOPAC
                        --------------------------------------------------------
                        max_scf:                                             300
                        max_scf_history:                                       0
                        max_diis:                                              4
                        --------------------------------------------------------
                        eps_scf:                                        1.00E-09
                        eps_scf_history:                                0.00E+00
                        eps_diis:                                       1.00E-01
                        eps_eigval:                                     1.00E-05
                        --------------------------------------------------------
                        level_shift [a.u.]:                             0.000000
                        added MOs                                        16    0
                        --------------------------------------------------------
                        Mixing method:                           DIRECT_P_MIXING
                        --------------------------------------------------------
                        Smear method:                                FERMI_DIRAC
                        Electronic temperature [K]:                        300.0
                        Electronic temperature [a.u.]:                  9.50E-04
                        Accuracy threshold:                             1.00E-06
                        --------------------------------------------------------
                        No outer SCF

 CELL_OPT| Pressure tolerance [bar]:                                       100.0
 CELL_OPT| Keep volume of cell:                                               NO
 CELL_OPT| Keep angles between the cell vectors:                              NO
 CELL_OPT| Keep cell symmetry:                                                NO
 CELL_OPT| Constraint:                                                      NONE

 BFGS| Use rational function optimization for step estimation:                NO
 BFGS| Use model Hessian for initial guess:                                   NO
 BFGS| Restart Hessian:                                                       NO
 BFGS| Trust radius:                                                       0.472

 *******************************************************************************
 ***                     STARTING   CELL   OPTIMIZATION                      ***
 ***                                   BFGS                                  ***
 *******************************************************************************

 CELL| Volume [angstrom^3]:                                           177.883611
 CELL| Vector a [angstrom]:       5.624     0.000     0.000   |a| =     5.624000
 CELL| Vector b [angstrom]:       0.000     5.624     0.000   |b| =     5.624000
 CELL| Vector c [angstrom]:       0.000     0.000     5.624   |c| =     5.624000
 CELL| Angle (b,c), alpha [degree]:                                    90.000000
 CELL| Angle (a,c), beta  [degree]:                                    90.000000
 CELL| Angle (a,b), gamma [degree]:                                    90.000000
 CELL| Numerically orthorhombic:                                             YES
 CELL| Periodicity                                                           XYZ

 Extrapolation method: initial_guess

 Number of electrons:                                                         64
 Number of occupied orbitals:                                                 32
 Number of molecular orbitals:                                                48

 Number of orbital functions:                                                 48
 Number of independent orbital functions:                                     48


 SCF WAVEFUNCTION OPTIMIZATION

  Step     Update method      Time    Convergence         Total energy    Change
  ------------------------------------------------------------------------------
     1 TBLite/Diag 0.40E+00    0.0     1.73475261       -44.2830781935 -4.43E+01
     2 TBLite/Diag 0.40E+00    0.0     0.30880851       -46.1922997027 -1.91E+00
     3 TBLite/Diag 0.40E+00    0.0     0.04035304       -46.2046498127 -1.24E-02
     4 TBLite/Diag 0.40E+00    0.0     0.03014315       -46.2004076792  4.24E-03
     5 TBLite/Diag 0.40E+00    0.0     0.02081670       -46.2066551582 -6.25E-03
     6 TBLite/Diag 0.40E+00    0.0     0.00131507       -46.2066909812 -3.58E-05
     7 TBLite/Diag 0.40E+00    0.0     0.00004706       -46.2066911578 -1.77E-07
     8 TBLite/Diag 0.40E+00    0.0     0.00008599       -46.2066912837 -1.26E-07
     9 TBLite/Diag 0.40E+00    0.0     0.00000046       -46.2066912837 -3.57E-12
    10 TBLite/Diag 0.40E+00    0.0     1.2831E-10       -46.2066912837 -1.42E-14

  *** SCF run converged in    10 steps ***


  Core Hamiltonian energy:                                    -46.95324135423146
  Repulsive potential energy:                                   0.48032655129009
  Electrostatic energy:                                         0.28816435693388
  Self-consistent dispersion energy:                            0.00000000000000
  Non-self consistent dispersion energy:                       -0.02194083765359
  Correction for halogen bonding:                               0.00000000000000
  Electronic entropic energy:                                  -0.00000000000000
  Fermi energy:                                                -0.28017684864697

  Total energy:                                               -46.20669128366107
  Total energy (extrapolated to T->0):                        -46.20669128366107

 ENERGY| Total FORCE_EVAL ( QS ) energy [hartree]            -46.206691283661073

 OPT| **************************************************************************
 OPT| Step number                                                              0
 OPT| Optimization method                                                   BFGS
 OPT| Total energy [hartree]                                      -46.2066912837
 OPT| Internal pressure [bar]                                  -20196.4739043331
 OPT| Used time [s]                                                        0.107
 OPT| **************************************************************************
 OPT| Estimated peak process memory [MiB]                                    165

 --------------------------
 OPTIMIZATION STEP:      1
 --------------------------

 CELL| Volume [angstrom^3]:                                           177.494563
 CELL| Vector a [angstrom]:       5.620     0.000     0.000   |a| =     5.619897
 CELL| Vector b [angstrom]:       0.000     5.620     0.000   |b| =     5.619897
 CELL| Vector c [angstrom]:       0.000     0.000     5.620   |c| =     5.619897
 CELL| Angle (b,c), alpha [degree]:                                    90.000000
 CELL| Angle (a,c), beta  [degree]:                                    90.000000
 CELL| Angle (a,b), gamma [degree]:                                    90.000000
 CELL| Numerically orthorhombic:                                             YES
 CELL| Periodicity                                                           XYZ

 Extrapolation method: ASPC

 Number of electrons:                                                         64
 Number of occupied orbitals:                                                 32
 Number of molecular orbitals:                                                48

 Number of orbital functions:                                                 48
 Number of independent orbital functions:                                     48


 SCF WAVEFUNCTION OPTIMIZATION

  Step     Update method      Time    Convergence         Total energy    Change
  ------------------------------------------------------------------------------
     1 TBLite/Diag 0.40E+00    0.0     0.03453983       -46.2092624576 -4.62E+01
     2 TBLite/Diag 0.40E+00    0.0     0.00297216       -46.2093335878 -7.11E-05
     3 TBLite/Diag 0.40E+00    0.0     0.00117825       -46.2093422155 -8.63E-06
     4 TBLite/Diag 0.40E+00    0.0     0.00037878       -46.2093446992 -2.48E-06
     5 TBLite/Diag 0.40E+00    0.0     0.00000102       -46.2093446992 -1.74E-11
     6 TBLite/Diag 0.40E+00    0.0     0.00000002       -46.2093446992  2.84E-14
     7 TBLite/Diag 0.40E+00    0.0     3.5532E-10       -46.2093446992  0.00E+00

  *** SCF run converged in     7 steps ***


  Core Hamiltonian energy:                                    -47.01901783960460
  Repulsive potential energy:                                   0.54482678015270
  Electrostatic energy:                                         0.28684209133147
  Self-consistent dispersion energy:                            0.00000000000000
  Non-self consistent dispersion energy:                       -0.02199573105239
  Correction for halogen bonding:                               0.00000000000000
  Electronic entropic energy:                                  -0.00000000000000
  Fermi energy:                                                -0.26511370519486

  Total energy:                                               -46.20934469917281
  Total energy (extrapolated to T->0):                        -46.20934469917281

 ENERGY| Total FORCE_EVAL ( QS ) energy [hartree]            -46.209344699172810

 OPT| **************************************************************************
 OPT| Step number                                                              1
 OPT| Optimization method                                                   BFGS
 OPT| Total energy [hartree]                                      -46.2093446992
 OPT| Internal pressure [bar]                                   32519.7909643710
 OPT| Effective energy change [hartree]                            -0.0026534155
 OPT| Predicted energy change [hartree]                            -0.0036735044
 OPT| Scaling factor                                                0.0000000000
 OPT| Step size                                                     0.0172803494
 OPT| Trust radius                                                  0.4724315332
 OPT| Decrease in energy                                                     YES
 OPT| Used time [s]                                                        0.104
 OPT|
 OPT| Maximum step size                                             0.0172803494
 OPT| Convergence limit for maximum step size                       0.0030000000
 OPT| Maximum step size is converged                                          NO
 OPT|
 OPT| RMS step size                                                 0.0132260644
 OPT| Convergence limit for RMS step size                           0.0015000000
 OPT| RMS step size is converged                                              NO
 OPT|
 OPT| Maximum gradient                                              0.0124665016
 OPT| Convergence limit for maximum gradient                        0.0004500000
 OPT| Maximum gradient is converged                                           NO
 OPT|
 OPT| RMS gradient                                                  0.0048532378
 OPT| Convergence limit for RMS gradient                            0.0003000000
 OPT| RMS gradient is converged                                               NO
 OPT|
 OPT| Pressure deviation [bar]                                  32519.7909643710
 OPT| Pressure tolerance [bar]                                    100.0000000000
 OPT| Pressure is converged                                                   NO
 OPT| **************************************************************************
 OPT| Estimated peak process memory after this step [MiB]                    165

 --------------------------
 OPTIMIZATION STEP:      2
 --------------------------

 CELL| Volume [angstrom^3]:                                           177.964882
 CELL| Vector a [angstrom]:       5.625     0.000     0.000   |a| =     5.624856
 CELL| Vector b [angstrom]:       0.000     5.625     0.000   |b| =     5.624856
 CELL| Vector c [angstrom]:       0.000     0.000     5.625   |c| =     5.624856
 CELL| Angle (b,c), alpha [degree]:                                    90.000000
 CELL| Angle (a,c), beta  [degree]:                                    90.000000
 CELL| Angle (a,b), gamma [degree]:                                    90.000000
 CELL| Numerically orthorhombic:                                             YES
 CELL| Periodicity                                                           XYZ

 Extrapolation method: ASPC

 Number of electrons:                                                         64
 Number of occupied orbitals:                                                 32
 Number of molecular orbitals:                                                48

 Number of orbital functions:                                                 48
 Number of independent orbital functions:                                     48


 SCF WAVEFUNCTION OPTIMIZATION

  Step     Update method      Time    Convergence         Total energy    Change
  ------------------------------------------------------------------------------
     1 TBLite/Diag 0.40E+00    0.0     0.00810652       -46.2097743750 -4.62E+01
     2 TBLite/Diag 0.40E+00    0.0     0.00051131       -46.2097764285 -2.05E-06
     3 TBLite/Diag 0.40E+00    0.0     0.00024388       -46.2097765794 -1.51E-07
     4 TBLite/Diag 0.40E+00    0.0     0.00010401       -46.2097767671 -1.88E-07
     5 TBLite/Diag 0.40E+00    0.0     0.00000002       -46.2097767671 -2.13E-14
     6 TBLite/Diag 0.40E+00    0.0     4.1292E-09       -46.2097767671  7.11E-15
     7 TBLite/Diag 0.40E+00    0.0     1.0669E-13       -46.2097767671 -2.84E-14

  *** SCF run converged in     7 steps ***


  Core Hamiltonian energy:                                    -47.00410071722337
  Repulsive potential energy:                                   0.52907416192200
  Electrostatic energy:                                         0.28718504136301
  Self-consistent dispersion energy:                            0.00000000000000
  Non-self consistent dispersion energy:                       -0.02193525316517
  Correction for halogen bonding:                               0.00000000000000
  Electronic entropic energy:                                  -0.00000000000000
  Fermi energy:                                                -0.26869088774287

  Total energy:                                               -46.20977676710353
  Total energy (extrapolated to T->0):                        -46.20977676710353

 ENERGY| Total FORCE_EVAL ( QS ) energy [hartree]            -46.209776767103534

 OPT| **************************************************************************
 OPT| Step number                                                              2
 OPT| Optimization method                                                   BFGS
 OPT| Total energy [hartree]                                      -46.2097767671
 OPT| Internal pressure [bar]                                   19786.5304737398
 OPT| Effective energy change [hartree]                            -0.0004320679
 OPT| Predicted energy change [hartree]                            -0.0003515242
 OPT| Scaling factor                                                0.0000000000
 OPT| Step size                                                     0.0093719542
 OPT| Trust radius                                                  0.4724315332
 OPT| Decrease in energy                                                     YES
 OPT| Used time [s]                                                        0.105
 OPT|
 OPT| Maximum step size                                             0.0093719542
 OPT| Convergence limit for maximum step size                       0.0030000000
 OPT| Maximum step size is converged                                          NO
 OPT|
 OPT| RMS step size                                                 0.0034542248
 OPT| Convergence limit for RMS step size                           0.0015000000
 OPT| RMS step size is converged                                              NO
 OPT|
 OPT| Maximum gradient                                              0.0075985840
 OPT| Convergence limit for maximum gradient                        0.0004500000
 OPT| Maximum gradient is converged                                           NO
 OPT|
 OPT| RMS gradient                                                  0.0020914242
 OPT| Convergence limit for RMS gradient                            0.0003000000
 OPT| RMS gradient is converged                                               NO
 OPT|
 OPT| Pressure deviation [bar]                                  19786.5304737398
 OPT| Pressure tolerance [bar]                                    100.0000000000
 OPT| Pressure is converged                                                   NO
 OPT| **************************************************************************
 OPT| Estimated peak process memory after this step [MiB]                    165

 --------------------------
 OPTIMIZATION STEP:      3
 --------------------------

 CELL| Volume [angstrom^3]:                                           178.629534
 CELL| Vector a [angstrom]:       5.632     0.000     0.000   |a| =     5.631850
 CELL| Vector b [angstrom]:       0.000     5.632     0.000   |b| =     5.631850
 CELL| Vector c [angstrom]:       0.000     0.000     5.632   |c| =     5.631850
 CELL| Angle (b,c), alpha [degree]:                                    90.000000
 CELL| Angle (a,c), beta  [degree]:                                    90.000000
 CELL| Angle (a,b), gamma [degree]:                                    90.000000
 CELL| Numerically orthorhombic:                                             YES
 CELL| Periodicity                                                           XYZ

 Extrapolation method: ASPC

 Number of electrons:                                                         64
 Number of occupied orbitals:                                                 32
 Number of molecular orbitals:                                                48

 Number of orbital functions:                                                 48
 Number of independent orbital functions:                                     48


 SCF WAVEFUNCTION OPTIMIZATION

  Step     Update method      Time    Convergence         Total energy    Change
  ------------------------------------------------------------------------------
     1 TBLite/Diag 0.40E+00    0.0     0.00261199       -46.2100563368 -4.62E+01
     2 TBLite/Diag 0.40E+00    0.0     0.00013903       -46.2100564879 -1.51E-07
     3 TBLite/Diag 0.40E+00    0.0     0.00007110       -46.2100564942 -6.30E-09
     4 TBLite/Diag 0.40E+00    0.0     0.00003302       -46.2100565130 -1.89E-08
     5 TBLite/Diag 0.40E+00    0.0     2.9307E-09       -46.2100565130  0.00E+00
     6 TBLite/Diag 0.40E+00    0.0     1.3736E-09       -46.2100565130 -7.11E-15
     7 TBLite/Diag 0.40E+00    0.0     4.3687E-14       -46.2100565130 -1.42E-14

  *** SCF run converged in     7 steps ***


  Core Hamiltonian energy:                                    -46.99981096717387
  Repulsive potential energy:                                   0.52426609373102
  Electrostatic energy:                                         0.28734009748782
  Self-consistent dispersion energy:                            0.00000000000000
  Non-self consistent dispersion energy:                       -0.02185173707979
  Correction for halogen bonding:                               0.00000000000000
  Electronic entropic energy:                                  -0.00000000000000
  Fermi energy:                                                -0.26977591046868

  Total energy:                                               -46.21005651303481
  Total energy (extrapolated to T->0):                        -46.21005651303481

 ENERGY| Total FORCE_EVAL ( QS ) energy [hartree]            -46.210056513034814

 OPT| **************************************************************************
 OPT| Step number                                                              3
 OPT| Optimization method                                                   BFGS
 OPT| Total energy [hartree]                                      -46.2100565130
 OPT| Internal pressure [bar]                                   15871.0708796337
 OPT| Effective energy change [hartree]                            -0.0002797459
 OPT| Predicted energy change [hartree]                            -0.0001524555
 OPT| Scaling factor                                                0.0000000000
 OPT| Step size                                                     0.0132162739
 OPT| Trust radius                                                  0.4724315332
 OPT| Decrease in energy                                                     YES
 OPT| Used time [s]                                                        0.105
 OPT|
 OPT| Maximum step size                                             0.0132162739
 OPT| Convergence limit for maximum step size                       0.0030000000
 OPT| Maximum step size is converged                                          NO
 OPT|
 OPT| RMS step size                                                 0.0035364412
 OPT| Convergence limit for RMS step size                           0.0015000000
 OPT| RMS step size is converged                                              NO
 OPT|
 OPT| Maximum gradient                                              0.0061101034
 OPT| Convergence limit for maximum gradient                        0.0004500000
 OPT| Maximum gradient is converged                                           NO
 OPT|
 OPT| RMS gradient                                                  0.0023553436
 OPT| Convergence limit for RMS gradient                            0.0003000000
 OPT| RMS gradient is converged                                               NO
 OPT|
 OPT| Pressure deviation [bar]                                  15871.0708796337
 OPT| Pressure tolerance [bar]                                    100.0000000000
 OPT| Pressure is converged                                                   NO
 OPT| **************************************************************************
 OPT| Estimated peak process memory after this step [MiB]                    165

 --------------------------
 OPTIMIZATION STEP:      4
 --------------------------

 CELL| Volume [angstrom^3]:                                           185.078219
 CELL| Vector a [angstrom]:       5.699     0.000     0.000   |a| =     5.698822
 CELL| Vector b [angstrom]:       0.000     5.699     0.000   |b| =     5.698822
 CELL| Vector c [angstrom]:       0.000     0.000     5.699   |c| =     5.698822
 CELL| Angle (b,c), alpha [degree]:                                    90.000000
 CELL| Angle (a,c), beta  [degree]:                                    90.000000
 CELL| Angle (a,b), gamma [degree]:                                    90.000000
 CELL| Numerically orthorhombic:                                             YES
 CELL| Periodicity                                                           XYZ

 Extrapolation method: ASPC

 Number of electrons:                                                         64
 Number of occupied orbitals:                                                 32
 Number of molecular orbitals:                                                48

 Number of orbital functions:                                                 48
 Number of independent orbital functions:                                     48


 SCF WAVEFUNCTION OPTIMIZATION

  Step     Update method      Time    Convergence         Total energy    Change
  ------------------------------------------------------------------------------
     1 TBLite/Diag 0.40E+00    0.0     0.01332307       -46.2119991721 -4.62E+01
     2 TBLite/Diag 0.40E+00    0.0     0.00238895       -46.2120431101 -4.39E-05
     3 TBLite/Diag 0.40E+00    0.0     0.00072466       -46.2120505751 -7.46E-06
     4 TBLite/Diag 0.40E+00    0.0     0.00006397       -46.2120506432 -6.81E-08
     5 TBLite/Diag 0.40E+00    0.0     0.00000100       -46.2120506432 -1.74E-11
     6 TBLite/Diag 0.40E+00    0.0     5.3396E-09       -46.2120506432  0.00E+00
     7 TBLite/Diag 0.40E+00    0.0     8.3775E-10       -46.2120506432  0.00E+00

  *** SCF run converged in     7 steps ***


  Core Hamiltonian energy:                                    -46.98037909601074
  Repulsive potential energy:                                   0.50100990499556
  Electrostatic energy:                                         0.28838962143484
  Self-consistent dispersion energy:                            0.00000000000000
  Non-self consistent dispersion energy:                       -0.02107107359031
  Correction for halogen bonding:                               0.00000000000000
  Electronic entropic energy:                                  -0.00000000000000
  Fermi energy:                                                -0.27506824364726

  Total energy:                                               -46.21205064317065
  Total energy (extrapolated to T->0):                        -46.21205064317065

 ENERGY| Total FORCE_EVAL ( QS ) energy [hartree]            -46.212050643170649

 OPT| **************************************************************************
 OPT| Step number                                                              4
 OPT| Optimization method                                                   BFGS
 OPT| Total energy [hartree]                                      -46.2120506432
 OPT| Internal pressure [bar]                                   -5318.2558390565
 OPT| Effective energy change [hartree]                            -0.0019941301
 OPT| Predicted energy change [hartree]                            -0.0013800153
 OPT| Scaling factor                                                0.0000000000
 OPT| Step size                                                     0.1265588076
 OPT| Trust radius                                                  0.4724315332
 OPT| Decrease in energy                                                     YES
 OPT| Used time [s]                                                        0.104
 OPT|
 OPT| Maximum step size                                             0.1265588076
 OPT| Convergence limit for maximum step size                       0.0030000000
 OPT| Maximum step size is converged                                          NO
 OPT|
 OPT| RMS step size                                                 0.0343832072
 OPT| Convergence limit for RMS step size                           0.0015000000
 OPT| RMS step size is converged                                              NO
 OPT|
 OPT| Maximum gradient                                              0.0095892850
 OPT| Convergence limit for maximum gradient                        0.0004500000
 OPT| Maximum gradient is converged                                           NO
 OPT|
 OPT| RMS gradient                                                  0.0072704397
 OPT| Convergence limit for RMS gradient                            0.0003000000
 OPT| RMS gradient is converged                                               NO
 OPT|
 OPT| Pressure deviation [bar]                                  -5318.2558390565
 OPT| Pressure tolerance [bar]                                    100.0000000000
 OPT| Pressure is converged                                                   NO
 OPT| **************************************************************************
 OPT| Estimated peak process memory after this step [MiB]                    166

 --------------------------
 OPTIMIZATION STEP:      5
 --------------------------

 CELL| Volume [angstrom^3]:                                           192.829612
 CELL| Vector a [angstrom]:       5.777     0.000     0.000   |a| =     5.777295
 CELL| Vector b [angstrom]:       0.000     5.777     0.000   |b| =     5.777295
 CELL| Vector c [angstrom]:       0.000     0.000     5.777   |c| =     5.777295
 CELL| Angle (b,c), alpha [degree]:                                    90.000000
 CELL| Angle (a,c), beta  [degree]:                                    90.000000
 CELL| Angle (a,b), gamma [degree]:                                    90.000000
 CELL| Numerically orthorhombic:                                             YES
 CELL| Periodicity                                                           XYZ

 Extrapolation method: ASPC

 Number of electrons:                                                         64
 Number of occupied orbitals:                                                 32
 Number of molecular orbitals:                                                48

 Number of orbital functions:                                                 48
 Number of independent orbital functions:                                     48


 SCF WAVEFUNCTION OPTIMIZATION

  Step     Update method      Time    Convergence         Total energy    Change
  ------------------------------------------------------------------------------
     1 TBLite/Diag 0.40E+00    0.0     0.00525228       -46.2137059091 -4.62E+01
     2 TBLite/Diag 0.40E+00    0.0     0.00262704       -46.2137590478 -5.31E-05
     3 TBLite/Diag 0.40E+00    0.0     0.00073256       -46.2137680839 -9.04E-06
     4 TBLite/Diag 0.40E+00    0.0     0.00000780       -46.2137680846 -6.99E-10
     5 TBLite/Diag 0.40E+00    0.0     0.00000126       -46.2137680846 -2.74E-11
     6 TBLite/Diag 0.40E+00    0.0     2.7247E-09       -46.2137680846  3.55E-14
     7 TBLite/Diag 0.40E+00    0.0     8.7309E-11       -46.2137680846 -2.13E-14

  *** SCF run converged in     7 steps ***


  Core Hamiltonian energy:                                    -46.97572014206175
  Repulsive potential energy:                                   0.49309189712083
  Electrostatic energy:                                         0.28905585051859
  Self-consistent dispersion energy:                            0.00000000000000
  Non-self consistent dispersion energy:                       -0.02019569020034
  Correction for halogen bonding:                               0.00000000000000
  Electronic entropic energy:                                  -0.00000000000000
  Fermi energy:                                                -0.27687979556216

  Total energy:                                               -46.21376808462267
  Total energy (extrapolated to T->0):                        -46.21376808462267

 ENERGY| Total FORCE_EVAL ( QS ) energy [hartree]            -46.213768084622671

 OPT| **************************************************************************
 OPT| Step number                                                              5
 OPT| Optimization method                                                   BFGS
 OPT| Total energy [hartree]                                      -46.2137680846
 OPT| Internal pressure [bar]                                  -19536.3109703725
 OPT| Effective energy change [hartree]                            -0.0017174415
 OPT| Predicted energy change [hartree]                            -0.0012096340
 OPT| Scaling factor                                                0.0000000000
 OPT| Step size                                                     0.1482929854
 OPT| Trust radius                                                  0.4724315332
 OPT| Decrease in energy                                                     YES
 OPT| Used time [s]                                                        0.102
 OPT|
 OPT| Maximum step size                                             0.1482929854
 OPT| Convergence limit for maximum step size                       0.0030000000
 OPT| Maximum step size is converged                                          NO
 OPT|
 OPT| RMS step size                                                 0.0411337673
 OPT| Convergence limit for RMS step size                           0.0015000000
 OPT| RMS step size is converged                                              NO
 OPT|
 OPT| Maximum gradient                                              0.0117087277
 OPT| Convergence limit for maximum gradient                        0.0004500000
 OPT| Maximum gradient is converged                                           NO
 OPT|
 OPT| RMS gradient                                                  0.0091002204
 OPT| Convergence limit for RMS gradient                            0.0003000000
 OPT| RMS gradient is converged                                               NO
 OPT|
 OPT| Pressure deviation [bar]                                 -19536.3109703725
 OPT| Pressure tolerance [bar]                                    100.0000000000
 OPT| Pressure is converged                                                   NO
 OPT| **************************************************************************
 OPT| Estimated peak process memory after this step [MiB]                    166

 --------------------------
 OPTIMIZATION STEP:      6
 --------------------------

 CELL| Volume [angstrom^3]:                                           196.260623
 CELL| Vector a [angstrom]:       5.811     0.000     0.000   |a| =     5.811359
 CELL| Vector b [angstrom]:       0.000     5.811     0.000   |b| =     5.811359
 CELL| Vector c [angstrom]:       0.000     0.000     5.811   |c| =     5.811359
 CELL| Angle (b,c), alpha [degree]:                                    90.000000
 CELL| Angle (a,c), beta  [degree]:                                    90.000000
 CELL| Angle (a,b), gamma [degree]:                                    90.000000
 CELL| Numerically orthorhombic:                                             YES
 CELL| Periodicity                                                           XYZ

 Extrapolation method: ASPC

 Number of electrons:                                                         64
 Number of occupied orbitals:                                                 32
 Number of molecular orbitals:                                                48

 Number of orbital functions:                                                 48
 Number of independent orbital functions:                                     48


 SCF WAVEFUNCTION OPTIMIZATION

  Step     Update method      Time    Convergence         Total energy    Change
  ------------------------------------------------------------------------------
     1 TBLite/Diag 0.40E+00    0.0     0.00682276       -46.2150586394 -4.62E+01
     2 TBLite/Diag 0.40E+00    0.0     0.00123462       -46.2150705974 -1.20E-05
     3 TBLite/Diag 0.40E+00    0.0     0.00038706       -46.2150724927 -1.90E-06
     4 TBLite/Diag 0.40E+00    0.0     0.00005120       -46.2150725375 -4.47E-08
     5 TBLite/Diag 0.40E+00    0.0     0.00000024       -46.2150725375 -9.95E-13
     6 TBLite/Diag 0.40E+00    0.0     2.8397E-09       -46.2150725375  2.13E-14
     7 TBLite/Diag 0.40E+00    0.0     6.7963E-11       -46.2150725375 -2.13E-14

  *** SCF run converged in     7 steps ***


  Core Hamiltonian energy:                                    -46.99039548327028
  Repulsive potential energy:                                   0.50628431619511
  Electrostatic energy:                                         0.28886774969862
  Self-consistent dispersion energy:                            0.00000000000000
  Non-self consistent dispersion energy:                       -0.01982912008967
  Correction for halogen bonding:                               0.00000000000000
  Electronic entropic energy:                                  -0.00000000000000
  Fermi energy:                                                -0.27369096608132

  Total energy:                                               -46.21507253746622
  Total energy (extrapolated to T->0):                        -46.21507253746622

 ENERGY| Total FORCE_EVAL ( QS ) energy [hartree]            -46.215072537466220

 OPT| **************************************************************************
 OPT| Step number                                                              6
 OPT| Optimization method                                                   BFGS
 OPT| Total energy [hartree]                                      -46.2150725375
 OPT| Internal pressure [bar]                                  -13577.5818525436
 OPT| Effective energy change [hartree]                            -0.0013044528
 OPT| Predicted energy change [hartree]                            -0.0007601714
 OPT| Scaling factor                                                0.0000000000
 OPT| Step size                                                     0.0643713100
 OPT| Trust radius                                                  0.4724315332
 OPT| Decrease in energy                                                     YES
 OPT| Used time [s]                                                        0.101
 OPT|
 OPT| Maximum step size                                             0.0643713100
 OPT| Convergence limit for maximum step size                       0.0030000000
 OPT| Maximum step size is converged                                          NO
 OPT|
 OPT| RMS step size                                                 0.0190588080
 OPT| Convergence limit for RMS step size                           0.0015000000
 OPT| RMS step size is converged                                              NO
 OPT|
 OPT| Maximum gradient                                              0.0071713602
 OPT| Convergence limit for maximum gradient                        0.0004500000
 OPT| Maximum gradient is converged                                           NO
 OPT|
 OPT| RMS gradient                                                  0.0056214133
 OPT| Convergence limit for RMS gradient                            0.0003000000
 OPT| RMS gradient is converged                                               NO
 OPT|
 OPT| Pressure deviation [bar]                                 -13577.5818525436
 OPT| Pressure tolerance [bar]                                    100.0000000000
 OPT| Pressure is converged                                                   NO
 OPT| **************************************************************************
 OPT| Estimated peak process memory after this step [MiB]                    166

 --------------------------
 OPTIMIZATION STEP:      7
 --------------------------

 CELL| Volume [angstrom^3]:                                           198.182732
 CELL| Vector a [angstrom]:       5.830     0.000     0.000   |a| =     5.830269
 CELL| Vector b [angstrom]:       0.000     5.830     0.000   |b| =     5.830269
 CELL| Vector c [angstrom]:       0.000     0.000     5.830   |c| =     5.830269
 CELL| Angle (b,c), alpha [degree]:                                    90.000000
 CELL| Angle (a,c), beta  [degree]:                                    90.000000
 CELL| Angle (a,b), gamma [degree]:                                    90.000000
 CELL| Numerically orthorhombic:                                             YES
 CELL| Periodicity                                                           XYZ

 Extrapolation method: ASPC

 Number of electrons:                                                         64
 Number of occupied orbitals:                                                 32
 Number of molecular orbitals:                                                48

 Number of orbital functions:                                                 48
 Number of independent orbital functions:                                     48


 SCF WAVEFUNCTION OPTIMIZATION

  Step     Update method      Time    Convergence         Total energy    Change
  ------------------------------------------------------------------------------
     1 TBLite/Diag 0.40E+00    0.0     0.01100189       -46.2156737638 -4.62E+01
     2 TBLite/Diag 0.40E+00    0.0     0.00107082       -46.2156830196 -9.26E-06
     3 TBLite/Diag 0.40E+00    0.0     0.00039698       -46.2156842056 -1.19E-06
     4 TBLite/Diag 0.40E+00    0.0     0.00011188       -46.2156844211 -2.16E-07
     5 TBLite/Diag 0.40E+00    0.0     0.00000015       -46.2156844211 -3.27E-13
     6 TBLite/Diag 0.40E+00    0.0     4.2831E-09       -46.2156844211  1.42E-14
     7 TBLite/Diag 0.40E+00    0.0     2.9662E-11       -46.2156844211 -2.84E-14

  *** SCF run converged in     7 steps ***


  Core Hamiltonian energy:                                    -47.01177659527369
  Repulsive potential energy:                                   0.52728499592660
  Electrostatic energy:                                         0.28843619968241
  Self-consistent dispersion energy:                            0.00000000000000
  Non-self consistent dispersion energy:                       -0.01962902147343
  Correction for halogen bonding:                               0.00000000000000
  Electronic entropic energy:                                  -0.00000000000000
  Fermi energy:                                                -0.26873028402082

  Total energy:                                               -46.21568442113813
  Total energy (extrapolated to T->0):                        -46.21568442113813

 ENERGY| Total FORCE_EVAL ( QS ) energy [hartree]            -46.215684421138128

 OPT| **************************************************************************
 OPT| Step number                                                              7
 OPT| Optimization method                                                   BFGS
 OPT| Total energy [hartree]                                      -46.2156844211
 OPT| Internal pressure [bar]                                     251.1896735050
 OPT| Effective energy change [hartree]                            -0.0006118837
 OPT| Predicted energy change [hartree]                            -0.0005269500
 OPT| Scaling factor                                                0.0000000000
 OPT| Step size                                                     0.0357345177
 OPT| Trust radius                                                  0.4724315332
 OPT| Decrease in energy                                                     YES
 OPT| Used time [s]                                                        0.100
 OPT|
 OPT| Maximum step size                                             0.0357345177
 OPT| Convergence limit for maximum step size                       0.0030000000
 OPT| Maximum step size is converged                                          NO
 OPT|
 OPT| RMS step size                                                 0.0119901764
 OPT| Convergence limit for RMS step size                           0.0015000000
 OPT| RMS step size is converged                                              NO
 OPT|
 OPT| Maximum gradient                                              0.0001596270
 OPT| Convergence limit for maximum gradient                        0.0004500000
 OPT| Maximum gradient is converged                                          YES
 OPT|
 OPT| RMS gradient                                                  0.0001238049
 OPT| Convergence limit for RMS gradient                            0.0003000000
 OPT| RMS gradient is converged                                              YES
 OPT|
 OPT| Pressure deviation [bar]                                    251.1896735050
 OPT| Pressure tolerance [bar]                                    100.0000000000
 OPT| Pressure is converged                                                   NO
 OPT| **************************************************************************
 OPT| Estimated peak process memory after this step [MiB]                    166

 --------------------------
 OPTIMIZATION STEP:      8
 --------------------------

 CELL| Volume [angstrom^3]:                                           198.696241
 CELL| Vector a [angstrom]:       5.835     0.000     0.000   |a| =     5.835300
 CELL| Vector b [angstrom]:       0.000     5.835     0.000   |b| =     5.835300
 CELL| Vector c [angstrom]:       0.000     0.000     5.835   |c| =     5.835300
 CELL| Angle (b,c), alpha [degree]:                                    90.000000
 CELL| Angle (a,c), beta  [degree]:                                    90.000000
 CELL| Angle (a,b), gamma [degree]:                                    90.000000
 CELL| Numerically orthorhombic:                                             YES
 CELL| Periodicity                                                           XYZ

 Extrapolation method: ASPC

 Number of electrons:                                                         64
 Number of occupied orbitals:                                                 32
 Number of molecular orbitals:                                                48

 Number of orbital functions:                                                 48
 Number of independent orbital functions:                                     48


 SCF WAVEFUNCTION OPTIMIZATION

  Step     Update method      Time    Convergence         Total energy    Change
  ------------------------------------------------------------------------------
     1 TBLite/Diag 0.40E+00    0.0     0.00039818       -46.2156886004 -4.62E+01
     2 TBLite/Diag 0.40E+00    0.0     0.00006785       -46.2156886376 -3.71E-08
     3 TBLite/Diag 0.40E+00    0.0     0.00002091       -46.2156886431 -5.48E-09
     4 TBLite/Diag 0.40E+00    0.0     0.00000286       -46.2156886432 -1.41E-10
     5 TBLite/Diag 0.40E+00    0.0     6.2669E-10       -46.2156886432  0.00E+00

  *** SCF run converged in     5 steps ***


  Core Hamiltonian energy:                                    -47.01261601453488
  Repulsive potential energy:                                   0.52807692469234
  Electrostatic energy:                                         0.28842635753444
  Self-consistent dispersion energy:                            0.00000000000000
  Non-self consistent dispersion energy:                       -0.01957591090570
  Correction for halogen bonding:                               0.00000000000000
  Electronic entropic energy:                                  -0.00000000000000
  Fermi energy:                                                -0.26853682821036

  Total energy:                                               -46.21568864321382
  Total energy (extrapolated to T->0):                        -46.21568864321382

 ENERGY| Total FORCE_EVAL ( QS ) energy [hartree]            -46.215688643213817

 OPT| **************************************************************************
 OPT| Step number                                                              8
 OPT| Optimization method                                                   BFGS
 OPT| Total energy [hartree]                                      -46.2156886432
 OPT| Internal pressure [bar]                                     326.2822322541
 OPT| Effective energy change [hartree]                            -0.0000042221
 OPT| Predicted energy change [hartree]                            -0.0000038634
 OPT| Scaling factor                                                0.0000000000
 OPT| Step size                                                     0.0095076628
 OPT| Trust radius                                                  0.4724315332
 OPT| Decrease in energy                                                     YES
 OPT| Used time [s]                                                        0.096
 OPT|
 OPT| Maximum step size                                             0.0095076628
 OPT| Convergence limit for maximum step size                       0.0030000000
 OPT| Maximum step size is converged                                          NO
 OPT|
 OPT| RMS step size                                                 0.0027097868
 OPT| Convergence limit for RMS step size                           0.0015000000
 OPT| RMS step size is converged                                              NO
 OPT|
 OPT| Maximum gradient                                              0.0001348528
 OPT| Convergence limit for maximum gradient                        0.0004500000
 OPT| Maximum gradient is converged                                          YES
 OPT|
 OPT| RMS gradient                                                  0.0000856686
 OPT| Convergence limit for RMS gradient                            0.0003000000
 OPT| RMS gradient is converged                                              YES
 OPT|
 OPT| Pressure deviation [bar]                                    326.2822322541
 OPT| Pressure tolerance [bar]                                    100.0000000000
 OPT| Pressure is converged                                                   NO
 OPT| **************************************************************************
 OPT| Estimated peak process memory after this step [MiB]                    166

 --------------------------
 OPTIMIZATION STEP:      9
 --------------------------

 CELL| Volume [angstrom^3]:                                           198.803552
 CELL| Vector a [angstrom]:       5.836     0.000     0.000   |a| =     5.836351
 CELL| Vector b [angstrom]:       0.000     5.836     0.000   |b| =     5.836351
 CELL| Vector c [angstrom]:       0.000     0.000     5.836   |c| =     5.836351
 CELL| Angle (b,c), alpha [degree]:                                    90.000000
 CELL| Angle (a,c), beta  [degree]:                                    90.000000
 CELL| Angle (a,b), gamma [degree]:                                    90.000000
 CELL| Numerically orthorhombic:                                             YES
 CELL| Periodicity                                                           XYZ

 Extrapolation method: ASPC

 Number of electrons:                                                         64
 Number of occupied orbitals:                                                 32
 Number of molecular orbitals:                                                48

 Number of orbital functions:                                                 48
 Number of independent orbital functions:                                     48


 SCF WAVEFUNCTION OPTIMIZATION

  Step     Update method      Time    Convergence         Total energy    Change
  ------------------------------------------------------------------------------
     1 TBLite/Diag 0.40E+00    0.0     0.00012747       -46.2156888457 -4.62E+01
     2 TBLite/Diag 0.40E+00    0.0     0.00000335       -46.2156888458 -9.07E-11
     3 TBLite/Diag 0.40E+00    0.0     0.00000239       -46.2156888458  2.49E-11
     4 TBLite/Diag 0.40E+00    0.0     0.00000150       -46.2156888458 -3.86E-11
     5 TBLite/Diag 0.40E+00    0.0     4.1732E-11       -46.2156888458 -2.13E-14

  *** SCF run converged in     5 steps ***


  Core Hamiltonian energy:                                    -47.01239248870481
  Repulsive potential energy:                                   0.52783536263709
  Electrostatic energy:                                         0.28843311774590
  Self-consistent dispersion energy:                            0.00000000000000
  Non-self consistent dispersion energy:                       -0.01956483747694
  Correction for halogen bonding:                               0.00000000000000
  Electronic entropic energy:                                  -0.00000000000000
  Fermi energy:                                                -0.26859093546799

  Total energy:                                               -46.21568884579877
  Total energy (extrapolated to T->0):                        -46.21568884579877

 ENERGY| Total FORCE_EVAL ( QS ) energy [hartree]            -46.215688845798766

 OPT| **************************************************************************
 OPT| Step number                                                              9
 OPT| Optimization method                                                   BFGS
 OPT| Total energy [hartree]                                      -46.2156888458
 OPT| Internal pressure [bar]                                      38.8686913314
 OPT| Effective energy change [hartree]                            -0.0000002026
 OPT| Predicted energy change [hartree]                            -0.0000002135
 OPT| Scaling factor                                                0.0000000000
 OPT| Step size                                                     0.0019848019
 OPT| Trust radius                                                  0.4724315332
 OPT| Decrease in energy                                                     YES
 OPT| Used time [s]                                                        0.096
 OPT|
 OPT| Maximum step size                                             0.0019848019
 OPT| Convergence limit for maximum step size                       0.0030000000
 OPT| Maximum step size is converged                                         YES
 OPT|
 OPT| RMS step size                                                 0.0005428184
 OPT| Convergence limit for RMS step size                           0.0015000000
 OPT| RMS step size is converged                                             YES
 OPT|
 OPT| Maximum gradient                                              0.0000223614
 OPT| Convergence limit for maximum gradient                        0.0004500000
 OPT| Maximum gradient is converged                                          YES
 OPT|
 OPT| RMS gradient                                                  0.0000174407
 OPT| Convergence limit for RMS gradient                            0.0003000000
 OPT| RMS gradient is converged                                              YES
 OPT|
 OPT| Pressure deviation [bar]                                     38.8686913314
 OPT| Pressure tolerance [bar]                                    100.0000000000
 OPT| Pressure is converged                                                  YES
 OPT| **************************************************************************
 OPT| Estimated peak process memory after this step [MiB]                    166

 *******************************************************************************
 ***                    GEOMETRY OPTIMIZATION COMPLETED                      ***
 *******************************************************************************

 write_final_structure: Optimization converged, writing XYZ file gladly:
  co2_GFN1_gamma_cell_opt-FINAL-1_9.xyz

 write_final_structure: Optimization converged, writing CIF file gladly:
  co2_GFN1_gamma_cell_opt-FINAL-1_9.cif

 write_final_structure: Done!

                    Reevaluating energy at the minimum

 CELL| Volume [angstrom^3]:                                           198.803552
 CELL| Vector a [angstrom]:       5.836     0.000     0.000   |a| =     5.836351
 CELL| Vector b [angstrom]:       0.000     5.836     0.000   |b| =     5.836351
 CELL| Vector c [angstrom]:       0.000     0.000     5.836   |c| =     5.836351
 CELL| Angle (b,c), alpha [degree]:                                    90.000000
 CELL| Angle (a,c), beta  [degree]:                                    90.000000
 CELL| Angle (a,b), gamma [degree]:                                    90.000000
 CELL| Numerically orthorhombic:                                             YES
 CELL| Periodicity                                                           XYZ

 Extrapolation method: ASPC

 Number of electrons:                                                         64
 Number of occupied orbitals:                                                 32
 Number of molecular orbitals:                                                48

 Number of orbital functions:                                                 48
 Number of independent orbital functions:                                     48


 SCF WAVEFUNCTION OPTIMIZATION

  Step     Update method      Time    Convergence         Total energy    Change
  ------------------------------------------------------------------------------
     1 TBLite/Diag 0.40E+00    0.0     1.1731E-10       -46.2156888458 -4.62E+01

  *** SCF run converged in     1 steps ***


  Core Hamiltonian energy:                                    -47.01239248910608
  Repulsive potential energy:                                   0.52783536263709
  Electrostatic energy:                                         0.28843311814718
  Self-consistent dispersion energy:                            0.00000000000000
  Non-self consistent dispersion energy:                       -0.01956483747694
  Correction for halogen bonding:                               0.00000000000000
  Electronic entropic energy:                                  -0.00000000000000
  Fermi energy:                                                -0.26859093545052

  Total energy:                                               -46.21568884579875
  Total energy (extrapolated to T->0):                        -46.21568884579875

 ENERGY| Total FORCE_EVAL ( QS ) energy [hartree]            -46.215688845798752

 -------------------------------------------------------------------------------
 -                                                                             -
 -                                DBCSR STATISTICS                             -
 -                                                                             -
 -------------------------------------------------------------------------------
 COUNTER                                    TOTAL       BLAS       SMM       ACC
 flops     4 x    16 x     4              2949120       0.0%    100.0%      0.0%     
 flops     4 x    32 x     4              5898240       0.0%    100.0%      0.0%     
 flops     4 x     4 x    48             10782720       0.0%    100.0%      0.0%     
 flops inhomo. stacks                           0       0.0%      0.0%      0.0%
 flops total                        19.630080E+06       0.0%    100.0%      0.0%
 flops max/rank                     19.630080E+06       0.0%    100.0%      0.0%
 matmuls inhomo. stacks                         0       0.0%      0.0%      0.0%
 matmuls total                              18540       0.0%    100.0%      0.0%
 number of processed stacks                   170       0.0%    100.0%      0.0%
 average stack size                                     0.0     109.1       0.0
 marketing flops                    22.118400E+06
 -------------------------------------------------------------------------------
 # multiplications                            130
 max memory usage/rank              13.669999E+09
 # max total images/rank                        1
 # max 3D layers                                1
 # MPI messages exchanged                       0
 -------------------------------------------------------------------------------
 -                                                                             -
 -                      DBCSR MESSAGE PASSING PERFORMANCE                      -
 -                                                                             -
 -------------------------------------------------------------------------------
 ROUTINE             CALLS      AVE VOLUME [Bytes]
 MP_Bcast                4                     12.
 MP_Allreduce          595                      9.
 MP_Alltoall          3960                  11677.
 MP_ISend              520                    849.
 MP_IRecv              520                    849.
 -------------------------------------------------------------------------------

 -------------------------------------------------------------------------------
 -                                                                             -
 -                          OFFLOAD MEMPOOL STATISTICS                         -
 -                                                                             -
 -------------------------------------------------------------------------------
 Memory consumption                Number of allocations  Used [MiB]  Size [MiB]
 Device                                                1           0           0
 Host                                                  1           0           0
 -------------------------------------------------------------------------------

 MEMORY| Estimated peak process memory [MiB]                                 166

 -------------------------------------------------------------------------------
 -                                                                             -
 -                         MESSAGE PASSING PERFORMANCE                         -
 -                                                                             -
 -------------------------------------------------------------------------------

 ROUTINE             CALLS      AVE VOLUME [Bytes]
 MP_Group               10
 MP_Bcast              178                    192.
 MP_Allreduce         1511                    100.
 MP_Sync                99
 MP_comm_split          89
 -------------------------------------------------------------------------------


 -------------------------------------------------------------------------------
 -                                                                             -
 -                           R E F E R E N C E S                               -
 -                                                                             -
 -------------------------------------------------------------------------------
 
 CP2K version 2026.1 (Development Version), the CP2K developers group (2026).
 CP2K is freely available from https://www.cp2k.org/ .
 
 M. Iannuzzi, J. Wilhelm, F. Stein, A. Bussy, H. Elgabarty, D. Golze, A. Hehn, 
 M. Graml, S. Marek, B. Sertcan Gökmen, C. Schran, H. Forbert, R. Z. 
 Khaliullin, A. Kozhevnikov, M. Taillefumier, R. Meli, V. V. Rybkin, M. Brehm, 
 R. Schade, O. Schütt, J. V. Pototschnig, H. Mirhosseini, A. Knüpfer, D. Marx, 
 M. Krack, J. Hutter, T. D. Kühne.
 J. Phys. Chem. B 130, 1237-1310 (2026).
 The CP2K Program Package Made Simple.
 https://doi.org/10.1021/acs.jpcb.5c05851

 A. Katbashev, M. Stahn, T. Rose, V. Alizadeh, M. Friede, C. Plett, P. 
 Steinbach, S. Ehlert.
 J. Phys. Chem. A 129, 2667-2682 (2025).
 Overview on Building Blocks and Applications of Efficient and Robust Extended 
 Tight Binding.
 https://doi.org/10.1021/acs.jpca.4c08263

 T. D. Kühne, M. Iannuzzi, M. Del Ben, V. V. Rybkin, P. Seewald, F. Stein, T. 
 Laino, R. Z. Khaliullin, O. Schütt, F. Schiffmann, D. Golze, J. Wilhelm, S. 
 Chulkov, M. H. Bani-Hashemian, V. Weber, U. Borstnik, M. Taillefumier, A. S. 
 Jakobovits, A. Lazzaro, H. Pabst, T. Müller, R. Schade, M. Guidon, S. 
 Andermatt, N. Holmberg, G. K. Schenter, A. Hehn, A. Bussy, F. Belleflamme, G. 
 Tabacchi, A. Glöß, M. Lass, I. Bethune, C. J. Mundy, C. Plessl, M. Watkins, 
 J. VandeVondele, M. Krack, J. Hutter.
 J. Chem. Phys. 152, 194103 (2020).
 CP2K: An electronic structure and molecular dynamics software package - 
 Quickstep: Efficient and accurate electronic structure calculations.
 https://doi.org/10.1063/5.0007045

 P. Pracht, E. Caldeweyher, S. Ehlert, S. Grimme.
 ChemRxiv, (2019).
 A Robust Non-Self-Consistent Tight-Binding Quantum Chemistry Method for large 
 Molecules.
 https://doi.org/10.26434/chemrxiv.8326202.v1

 S. Grimme, C. Bannwarth, P. Shushkov.
 J. Chem. Theory Comput. 13, 1989 (2017).
 A Robust and Accurate Tight-Binding Quantum Chemical Method for Structures, 
 Vibrational Frequencies, and Noncovalent Interactions of Large Molecular 
 Systems Parametrized for All spd-Block Elements (Z = 1-86).
 https://doi.org/10.1021/acs.jctc.7b00118

 O. Schuett, P. Messmer, J. Hutter, J. VandeVondele.
 Electronic Structure Calculations on Graphics Processing Units, 173-190 (2016).
 GPU-Accelerated Sparse Matrix-Matrix Multiplication for Linear Scaling Density 
 Functional Theory.
 https://doi.org/10.1002/9781118670712.ch8

 A. Heinecke, G. Henry, M. Hutchinson, H. Pabst.
 Proceedings of Intl. Supercomputing Conference, 981-991 (2016).
 LIBXSMM: Accelerating Small Matrix Multiplications by Runtime Code Generation.
 https://doi.org/10.1109/SC.2016.83

 U. Borstnik, J. VandeVondele, V. Weber, J. Hutter.
 Parallel Comput. 40, 47-58 (2014).
 Sparse matrix multiplication: The distributed block-compressed sparse row 
 library.
 https://doi.org/10.1016/j.parco.2014.03.012

 T. D. Kühne, M. Krack, F. R. Mohamed, M. Parrinello.
 Phys. Rev. Lett. 98, 066401 (2007).
 Efficient and accurate Car-Parrinello-like approach to Born-Oppenheimer 
 molecular dynamics.
 https://doi.org/10.1103/PhysRevLett.98.066401

 M. Frigo, S. G. Johnson.
 Proc. IEEE 93, 216-231 (2005).
 The design and implementation of FFTW3.
 https://doi.org/10.1109/JPROC.2004.840301

 J. Kolafa.
 J. Comput. Chem. 25, 335-342 (2004).
 Time-reversible always stable predictor-corrector method for molecular dynamics 
 of polarizable molecules.
 https://doi.org/10.1002/jcc.10385

 N. D. Mermin.
 Phys. Rev. 137, A1441-A1443 (1965).
 Thermal Properties of the Inhomogeneous Electron Gas.
 https://doi.org/10.1103/PhysRev.137.A1441


 -------------------------------------------------------------------------------
 -                                                                             -
 -                                T I M I N G                                  -
 -                                                                             -
 -------------------------------------------------------------------------------
 SUBROUTINE                       CALLS  ASD         SELF TIME        TOTAL TIME
                                MAXIMUM       AVERAGE  MAXIMUM  AVERAGE  MAXIMUM
 CP2K                                 1  1.0    0.003    0.003    1.055    1.055
 cp_cell_opt                          1  2.0    0.000    0.000    1.048    1.048
 geoopt_bfgs                          1  3.0    0.002    0.002    1.048    1.048
 cp_eval_at                          11  4.0    0.002    0.002    1.032    1.032
 qs_forces                           10  5.0    0.001    0.001    1.006    1.006
 rebuild_ks_matrix                   80  9.6    0.000    0.000    0.421    0.421
 build_tblite_ks_matrix              80 10.6    0.420    0.420    0.421    0.421
 build_tblite_matrices               21  7.0    0.413    0.413    0.417    0.417
 qs_ks_update_qs_env_forces          10  6.0    0.000    0.000    0.415    0.415
 qs_energies                         11  5.9    0.000    0.000    0.377    0.377
 qs_energies_init_hamiltonians       11  6.9    0.000    0.000    0.188    0.188
 scf_env_do_scf                      11  6.9    0.000    0.000    0.137    0.137
 scf_env_do_scf_inner_loop           70  8.0    0.005    0.005    0.136    0.136
 qs_scf_new_mos                      70  9.0    0.001    0.001    0.114    0.114
 cp_dbcsr_plus_fm_fm_t               90 10.8    0.001    0.001    0.058    0.058
 dbcsr_multiply_generic             130 11.9    0.003    0.003    0.053    0.053
 calculate_dm_sparse                 80 10.0    0.000    0.000    0.053    0.053
 init_scf_run                        11  6.9    0.000    0.000    0.043    0.043
 scf_env_initial_rho_setup           11  7.9    0.000    0.000    0.039    0.039
 wfi_extrapolate                     11  8.9    0.000    0.000    0.039    0.039
 copy_dbcsr_to_fm                   180 10.5    0.001    0.001    0.034    0.034
 dbcsr_complete_redistribute        400 12.2    0.017    0.017    0.033    0.033
 eigensolver                         70 10.0    0.002    0.002    0.030    0.030
 cp_fm_syevd                         89 10.5    0.000    0.000    0.029    0.029
 make_m2s                           260 12.9    0.002    0.002    0.027    0.027
 cp_dbcsr_sm_fm_multiply             40 10.4    0.000    0.000    0.024    0.024
 -------------------------------------------------------------------------------

 The number of warnings for this run is : 0
 
 -------------------------------------------------------------------------------
  **** **** ******  **  PROGRAM ENDED AT                 2026-05-23 22:46:51.257
 ***** ** ***  *** **   PROGRAM RAN ON                                spark-c86c
 **    ****   ******    PROGRAM RAN BY                                  kuehne88
 ***** **    ** ** **   PROGRAM PROCESS ID                               2264521
  **** **  *******  **  PROGRAM STOPPED IN /home/kuehne88/periodic-gfn2-benchmar
                                           ks/X23b/runs/cellopt_gamma/GFN1/co2_G
                                           FN1_gamma_cellopt
