 DBCSR| CPU Multiplication driver                                           XSMM (U)
 DBCSR| Multrec recursion limit                                              512 (U)
 DBCSR| Multiplication stack size                                           1000 (D)
 DBCSR| Maximum elements for images                                    UNLIMITED (U)
 DBCSR| Multiplicative factor virtual images                                   1 (U)
 DBCSR| Use multiplication densification                                       T (D)
 DBCSR| Multiplication size stacks                                             3 (U)
 DBCSR| Use memory pool for CPU allocation                                     F (U)
 DBCSR| Number of 3D layers                                               SINGLE (U)
 DBCSR| Use MPI memory allocation                                              F (U)
 DBCSR| Use RMA algorithm                                                      F (U)
 DBCSR| Use Communication thread                                               T (U)
 DBCSR| Communication thread load                                             87 (D)
 DBCSR| MPI: My process id                                                     0
 DBCSR| MPI: Number of processes                                               1
 DBCSR| OMP: Current number of threads                                         1
 DBCSR| OMP: Max number of threads                                             1
 DBCSR| Split modifier for TAS multiplication algorithm                  1.0E+00 (U)


  **** **** ******  **  PROGRAM STARTED AT               2026-05-23 22:48:17.544
 ***** ** ***  *** **   PROGRAM STARTED ON                            spark-c86c
 **    ****   ******    PROGRAM STARTED BY                              kuehne88
 ***** **    ** ** **   PROGRAM PROCESS ID                               2271340
  **** **  *******  **  PROGRAM STARTED IN /home/kuehne88/periodic-gfn2-benchmar
                                           ks/X23b/runs/cellopt_gamma/GFN2/uraci
                                           l_GFN2_gamma_cellopt

 CP2K| version string:                 CP2K version 2026.1 (Development Version)
 CP2K| source code revision number:                                   0622d442e4
 CP2K| cp2kflags: omp fftw3 libxc parallel scalapack mpi_f08 xsmm spglib libdftd
 CP2K|            4 dftd4_v3 mctc-lib tblite
 CP2K| is freely available from                            https://www.cp2k.org/
 CP2K| Program compiled at                                   2026-05-23 22:05:08
 CP2K| Program compiled on                                            spark-c86c
 CP2K| Program compiled for                                              aarch64
 CP2K| Data directory path    /home/kuehne88/cp2k-master-tblite-20260523/install
 CP2K| Input file name                             uracil_GFN2_gamma_cellopt.inp

 GLOBAL| Force Environment number                                              1
 GLOBAL| Basis set file name                                           BASIS_SET
 GLOBAL| Potential file name                                           POTENTIAL
 GLOBAL| MM Potential file name                                     MM_POTENTIAL
 GLOBAL| Coordinate file name                                      __STD_INPUT__
 GLOBAL| Method name                                                        CP2K
 GLOBAL| Project name                                 uracil_GFN2_gamma_cell_opt
 GLOBAL| Run type                                                       CELL_OPT
 GLOBAL| FFT library                                                       FFTW3
 GLOBAL| Diagonalization library                                       ScaLAPACK
 GLOBAL| Cholesky decomposition library                                ScaLAPACK
 GLOBAL| DGEMM library                                                      BLAS
 GLOBAL| Direct generalized diagonalization requested                          F
 GLOBAL| Orthonormality check for eigenvectors                          DISABLED
 GLOBAL| Matrix multiplication library                                 ScaLAPACK
 GLOBAL| All-to-all communication in single precision                          F
 GLOBAL| FFTs using library dependent lengths                                  F
 GLOBAL| Grid backend                                                       AUTO
 GLOBAL| Global print level                                                  LOW
 GLOBAL| MPI I/O enabled                                                       T
 GLOBAL| Total number of message passing processes                             1
 GLOBAL| Number of distributed systems (nodes)                                 1
 GLOBAL| Number of threads for this process                                    1
 GLOBAL| This output is from process                                           0
 GLOBAL| OpenMP stack size per thread (OMP_STACKSIZE)                    default
 GLOBAL| CPU model name                                                  UNKNOWN
 GLOBAL| CPUID                                                              2200
 GLOBAL| Compiled for CPUID                                                 2000

 *** HINT in environment.F:970 :: The compiler target flags (arm_arch64)   ***
 *** used to build this binary cannot exploit all extensions of this CPU   ***
 *** model (arm_sve256). Consider compiler target flags as part of FCFLAGS ***
 *** and CFLAGS (ARCH file).                                               ***


 MEMORY| system memory details [Kb]
 MEMORY|                        rank 0           min           max       average
 MEMORY| MemTotal            125508532     125508532     125508532     125508532
 MEMORY| MemFree             104349740     104349740     104349740     104349740
 MEMORY| Buffers                868604        868604        868604        868604
 MEMORY| Cached               14100420      14100420      14100420      14100420
 MEMORY| Slab                  1599696       1599696       1599696       1599696
 MEMORY| SReclaimable           921528        921528        921528        921528
 MEMORY| MemLikelyFree       120240292     120240292     120240292     120240292


 GENERATE|  Preliminary Number of Bonds generated:                             0
 GENERATE|  Achieved consistency in connectivity generation.


                  #####   #####        #     #   #     #       #          
                 #     # #     #      #    ##### #     #   # #####  ####  
                 #     # #           #       #   ###   #       #   #    # 
                 #     #  #####     #        #   #  #  #   #   #   ###### 
                 #   # #       #   #         #   #   # #   #   #   #      
                 #    #  #     #  #          #   #  #  # # #   #    #   # 
                  #### #  #####  #           #   ###   ##  #   #     ###  

                                   GFN2-xTB  
                                 Version 0.0                       
                            Johann V. Pototschnig                  



 TOTAL NUMBERS AND MAXIMUM NUMBERS

  Total number of            - Atomic kinds:                                   4
                             - Atoms:                                         48
                             - Shell sets:                                    80
                             - Shells:                                        80
                             - Primitive Cartesian functions:                304
                             - Cartesian basis functions:                    144
                             - Spherical basis functions:                    144

  Maximum angular momentum of the orbital basis functions:                     1


 SCF PARAMETERS         Density guess:                                     MOPAC
                        --------------------------------------------------------
                        max_scf:                                             300
                        max_scf_history:                                       0
                        max_diis:                                              4
                        --------------------------------------------------------
                        eps_scf:                                        1.00E-09
                        eps_scf_history:                                0.00E+00
                        eps_diis:                                       1.00E-01
                        eps_eigval:                                     1.00E-05
                        --------------------------------------------------------
                        level_shift [a.u.]:                             0.000000
                        added MOs                                        60    0
                        --------------------------------------------------------
                        Mixing method:                           DIRECT_P_MIXING
                        --------------------------------------------------------
                        Smear method:                                FERMI_DIRAC
                        Electronic temperature [K]:                        300.0
                        Electronic temperature [a.u.]:                  9.50E-04
                        Accuracy threshold:                             1.00E-06
                        --------------------------------------------------------
                        No outer SCF

 CELL_OPT| Pressure tolerance [bar]:                                       100.0
 CELL_OPT| Keep volume of cell:                                               NO
 CELL_OPT| Keep angles between the cell vectors:                              NO
 CELL_OPT| Keep cell symmetry:                                                NO
 CELL_OPT| Constraint:                                                      NONE

 BFGS| Use rational function optimization for step estimation:                NO
 BFGS| Use model Hessian for initial guess:                                   NO
 BFGS| Restart Hessian:                                                       NO
 BFGS| Trust radius:                                                       0.472

 *******************************************************************************
 ***                     STARTING   CELL   OPTIMIZATION                      ***
 ***                                   BFGS                                  ***
 *******************************************************************************

 CELL| Volume [angstrom^3]:                                           463.386269
 CELL| Vector a [angstrom]:      11.938     0.000     0.000   |a| =    11.938000
 CELL| Vector b [angstrom]:       0.000    12.376     0.000   |b| =    12.376000
 CELL| Vector c [angstrom]:      -1.877     0.000     3.136   |c| =     3.655200
 CELL| Angle (b,c), alpha [degree]:                                    90.000000
 CELL| Angle (a,c), beta  [degree]:                                   120.900000
 CELL| Angle (a,b), gamma [degree]:                                    90.000000
 CELL| Numerically orthorhombic:                                              NO
 CELL| Periodicity                                                           XYZ

 Extrapolation method: initial_guess

 Number of electrons:                                                        168
 Number of occupied orbitals:                                                 84
 Number of molecular orbitals:                                               144

 Number of orbital functions:                                                144
 Number of independent orbital functions:                                    144


 SCF WAVEFUNCTION OPTIMIZATION

  Step     Update method      Time    Convergence         Total energy    Change
  ------------------------------------------------------------------------------
     1 TBLite/Diag 0.40E+00    0.0     1.12453012       -97.0045463373 -9.70E+01
     2 TBLite/Diag 0.40E+00    0.0     0.34754630       -98.1256115892 -1.12E+00
     3 TBLite/Diag 0.40E+00    0.0     0.13435165       -98.1522451717 -2.66E-02
     4 TBLite/Diag 0.40E+00    0.0     0.09616028       -98.1656331801 -1.34E-02
     5 TBLite/Diag 0.40E+00    0.0     0.05106662       -98.1720503974 -6.42E-03
     6 TBLite/Diag 0.40E+00    0.0     0.01804906       -98.1727967814 -7.46E-04
     7 TBLite/Diag 0.40E+00    0.0     0.00512394       -98.1728949466 -9.82E-05
     8 TBLite/Diag 0.40E+00    0.0     0.00296688       -98.1729019012 -6.95E-06
     9 TBLite/Diag 0.40E+00    0.0     0.00080923       -98.1729073371 -5.44E-06
    10 TBLite/Diag 0.40E+00    0.0     0.00018168       -98.1729071963  1.41E-07
    11 TBLite/Diag 0.40E+00    0.0     0.00017068       -98.1729075157 -3.19E-07
    12 TBLite/Diag 0.40E+00    0.0     0.00005038       -98.1729075255 -9.81E-09
    13 TBLite/Diag 0.40E+00    0.0     0.00002253       -98.1729075260 -5.22E-10
    14 TBLite/Diag 0.40E+00    0.0     0.00000970       -98.1729075264 -3.32E-10
    15 TBLite/Diag 0.40E+00    0.0     0.00000234       -98.1729075264 -6.44E-11
    16 TBLite/Diag 0.40E+00    0.0     0.00000087       -98.1729075264  1.48E-12
    17 TBLite/Diag 0.40E+00    0.0     0.00000091       -98.1729075264 -4.59E-12
    18 TBLite/Diag 0.40E+00    0.0     0.00000021       -98.1729075264 -4.83E-13
    19 TBLite/Diag 0.40E+00    0.0     0.00000003       -98.1729075264  7.11E-14
    20 TBLite/Diag 0.40E+00    0.0     9.3443E-09       -98.1729075264  1.42E-13
    21 TBLite/Diag 0.40E+00    0.0     4.5415E-09       -98.1729075264 -8.53E-14
    22 TBLite/Diag 0.40E+00    0.0     8.7308E-10       -98.1729075264 -1.14E-13

  *** SCF run converged in    22 steps ***


  Core Hamiltonian energy:                                   -100.14974500666361
  Repulsive potential energy:                                   1.81542087187107
  Electrostatic energy:                                         0.27447336436501
  Self-consistent dispersion energy:                           -0.14116796099684
  Non-self consistent dispersion energy:                        0.02811120498653
  Correction for halogen bonding:                               0.00000000000000
  Electronic entropic energy:                                  -0.00000000000000
  Fermi energy:                                                -0.31239889017614

  Total energy:                                               -98.17290752643784
  Total energy (extrapolated to T->0):                        -98.17290752643784

 ENERGY| Total FORCE_EVAL ( QS ) energy [hartree]            -98.172907526437839

 OPT| **************************************************************************
 OPT| Step number                                                              0
 OPT| Optimization method                                                   BFGS
 OPT| Total energy [hartree]                                      -98.1729075264
 OPT| Internal pressure [bar]                                  193771.3930070026
 OPT| Used time [s]                                                        3.445
 OPT| **************************************************************************
 OPT| Estimated peak process memory [MiB]                                    170

 --------------------------
 OPTIMIZATION STEP:      1
 --------------------------

 CELL| Volume [angstrom^3]:                                           478.585420
 CELL| Vector a [angstrom]:      12.006     0.000     0.000   |a| =    12.006440
 CELL| Vector b [angstrom]:       0.000    12.429     0.000   |b| =    12.429059
 CELL| Vector c [angstrom]:      -1.896     0.000     3.207   |c| =     3.725432
 CELL| Angle (b,c), alpha [degree]:                                    90.000000
 CELL| Angle (a,c), beta  [degree]:                                   120.587200
 CELL| Angle (a,b), gamma [degree]:                                    90.000000
 CELL| Numerically orthorhombic:                                              NO
 CELL| Periodicity                                                           XYZ

 Extrapolation method: ASPC

 Number of electrons:                                                        168
 Number of occupied orbitals:                                                 84
 Number of molecular orbitals:                                               144

 Number of orbital functions:                                                144
 Number of independent orbital functions:                                    144


 SCF WAVEFUNCTION OPTIMIZATION

  Step     Update method      Time    Convergence         Total energy    Change
  ------------------------------------------------------------------------------
     1 TBLite/Diag 0.40E+00    0.0     0.26102554       -98.3912910723 -9.84E+01
     2 TBLite/Diag 0.40E+00    0.0     0.03447947       -98.3978677182 -6.58E-03
     3 TBLite/Diag 0.40E+00    0.0     0.02633027       -98.3978811087 -1.34E-05
     4 TBLite/Diag 0.40E+00    0.0     0.01964873       -98.3988576671 -9.77E-04
     5 TBLite/Diag 0.40E+00    0.0     0.00449950       -98.3989493864 -9.17E-05
     6 TBLite/Diag 0.40E+00    0.0     0.00058711       -98.3989499863 -6.00E-07
     7 TBLite/Diag 0.40E+00    0.0     0.00022711       -98.3989504242 -4.38E-07
     8 TBLite/Diag 0.40E+00    0.0     0.00005732       -98.3989504432 -1.90E-08
     9 TBLite/Diag 0.40E+00    0.0     0.00001563       -98.3989504464 -3.21E-09
    10 TBLite/Diag 0.40E+00    0.0     0.00000741       -98.3989504470 -5.82E-10
    11 TBLite/Diag 0.40E+00    0.0     0.00000269       -98.3989504471 -6.20E-11
    12 TBLite/Diag 0.40E+00    0.0     0.00000121       -98.3989504471 -4.65E-12
    13 TBLite/Diag 0.40E+00    0.0     0.00000112       -98.3989504471  3.27E-13
    14 TBLite/Diag 0.40E+00    0.0     0.00000067       -98.3989504471 -2.25E-12
    15 TBLite/Diag 0.40E+00    0.0     0.00000005       -98.3989504471 -1.42E-14
    16 TBLite/Diag 0.40E+00    0.0     0.00000002       -98.3989504471  0.00E+00
    17 TBLite/Diag 0.40E+00    0.0     4.2438E-09       -98.3989504471 -7.11E-14
    18 TBLite/Diag 0.40E+00    0.0     1.9307E-09       -98.3989504471  2.84E-14
    19 TBLite/Diag 0.40E+00    0.0     2.4054E-10       -98.3989504471  8.53E-14

  *** SCF run converged in    19 steps ***


  Core Hamiltonian energy:                                    -99.93578846660866
  Repulsive potential energy:                                   1.34918376882183
  Electrostatic energy:                                         0.29759825021757
  Self-consistent dispersion energy:                           -0.13618534458703
  Non-self consistent dispersion energy:                        0.02624134509194
  Correction for halogen bonding:                               0.00000000000000
  Electronic entropic energy:                                  -0.00000000000000
  Fermi energy:                                                -0.29436051946860

  Total energy:                                               -98.39895044706434
  Total energy (extrapolated to T->0):                        -98.39895044706434

 ENERGY| Total FORCE_EVAL ( QS ) energy [hartree]            -98.398950447064337

 OPT| **************************************************************************
 OPT| Step number                                                              1
 OPT| Optimization method                                                   BFGS
 OPT| Total energy [hartree]                                      -98.3989504471
 OPT| Internal pressure [bar]                                  109103.6373028556
 OPT| Effective energy change [hartree]                            -0.2260429206
 OPT| Predicted energy change [hartree]                            -0.6242885498
 OPT| Scaling factor                                                0.0000000000
 OPT| Step size                                                     0.2655833221
 OPT| Trust radius                                                  0.4724315332
 OPT| Decrease in energy                                                     YES
 OPT| Used time [s]                                                        1.870
 OPT|
 OPT| Maximum step size                                             0.2655833221
 OPT| Convergence limit for maximum step size                       0.0030000000
 OPT| Maximum step size is converged                                          NO
 OPT|
 OPT| RMS step size                                                 0.0912351211
 OPT| Convergence limit for RMS step size                           0.0015000000
 OPT| RMS step size is converged                                              NO
 OPT|
 OPT| Maximum gradient                                              0.1828265614
 OPT| Convergence limit for maximum gradient                        0.0004500000
 OPT| Maximum gradient is converged                                           NO
 OPT|
 OPT| RMS gradient                                                  0.0451168651
 OPT| Convergence limit for RMS gradient                            0.0003000000
 OPT| RMS gradient is converged                                               NO
 OPT|
 OPT| Pressure deviation [bar]                                 109103.6373028556
 OPT| Pressure tolerance [bar]                                    100.0000000000
 OPT| Pressure is converged                                                   NO
 OPT| **************************************************************************
 OPT| Estimated peak process memory after this step [MiB]                    171

 --------------------------
 OPTIMIZATION STEP:      2
 --------------------------

 CELL| Volume [angstrom^3]:                                           487.539662
 CELL| Vector a [angstrom]:      12.035     0.000     0.000   |a| =    12.035468
 CELL| Vector b [angstrom]:      -0.000    12.459     0.000   |b| =    12.459391
 CELL| Vector c [angstrom]:      -1.910    -0.000     3.251   |c| =     3.771006
 CELL| Angle (b,c), alpha [degree]:                                    90.000000
 CELL| Angle (a,c), beta  [degree]:                                   120.438877
 CELL| Angle (a,b), gamma [degree]:                                    90.000000
 CELL| Numerically orthorhombic:                                              NO
 CELL| Periodicity                                                           XYZ

 Extrapolation method: ASPC

 Number of electrons:                                                        168
 Number of occupied orbitals:                                                 84
 Number of molecular orbitals:                                               144

 Number of orbital functions:                                                144
 Number of independent orbital functions:                                    144


 SCF WAVEFUNCTION OPTIMIZATION

  Step     Update method      Time    Convergence         Total energy    Change
  ------------------------------------------------------------------------------
     1 TBLite/Diag 0.40E+00    0.0     0.07961671       -98.5323121140 -9.85E+01
     2 TBLite/Diag 0.40E+00    0.0     0.02743848       -98.5340717487 -1.76E-03
     3 TBLite/Diag 0.40E+00    0.0     0.01868084       -98.5344381096 -3.66E-04
     4 TBLite/Diag 0.40E+00    0.0     0.01120371       -98.5346159587 -1.78E-04
     5 TBLite/Diag 0.40E+00    0.0     0.00316434       -98.5346653860 -4.94E-05
     6 TBLite/Diag 0.40E+00    0.0     0.00024247       -98.5346655221 -1.36E-07
     7 TBLite/Diag 0.40E+00    0.0     0.00016780       -98.5346656466 -1.25E-07
     8 TBLite/Diag 0.40E+00    0.0     0.00003217       -98.5346656567 -1.01E-08
     9 TBLite/Diag 0.40E+00    0.0     0.00000629       -98.5346656570 -2.87E-10
    10 TBLite/Diag 0.40E+00    0.0     0.00000478       -98.5346656571 -1.24E-10
    11 TBLite/Diag 0.40E+00    0.0     0.00000070       -98.5346656571 -4.09E-12
    12 TBLite/Diag 0.40E+00    0.0     0.00000062       -98.5346656571 -3.41E-13
    13 TBLite/Diag 0.40E+00    0.0     0.00000038       -98.5346656571 -1.14E-13
    14 TBLite/Diag 0.40E+00    0.0     0.00000020       -98.5346656571 -1.99E-13
    15 TBLite/Diag 0.40E+00    0.0     0.00000001       -98.5346656571  1.99E-13
    16 TBLite/Diag 0.40E+00    0.0     4.4767E-09       -98.5346656571 -2.42E-13
    17 TBLite/Diag 0.40E+00    0.0     1.1400E-09       -98.5346656571  1.28E-13
    18 TBLite/Diag 0.40E+00    0.0     3.8599E-10       -98.5346656571  7.11E-14

  *** SCF run converged in    18 steps ***


  Core Hamiltonian energy:                                    -99.94891800266157
  Repulsive potential energy:                                   1.23364974900780
  Electrostatic energy:                                         0.28858548134798
  Self-consistent dispersion energy:                           -0.13329736306590
  Non-self consistent dispersion energy:                        0.02531447822528
  Correction for halogen bonding:                               0.00000000000000
  Electronic entropic energy:                                  -0.00000000000000
  Fermi energy:                                                -0.30869708351107

  Total energy:                                               -98.53466565714642
  Total energy (extrapolated to T->0):                        -98.53466565714642

 ENERGY| Total FORCE_EVAL ( QS ) energy [hartree]            -98.534665657146419

 OPT| **************************************************************************
 OPT| Step number                                                              2
 OPT| Optimization method                                                   BFGS
 OPT| Total energy [hartree]                                      -98.5346656571
 OPT| Internal pressure [bar]                                   55530.7284951208
 OPT| Effective energy change [hartree]                            -0.1357152101
 OPT| Predicted energy change [hartree]                            -0.0991126297
 OPT| Scaling factor                                                0.0000000000
 OPT| Step size                                                     0.1181787499
 OPT| Trust radius                                                  0.4724315332
 OPT| Decrease in energy                                                     YES
 OPT| Used time [s]                                                        1.564
 OPT|
 OPT| Maximum step size                                             0.1181787499
 OPT| Convergence limit for maximum step size                       0.0030000000
 OPT| Maximum step size is converged                                          NO
 OPT|
 OPT| RMS step size                                                 0.0297797992
 OPT| Convergence limit for RMS step size                           0.0015000000
 OPT| RMS step size is converged                                              NO
 OPT|
 OPT| Maximum gradient                                              0.0846962115
 OPT| Convergence limit for maximum gradient                        0.0004500000
 OPT| Maximum gradient is converged                                           NO
 OPT|
 OPT| RMS gradient                                                  0.0203588221
 OPT| Convergence limit for RMS gradient                            0.0003000000
 OPT| RMS gradient is converged                                               NO
 OPT|
 OPT| Pressure deviation [bar]                                  55530.7284951208
 OPT| Pressure tolerance [bar]                                    100.0000000000
 OPT| Pressure is converged                                                   NO
 OPT| **************************************************************************
 OPT| Estimated peak process memory after this step [MiB]                    172

 --------------------------
 OPTIMIZATION STEP:      3
 --------------------------

 CELL| Volume [angstrom^3]:                                           501.589193
 CELL| Vector a [angstrom]:      12.074     0.000     0.000   |a| =    12.074415
 CELL| Vector b [angstrom]:      -0.000    12.476     0.000   |b| =    12.476224
 CELL| Vector c [angstrom]:      -1.941    -0.000     3.330   |c| =     3.854234
 CELL| Angle (b,c), alpha [degree]:                                    90.000000
 CELL| Angle (a,c), beta  [degree]:                                   120.243278
 CELL| Angle (a,b), gamma [degree]:                                    90.000000
 CELL| Numerically orthorhombic:                                              NO
 CELL| Periodicity                                                           XYZ

 Extrapolation method: ASPC

 Number of electrons:                                                        168
 Number of occupied orbitals:                                                 84
 Number of molecular orbitals:                                               144

 Number of orbital functions:                                                144
 Number of independent orbital functions:                                    144


 SCF WAVEFUNCTION OPTIMIZATION

  Step     Update method      Time    Convergence         Total energy    Change
  ------------------------------------------------------------------------------
     1 TBLite/Diag 0.40E+00    0.0     0.09898361       -98.5783577035 -9.86E+01
     2 TBLite/Diag 0.40E+00    0.0     0.03154104       -98.5807888042 -2.43E-03
     3 TBLite/Diag 0.40E+00    0.0     0.02085060       -98.5812398975 -4.51E-04
     4 TBLite/Diag 0.40E+00    0.0     0.01244699       -98.5814266690 -1.87E-04
     5 TBLite/Diag 0.40E+00    0.0     0.00418708       -98.5814988323 -7.22E-05
     6 TBLite/Diag 0.40E+00    0.0     0.00033285       -98.5814992173 -3.85E-07
     7 TBLite/Diag 0.40E+00    0.0     0.00016476       -98.5814993091 -9.18E-08
     8 TBLite/Diag 0.40E+00    0.0     0.00005126       -98.5814993205 -1.15E-08
     9 TBLite/Diag 0.40E+00    0.0     0.00000722       -98.5814993214 -8.24E-10
    10 TBLite/Diag 0.40E+00    0.0     0.00000397       -98.5814993215 -1.60E-10
    11 TBLite/Diag 0.40E+00    0.0     0.00000254       -98.5814993216 -3.03E-11
    12 TBLite/Diag 0.40E+00    0.0     0.00000120       -98.5814993216 -7.82E-12
    13 TBLite/Diag 0.40E+00    0.0     0.00000075       -98.5814993216 -1.85E-13
    14 TBLite/Diag 0.40E+00    0.0     0.00000054       -98.5814993216 -3.69E-13
    15 TBLite/Diag 0.40E+00    0.0     0.00000024       -98.5814993216 -2.42E-13
    16 TBLite/Diag 0.40E+00    0.0     9.0503E-09       -98.5814993216  5.68E-14
    17 TBLite/Diag 0.40E+00    0.0     2.7042E-09       -98.5814993216 -1.42E-13
    18 TBLite/Diag 0.40E+00    0.0     3.1294E-10       -98.5814993216  1.42E-13

  *** SCF run converged in    18 steps ***


  Core Hamiltonian energy:                                    -99.94095064450443
  Repulsive potential energy:                                   1.18923672959919
  Electrostatic energy:                                         0.27513691063464
  Self-consistent dispersion energy:                           -0.12891729243170
  Non-self consistent dispersion energy:                        0.02399497513364
  Correction for halogen bonding:                               0.00000000000000
  Electronic entropic energy:                                  -0.00000000000000
  Fermi energy:                                                -0.31153525692211

  Total energy:                                               -98.58149932156866
  Total energy (extrapolated to T->0):                        -98.58149932156866

 ENERGY| Total FORCE_EVAL ( QS ) energy [hartree]            -98.581499321568657

 OPT| **************************************************************************
 OPT| Step number                                                              3
 OPT| Optimization method                                                   BFGS
 OPT| Total energy [hartree]                                      -98.5814993216
 OPT| Internal pressure [bar]                                   21343.0835721810
 OPT| Effective energy change [hartree]                            -0.0468336644
 OPT| Predicted energy change [hartree]                            -0.0470121075
 OPT| Scaling factor                                                0.0000000000
 OPT| Step size                                                     0.1481614800
 OPT| Trust radius                                                  0.4724315332
 OPT| Decrease in energy                                                     YES
 OPT| Used time [s]                                                        1.433
 OPT|
 OPT| Maximum step size                                             0.1481614800
 OPT| Convergence limit for maximum step size                       0.0030000000
 OPT| Maximum step size is converged                                          NO
 OPT|
 OPT| RMS step size                                                 0.0311434506
 OPT| Convergence limit for RMS step size                           0.0015000000
 OPT| RMS step size is converged                                              NO
 OPT|
 OPT| Maximum gradient                                              0.0640917528
 OPT| Convergence limit for maximum gradient                        0.0004500000
 OPT| Maximum gradient is converged                                           NO
 OPT|
 OPT| RMS gradient                                                  0.0094759022
 OPT| Convergence limit for RMS gradient                            0.0003000000
 OPT| RMS gradient is converged                                               NO
 OPT|
 OPT| Pressure deviation [bar]                                  21343.0835721810
 OPT| Pressure tolerance [bar]                                    100.0000000000
 OPT| Pressure is converged                                                   NO
 OPT| **************************************************************************
 OPT| Estimated peak process memory after this step [MiB]                    173

 --------------------------
 OPTIMIZATION STEP:      4
 --------------------------

 CELL| Volume [angstrom^3]:                                           509.152819
 CELL| Vector a [angstrom]:      12.086     0.000     0.000   |a| =    12.086204
 CELL| Vector b [angstrom]:       0.000    12.481     0.000   |b| =    12.480534
 CELL| Vector c [angstrom]:      -1.965     0.000     3.375   |c| =     3.905553
 CELL| Angle (b,c), alpha [degree]:                                    90.000000
 CELL| Angle (a,c), beta  [degree]:                                   120.202102
 CELL| Angle (a,b), gamma [degree]:                                    90.000000
 CELL| Numerically orthorhombic:                                              NO
 CELL| Periodicity                                                           XYZ

 Extrapolation method: ASPC

 Number of electrons:                                                        168
 Number of occupied orbitals:                                                 84
 Number of molecular orbitals:                                               144

 Number of orbital functions:                                                144
 Number of independent orbital functions:                                    144


 SCF WAVEFUNCTION OPTIMIZATION

  Step     Update method      Time    Convergence         Total energy    Change
  ------------------------------------------------------------------------------
     1 TBLite/Diag 0.40E+00    0.0     0.01265886       -98.5922253294 -9.86E+01
     2 TBLite/Diag 0.40E+00    0.0     0.00589412       -98.5923110878 -8.58E-05
     3 TBLite/Diag 0.40E+00    0.0     0.00433536       -98.5923107976  2.90E-07
     4 TBLite/Diag 0.40E+00    0.0     0.00328547       -98.5923314140 -2.06E-05
     5 TBLite/Diag 0.40E+00    0.0     0.00092126       -98.5923343191 -2.91E-06
     6 TBLite/Diag 0.40E+00    0.0     0.00008615       -98.5923343531 -3.40E-08
     7 TBLite/Diag 0.40E+00    0.0     0.00003533       -98.5923343630 -9.94E-09
     8 TBLite/Diag 0.40E+00    0.0     0.00001248       -98.5923343646 -1.54E-09
     9 TBLite/Diag 0.40E+00    0.0     0.00000262       -98.5923343647 -9.25E-11
    10 TBLite/Diag 0.40E+00    0.0     0.00000183       -98.5923343647 -1.55E-11
    11 TBLite/Diag 0.40E+00    0.0     0.00000096       -98.5923343647  0.00E+00
    12 TBLite/Diag 0.40E+00    0.0     0.00000096       -98.5923343647 -9.66E-13
    13 TBLite/Diag 0.40E+00    0.0     0.00000041       -98.5923343647 -6.68E-13
    14 TBLite/Diag 0.40E+00    0.0     0.00000004       -98.5923343647  4.26E-14
    15 TBLite/Diag 0.40E+00    0.0     0.00000001       -98.5923343647 -4.26E-14
    16 TBLite/Diag 0.40E+00    0.0     4.9042E-09       -98.5923343647  0.00E+00
    17 TBLite/Diag 0.40E+00    0.0     3.8829E-10       -98.5923343647  4.26E-14

  *** SCF run converged in    17 steps ***


  Core Hamiltonian energy:                                    -99.92584241871970
  Repulsive potential energy:                                   1.16100785085536
  Electrostatic energy:                                         0.27572515136438
  Self-consistent dispersion energy:                           -0.12657713622747
  Non-self consistent dispersion energy:                        0.02335218804722
  Correction for halogen bonding:                               0.00000000000000
  Electronic entropic energy:                                  -0.00000000000000
  Fermi energy:                                                -0.31262587806401

  Total energy:                                               -98.59233436468020
  Total energy (extrapolated to T->0):                        -98.59233436468020

 ENERGY| Total FORCE_EVAL ( QS ) energy [hartree]            -98.592334364680198

 OPT| **************************************************************************
 OPT| Step number                                                              4
 OPT| Optimization method                                                   BFGS
 OPT| Total energy [hartree]                                      -98.5923343647
 OPT| Internal pressure [bar]                                   10276.2482518746
 OPT| Effective energy change [hartree]                            -0.0108350431
 OPT| Predicted energy change [hartree]                            -0.0065452439
 OPT| Scaling factor                                                0.0000000000
 OPT| Step size                                                     0.0864483013
 OPT| Trust radius                                                  0.4724315332
 OPT| Decrease in energy                                                     YES
 OPT| Used time [s]                                                        2.188
 OPT|
 OPT| Maximum step size                                             0.0864483013
 OPT| Convergence limit for maximum step size                       0.0030000000
 OPT| Maximum step size is converged                                          NO
 OPT|
 OPT| RMS step size                                                 0.0105648125
 OPT| Convergence limit for RMS step size                           0.0015000000
 OPT| RMS step size is converged                                              NO
 OPT|
 OPT| Maximum gradient                                              0.0527032859
 OPT| Convergence limit for maximum gradient                        0.0004500000
 OPT| Maximum gradient is converged                                           NO
 OPT|
 OPT| RMS gradient                                                  0.0068112762
 OPT| Convergence limit for RMS gradient                            0.0003000000
 OPT| RMS gradient is converged                                               NO
 OPT|
 OPT| Pressure deviation [bar]                                  10276.2482518746
 OPT| Pressure tolerance [bar]                                    100.0000000000
 OPT| Pressure is converged                                                   NO
 OPT| **************************************************************************
 OPT| Estimated peak process memory after this step [MiB]                    173

 --------------------------
 OPTIMIZATION STEP:      5
 --------------------------

 CELL| Volume [angstrom^3]:                                           532.760426
 CELL| Vector a [angstrom]:      12.118     0.000     0.000   |a| =    12.117585
 CELL| Vector b [angstrom]:       0.000    12.481     0.000   |b| =    12.481008
 CELL| Vector c [angstrom]:      -2.046     0.000     3.523   |c| =     4.073500
 CELL| Angle (b,c), alpha [degree]:                                    90.000000
 CELL| Angle (a,c), beta  [degree]:                                   120.144032
 CELL| Angle (a,b), gamma [degree]:                                    90.000000
 CELL| Numerically orthorhombic:                                              NO
 CELL| Periodicity                                                           XYZ

 Extrapolation method: ASPC

 Number of electrons:                                                        168
 Number of occupied orbitals:                                                 84
 Number of molecular orbitals:                                               144

 Number of orbital functions:                                                144
 Number of independent orbital functions:                                    144


 SCF WAVEFUNCTION OPTIMIZATION

  Step     Update method      Time    Convergence         Total energy    Change
  ------------------------------------------------------------------------------
     1 TBLite/Diag 0.40E+00    0.0     0.02352679       -98.6088459840 -9.86E+01
     2 TBLite/Diag 0.40E+00    0.0     0.00560846       -98.6089986921 -1.53E-04
     3 TBLite/Diag 0.40E+00    0.0     0.00357787       -98.6089806008  1.81E-05
     4 TBLite/Diag 0.40E+00    0.0     0.00310748       -98.6090137038 -3.31E-05
     5 TBLite/Diag 0.40E+00    0.0     0.00134222       -98.6090196763 -5.97E-06
     6 TBLite/Diag 0.40E+00    0.0     0.00022081       -98.6090197007 -2.44E-08
     7 TBLite/Diag 0.40E+00    0.0     0.00012058       -98.6090197812 -8.05E-08
     8 TBLite/Diag 0.40E+00    0.0     0.00001356       -98.6090197826 -1.43E-09
     9 TBLite/Diag 0.40E+00    0.0     0.00000585       -98.6090197829 -3.18E-10
    10 TBLite/Diag 0.40E+00    0.0     0.00000376       -98.6090197830 -5.08E-11
    11 TBLite/Diag 0.40E+00    0.0     0.00000218       -98.6090197830  2.98E-12
    12 TBLite/Diag 0.40E+00    0.0     0.00000175       -98.6090197830 -7.86E-12
    13 TBLite/Diag 0.40E+00    0.0     0.00000047       -98.6090197830 -2.98E-13
    14 TBLite/Diag 0.40E+00    0.0     0.00000015       -98.6090197830 -1.42E-13
    15 TBLite/Diag 0.40E+00    0.0     0.00000001       -98.6090197830 -4.26E-14
    16 TBLite/Diag 0.40E+00    0.0     7.3845E-09       -98.6090197830 -8.53E-14
    17 TBLite/Diag 0.40E+00    0.0     1.1496E-09       -98.6090197830  1.14E-13
    18 TBLite/Diag 0.40E+00    0.0     8.4730E-10       -98.6090197830 -8.53E-14

  *** SCF run converged in    18 steps ***


  Core Hamiltonian energy:                                    -99.89449051969018
  Repulsive potential energy:                                   1.10744169699435
  Electrostatic energy:                                         0.27601452867794
  Self-consistent dispersion energy:                           -0.11956243725330
  Non-self consistent dispersion energy:                        0.02157694829512
  Correction for halogen bonding:                               0.00000000000000
  Electronic entropic energy:                                  -0.00000000000000
  Fermi energy:                                                -0.31400748855585

  Total energy:                                               -98.60901978297605
  Total energy (extrapolated to T->0):                        -98.60901978297605

 ENERGY| Total FORCE_EVAL ( QS ) energy [hartree]            -98.609019782976048

 OPT| **************************************************************************
 OPT| Step number                                                              5
 OPT| Optimization method                                                   BFGS
 OPT| Total energy [hartree]                                      -98.6090197830
 OPT| Internal pressure [bar]                                  -12479.7006258664
 OPT| Effective energy change [hartree]                            -0.0166854183
 OPT| Predicted energy change [hartree]                            -0.0138241792
 OPT| Scaling factor                                                0.0000000000
 OPT| Step size                                                     0.2782146220
 OPT| Trust radius                                                  0.4724315332
 OPT| Decrease in energy                                                     YES
 OPT| Used time [s]                                                        2.668
 OPT|
 OPT| Maximum step size                                             0.2782146220
 OPT| Convergence limit for maximum step size                       0.0030000000
 OPT| Maximum step size is converged                                          NO
 OPT|
 OPT| RMS step size                                                 0.0315401478
 OPT| Convergence limit for RMS step size                           0.0015000000
 OPT| RMS step size is converged                                              NO
 OPT|
 OPT| Maximum gradient                                              0.0252183505
 OPT| Convergence limit for maximum gradient                        0.0004500000
 OPT| Maximum gradient is converged                                           NO
 OPT|
 OPT| RMS gradient                                                  0.0044556761
 OPT| Convergence limit for RMS gradient                            0.0003000000
 OPT| RMS gradient is converged                                               NO
 OPT|
 OPT| Pressure deviation [bar]                                 -12479.7006258664
 OPT| Pressure tolerance [bar]                                    100.0000000000
 OPT| Pressure is converged                                                   NO
 OPT| **************************************************************************
 OPT| Estimated peak process memory after this step [MiB]                    173

 --------------------------
 OPTIMIZATION STEP:      6
 --------------------------

 CELL| Volume [angstrom^3]:                                           543.920301
 CELL| Vector a [angstrom]:      12.124     0.000     0.000   |a| =    12.123824
 CELL| Vector b [angstrom]:      -0.000    12.469     0.000   |b| =    12.469132
 CELL| Vector c [angstrom]:      -2.095    -0.000     3.598   |c| =     4.163514
 CELL| Angle (b,c), alpha [degree]:                                    90.000000
 CELL| Angle (a,c), beta  [degree]:                                   120.211878
 CELL| Angle (a,b), gamma [degree]:                                    90.000000
 CELL| Numerically orthorhombic:                                              NO
 CELL| Periodicity                                                           XYZ

 Extrapolation method: ASPC

 Number of electrons:                                                        168
 Number of occupied orbitals:                                                 84
 Number of molecular orbitals:                                               144

 Number of orbital functions:                                                144
 Number of independent orbital functions:                                    144


 SCF WAVEFUNCTION OPTIMIZATION

  Step     Update method      Time    Convergence         Total energy    Change
  ------------------------------------------------------------------------------
     1 TBLite/Diag 0.40E+00    0.0     0.00863235       -98.6133850240 -9.86E+01
     2 TBLite/Diag 0.40E+00    0.0     0.00255631       -98.6134226528 -3.76E-05
     3 TBLite/Diag 0.40E+00    0.0     0.00212148       -98.6134182720  4.38E-06
     4 TBLite/Diag 0.40E+00    0.0     0.00218401       -98.6134245938 -6.32E-06
     5 TBLite/Diag 0.40E+00    0.0     0.00072982       -98.6134264369 -1.84E-06
     6 TBLite/Diag 0.40E+00    0.0     0.00004397       -98.6134264445 -7.57E-09
     7 TBLite/Diag 0.40E+00    0.0     0.00002862       -98.6134264491 -4.68E-09
     8 TBLite/Diag 0.40E+00    0.0     0.00000459       -98.6134264494 -2.64E-10
     9 TBLite/Diag 0.40E+00    0.0     0.00000273       -98.6134264495 -6.00E-11
    10 TBLite/Diag 0.40E+00    0.0     0.00000166       -98.6134264495 -1.32E-11
    11 TBLite/Diag 0.40E+00    0.0     0.00000038       -98.6134264495 -1.45E-12
    12 TBLite/Diag 0.40E+00    0.0     0.00000011       -98.6134264495 -2.70E-13
    13 TBLite/Diag 0.40E+00    0.0     0.00000009       -98.6134264495  0.00E+00
    14 TBLite/Diag 0.40E+00    0.0     0.00000007       -98.6134264495  7.11E-14
    15 TBLite/Diag 0.40E+00    0.0     0.00000002       -98.6134264495 -1.42E-14
    16 TBLite/Diag 0.40E+00    0.0     7.0828E-09       -98.6134264495 -8.53E-14
    17 TBLite/Diag 0.40E+00    0.0     6.0242E-10       -98.6134264495  5.68E-14

  *** SCF run converged in    17 steps ***


  Core Hamiltonian energy:                                    -99.89613914448442
  Repulsive potential energy:                                   1.10325726280151
  Electrostatic energy:                                         0.27501064929773
  Self-consistent dispersion energy:                           -0.11638167689723
  Non-self consistent dispersion energy:                        0.02082645981740
  Correction for halogen bonding:                               0.00000000000000
  Electronic entropic energy:                                  -0.00000000000000
  Fermi energy:                                                -0.31287679032042

  Total energy:                                               -98.61342644946502
  Total energy (extrapolated to T->0):                        -98.61342644946502

 ENERGY| Total FORCE_EVAL ( QS ) energy [hartree]            -98.613426449465024

 OPT| **************************************************************************
 OPT| Step number                                                              6
 OPT| Optimization method                                                   BFGS
 OPT| Total energy [hartree]                                      -98.6134264495
 OPT| Internal pressure [bar]                                  -15221.3199521689
 OPT| Effective energy change [hartree]                            -0.0044066665
 OPT| Predicted energy change [hartree]                            -0.0031051134
 OPT| Scaling factor                                                0.0000000000
 OPT| Step size                                                     0.1424135782
 OPT| Trust radius                                                  0.4724315332
 OPT| Decrease in energy                                                     YES
 OPT| Used time [s]                                                        2.590
 OPT|
 OPT| Maximum step size                                             0.1424135782
 OPT| Convergence limit for maximum step size                       0.0030000000
 OPT| Maximum step size is converged                                          NO
 OPT|
 OPT| RMS step size                                                 0.0155005902
 OPT| Convergence limit for RMS step size                           0.0015000000
 OPT| RMS step size is converged                                              NO
 OPT|
 OPT| Maximum gradient                                              0.0208329984
 OPT| Convergence limit for maximum gradient                        0.0004500000
 OPT| Maximum gradient is converged                                           NO
 OPT|
 OPT| RMS gradient                                                  0.0037577074
 OPT| Convergence limit for RMS gradient                            0.0003000000
 OPT| RMS gradient is converged                                               NO
 OPT|
 OPT| Pressure deviation [bar]                                 -15221.3199521689
 OPT| Pressure tolerance [bar]                                    100.0000000000
 OPT| Pressure is converged                                                   NO
 OPT| **************************************************************************
 OPT| Estimated peak process memory after this step [MiB]                    173

 --------------------------
 OPTIMIZATION STEP:      7
 --------------------------

 CELL| Volume [angstrom^3]:                                           555.252819
 CELL| Vector a [angstrom]:      12.120     0.000     0.000   |a| =    12.119568
 CELL| Vector b [angstrom]:      -0.000    12.446     0.000   |b| =    12.445514
 CELL| Vector c [angstrom]:      -2.159    -0.000     3.681   |c| =     4.267874
 CELL| Angle (b,c), alpha [degree]:                                    90.000000
 CELL| Angle (a,c), beta  [degree]:                                   120.397016
 CELL| Angle (a,b), gamma [degree]:                                    90.000000
 CELL| Numerically orthorhombic:                                              NO
 CELL| Periodicity                                                           XYZ

 Extrapolation method: ASPC

 Number of electrons:                                                        168
 Number of occupied orbitals:                                                 84
 Number of molecular orbitals:                                               144

 Number of orbital functions:                                                144
 Number of independent orbital functions:                                    144


 SCF WAVEFUNCTION OPTIMIZATION

  Step     Update method      Time    Convergence         Total energy    Change
  ------------------------------------------------------------------------------
     1 TBLite/Diag 0.40E+00    0.0     0.00764616       -98.6169521195 -9.86E+01
     2 TBLite/Diag 0.40E+00    0.0     0.00447060       -98.6170239953 -7.19E-05
     3 TBLite/Diag 0.40E+00    0.0     0.00134360       -98.6170237746  2.21E-07
     4 TBLite/Diag 0.40E+00    0.0     0.00155285       -98.6170252712 -1.50E-06
     5 TBLite/Diag 0.40E+00    0.0     0.00076985       -98.6170270762 -1.81E-06
     6 TBLite/Diag 0.40E+00    0.0     0.00009475       -98.6170271061 -2.99E-08
     7 TBLite/Diag 0.40E+00    0.0     0.00002551       -98.6170271099 -3.71E-09
     8 TBLite/Diag 0.40E+00    0.0     0.00001134       -98.6170271108 -9.12E-10
     9 TBLite/Diag 0.40E+00    0.0     0.00000364       -98.6170271109 -1.15E-10
    10 TBLite/Diag 0.40E+00    0.0     0.00000110       -98.6170271109 -1.50E-11
    11 TBLite/Diag 0.40E+00    0.0     0.00000033       -98.6170271109 -3.55E-13
    12 TBLite/Diag 0.40E+00    0.0     0.00000022       -98.6170271109 -1.85E-13
    13 TBLite/Diag 0.40E+00    0.0     0.00000019       -98.6170271109  5.68E-14
    14 TBLite/Diag 0.40E+00    0.0     0.00000010       -98.6170271109 -1.28E-13
    15 TBLite/Diag 0.40E+00    0.0     0.00000002       -98.6170271109  9.95E-14
    16 TBLite/Diag 0.40E+00    0.0     2.0771E-09       -98.6170271109 -8.53E-14
    17 TBLite/Diag 0.40E+00    0.0     3.8310E-10       -98.6170271109 -4.26E-14

  *** SCF run converged in    17 steps ***


  Core Hamiltonian energy:                                    -99.91301230485530
  Repulsive potential energy:                                   1.11418081126447
  Electrostatic energy:                                         0.27487149319542
  Self-consistent dispersion energy:                           -0.11320529208191
  Non-self consistent dispersion energy:                        0.02013818157902
  Correction for halogen bonding:                               0.00000000000000
  Electronic entropic energy:                                  -0.00000000000000
  Fermi energy:                                                -0.31159899057665

  Total energy:                                               -98.61702711089831
  Total energy (extrapolated to T->0):                        -98.61702711089831

 ENERGY| Total FORCE_EVAL ( QS ) energy [hartree]            -98.617027110898306

 OPT| **************************************************************************
 OPT| Step number                                                              7
 OPT| Optimization method                                                   BFGS
 OPT| Total energy [hartree]                                      -98.6170271109
 OPT| Internal pressure [bar]                                  -13024.5612106159
 OPT| Effective energy change [hartree]                            -0.0036006614
 OPT| Predicted energy change [hartree]                            -0.0028141342
 OPT| Scaling factor                                                0.0000000000
 OPT| Step size                                                     0.1572749115
 OPT| Trust radius                                                  0.4724315332
 OPT| Decrease in energy                                                     YES
 OPT| Used time [s]                                                        2.551
 OPT|
 OPT| Maximum step size                                             0.1572749115
 OPT| Convergence limit for maximum step size                       0.0030000000
 OPT| Maximum step size is converged                                          NO
 OPT|
 OPT| RMS step size                                                 0.0176152811
 OPT| Convergence limit for RMS step size                           0.0015000000
 OPT| RMS step size is converged                                              NO
 OPT|
 OPT| Maximum gradient                                              0.0141119772
 OPT| Convergence limit for maximum gradient                        0.0004500000
 OPT| Maximum gradient is converged                                           NO
 OPT|
 OPT| RMS gradient                                                  0.0029247245
 OPT| Convergence limit for RMS gradient                            0.0003000000
 OPT| RMS gradient is converged                                               NO
 OPT|
 OPT| Pressure deviation [bar]                                 -13024.5612106159
 OPT| Pressure tolerance [bar]                                    100.0000000000
 OPT| Pressure is converged                                                   NO
 OPT| **************************************************************************
 OPT| Estimated peak process memory after this step [MiB]                    173

 --------------------------
 OPTIMIZATION STEP:      8
 --------------------------

 CELL| Volume [angstrom^3]:                                           560.329958
 CELL| Vector a [angstrom]:      12.107     0.000     0.000   |a| =    12.107011
 CELL| Vector b [angstrom]:      -0.000    12.424     0.000   |b| =    12.423693
 CELL| Vector c [angstrom]:      -2.204    -0.000     3.725   |c| =     4.328420
 CELL| Angle (b,c), alpha [degree]:                                    90.000000
 CELL| Angle (a,c), beta  [degree]:                                   120.610294
 CELL| Angle (a,b), gamma [degree]:                                    90.000000
 CELL| Numerically orthorhombic:                                              NO
 CELL| Periodicity                                                           XYZ

 Extrapolation method: ASPC

 Number of electrons:                                                        168
 Number of occupied orbitals:                                                 84
 Number of molecular orbitals:                                               144

 Number of orbital functions:                                                144
 Number of independent orbital functions:                                    144


 SCF WAVEFUNCTION OPTIMIZATION

  Step     Update method      Time    Convergence         Total energy    Change
  ------------------------------------------------------------------------------
     1 TBLite/Diag 0.40E+00    0.0     0.00463974       -98.6189819222 -9.86E+01
     2 TBLite/Diag 0.40E+00    0.0     0.00197760       -98.6190008168 -1.89E-05
     3 TBLite/Diag 0.40E+00    0.0     0.00137493       -98.6189994619  1.35E-06
     4 TBLite/Diag 0.40E+00    0.0     0.00126643       -98.6190014849 -2.02E-06
     5 TBLite/Diag 0.40E+00    0.0     0.00045932       -98.6190020817 -5.97E-07
     6 TBLite/Diag 0.40E+00    0.0     0.00007299       -98.6190020966 -1.49E-08
     7 TBLite/Diag 0.40E+00    0.0     0.00002191       -98.6190021002 -3.57E-09
     8 TBLite/Diag 0.40E+00    0.0     0.00000478       -98.6190021003 -1.27E-10
     9 TBLite/Diag 0.40E+00    0.0     0.00000175       -98.6190021003 -2.82E-11
    10 TBLite/Diag 0.40E+00    0.0     0.00000049       -98.6190021003 -2.93E-12
    11 TBLite/Diag 0.40E+00    0.0     0.00000029       -98.6190021003 -3.27E-13
    12 TBLite/Diag 0.40E+00    0.0     0.00000017       -98.6190021003 -1.56E-13
    13 TBLite/Diag 0.40E+00    0.0     0.00000010       -98.6190021003 -1.42E-14
    14 TBLite/Diag 0.40E+00    0.0     0.00000007       -98.6190021003 -7.11E-14
    15 TBLite/Diag 0.40E+00    0.0     0.00000002       -98.6190021003  2.84E-14
    16 TBLite/Diag 0.40E+00    0.0     1.3662E-09       -98.6190021003  5.68E-14
    17 TBLite/Diag 0.40E+00    0.0     2.1703E-10       -98.6190021003  5.68E-14

  *** SCF run converged in    17 steps ***


  Core Hamiltonian energy:                                    -99.93565936775936
  Repulsive potential energy:                                   1.13444693492010
  Electrostatic energy:                                         0.27413532069551
  Self-consistent dispersion energy:                           -0.11176328312130
  Non-self consistent dispersion energy:                        0.01983829494868
  Correction for halogen bonding:                               0.00000000000000
  Electronic entropic energy:                                  -0.00000000000000
  Fermi energy:                                                -0.31072137911336

  Total energy:                                               -98.61900210031637
  Total energy (extrapolated to T->0):                        -98.61900210031637

 ENERGY| Total FORCE_EVAL ( QS ) energy [hartree]            -98.619002100316365

 OPT| **************************************************************************
 OPT| Step number                                                              8
 OPT| Optimization method                                                   BFGS
 OPT| Total energy [hartree]                                      -98.6190021003
 OPT| Internal pressure [bar]                                   -6936.9458400609
 OPT| Effective energy change [hartree]                            -0.0019749894
 OPT| Predicted energy change [hartree]                            -0.0014022827
 OPT| Scaling factor                                                0.0000000000
 OPT| Step size                                                     0.0841261150
 OPT| Trust radius                                                  0.4724315332
 OPT| Decrease in energy                                                     YES
 OPT| Used time [s]                                                        2.537
 OPT|
 OPT| Maximum step size                                             0.0841261150
 OPT| Convergence limit for maximum step size                       0.0030000000
 OPT| Maximum step size is converged                                          NO
 OPT|
 OPT| RMS step size                                                 0.0110431579
 OPT| Convergence limit for RMS step size                           0.0015000000
 OPT| RMS step size is converged                                              NO
 OPT|
 OPT| Maximum gradient                                              0.0094063764
 OPT| Convergence limit for maximum gradient                        0.0004500000
 OPT| Maximum gradient is converged                                           NO
 OPT|
 OPT| RMS gradient                                                  0.0023259529
 OPT| Convergence limit for RMS gradient                            0.0003000000
 OPT| RMS gradient is converged                                               NO
 OPT|
 OPT| Pressure deviation [bar]                                  -6936.9458400609
 OPT| Pressure tolerance [bar]                                    100.0000000000
 OPT| Pressure is converged                                                   NO
 OPT| **************************************************************************
 OPT| Estimated peak process memory after this step [MiB]                    173

 --------------------------
 OPTIMIZATION STEP:      9
 --------------------------

 CELL| Volume [angstrom^3]:                                           563.064714
 CELL| Vector a [angstrom]:      12.090     0.000     0.000   |a| =    12.090287
 CELL| Vector b [angstrom]:       0.000    12.402     0.000   |b| =    12.402496
 CELL| Vector c [angstrom]:      -2.246    -0.000     3.755   |c| =     4.375378
 CELL| Angle (b,c), alpha [degree]:                                    90.000000
 CELL| Angle (a,c), beta  [degree]:                                   120.883037
 CELL| Angle (a,b), gamma [degree]:                                    90.000000
 CELL| Numerically orthorhombic:                                              NO
 CELL| Periodicity                                                           XYZ

 Extrapolation method: ASPC

 Number of electrons:                                                        168
 Number of occupied orbitals:                                                 84
 Number of molecular orbitals:                                               144

 Number of orbital functions:                                                144
 Number of independent orbital functions:                                    144


 SCF WAVEFUNCTION OPTIMIZATION

  Step     Update method      Time    Convergence         Total energy    Change
  ------------------------------------------------------------------------------
     1 TBLite/Diag 0.40E+00    0.0     0.00616060       -98.6204297226 -9.86E+01
     2 TBLite/Diag 0.40E+00    0.0     0.00249826       -98.6204514829 -2.18E-05
     3 TBLite/Diag 0.40E+00    0.0     0.00079231       -98.6204512773  2.06E-07
     4 TBLite/Diag 0.40E+00    0.0     0.00080999       -98.6204521468 -8.70E-07
     5 TBLite/Diag 0.40E+00    0.0     0.00041911       -98.6204526019 -4.55E-07
     6 TBLite/Diag 0.40E+00    0.0     0.00006582       -98.6204526190 -1.71E-08
     7 TBLite/Diag 0.40E+00    0.0     0.00002010       -98.6204526202 -1.14E-09
     8 TBLite/Diag 0.40E+00    0.0     0.00000667       -98.6204526205 -2.92E-10
     9 TBLite/Diag 0.40E+00    0.0     0.00000100       -98.6204526205 -9.05E-12
    10 TBLite/Diag 0.40E+00    0.0     0.00000055       -98.6204526205 -1.65E-12
    11 TBLite/Diag 0.40E+00    0.0     0.00000012       -98.6204526205 -1.14E-13
    12 TBLite/Diag 0.40E+00    0.0     0.00000016       -98.6204526205 -1.42E-14
    13 TBLite/Diag 0.40E+00    0.0     0.00000009       -98.6204526205  1.14E-13
    14 TBLite/Diag 0.40E+00    0.0     0.00000004       -98.6204526205  2.84E-14
    15 TBLite/Diag 0.40E+00    0.0     0.00000001       -98.6204526205 -1.42E-13
    16 TBLite/Diag 0.40E+00    0.0     8.8598E-10       -98.6204526205  2.84E-14

  *** SCF run converged in    16 steps ***


  Core Hamiltonian energy:                                    -99.95534318569329
  Repulsive potential energy:                                   1.15155098863921
  Electrostatic energy:                                         0.27458763949698
  Self-consistent dispersion energy:                           -0.11093627405578
  Non-self consistent dispersion energy:                        0.01968821114067
  Correction for halogen bonding:                               0.00000000000000
  Electronic entropic energy:                                  -0.00000000000000
  Fermi energy:                                                -0.31073230500920

  Total energy:                                               -98.62045262047222
  Total energy (extrapolated to T->0):                        -98.62045262047222

 ENERGY| Total FORCE_EVAL ( QS ) energy [hartree]            -98.620452620472221

 OPT| **************************************************************************
 OPT| Step number                                                              9
 OPT| Optimization method                                                   BFGS
 OPT| Total energy [hartree]                                      -98.6204526205
 OPT| Internal pressure [bar]                                   -1731.7882904941
 OPT| Effective energy change [hartree]                            -0.0014505202
 OPT| Predicted energy change [hartree]                            -0.0010737176
 OPT| Scaling factor                                                0.0000000000
 OPT| Step size                                                     0.0790117141
 OPT| Trust radius                                                  0.4724315332
 OPT| Decrease in energy                                                     YES
 OPT| Used time [s]                                                        2.501
 OPT|
 OPT| Maximum step size                                             0.0790117141
 OPT| Convergence limit for maximum step size                       0.0030000000
 OPT| Maximum step size is converged                                          NO
 OPT|
 OPT| RMS step size                                                 0.0102033953
 OPT| Convergence limit for RMS step size                           0.0015000000
 OPT| RMS step size is converged                                              NO
 OPT|
 OPT| Maximum gradient                                              0.0063940974
 OPT| Convergence limit for maximum gradient                        0.0004500000
 OPT| Maximum gradient is converged                                           NO
 OPT|
 OPT| RMS gradient                                                  0.0019443505
 OPT| Convergence limit for RMS gradient                            0.0003000000
 OPT| RMS gradient is converged                                               NO
 OPT|
 OPT| Pressure deviation [bar]                                  -1731.7882904941
 OPT| Pressure tolerance [bar]                                    100.0000000000
 OPT| Pressure is converged                                                   NO
 OPT| **************************************************************************
 OPT| Estimated peak process memory after this step [MiB]                    173

 --------------------------
 OPTIMIZATION STEP:     10
 --------------------------

 CELL| Volume [angstrom^3]:                                           564.088832
 CELL| Vector a [angstrom]:      12.077     0.000     0.000   |a| =    12.077272
 CELL| Vector b [angstrom]:       0.000    12.388     0.000   |b| =    12.387791
 CELL| Vector c [angstrom]:      -2.278    -0.000     3.770   |c| =     4.405203
 CELL| Angle (b,c), alpha [degree]:                                    90.000000
 CELL| Angle (a,c), beta  [degree]:                                   121.141594
 CELL| Angle (a,b), gamma [degree]:                                    90.000000
 CELL| Numerically orthorhombic:                                              NO
 CELL| Periodicity                                                           XYZ

 Extrapolation method: ASPC

 Number of electrons:                                                        168
 Number of occupied orbitals:                                                 84
 Number of molecular orbitals:                                               144

 Number of orbital functions:                                                144
 Number of independent orbital functions:                                    144


 SCF WAVEFUNCTION OPTIMIZATION

  Step     Update method      Time    Convergence         Total energy    Change
  ------------------------------------------------------------------------------
     1 TBLite/Diag 0.40E+00    0.0     0.00569005       -98.6213809090 -9.86E+01
     2 TBLite/Diag 0.40E+00    0.0     0.00109923       -98.6213842897 -3.38E-06
     3 TBLite/Diag 0.40E+00    0.0     0.00132540       -98.6213822374  2.05E-06
     4 TBLite/Diag 0.40E+00    0.0     0.00103725       -98.6213850084 -2.77E-06
     5 TBLite/Diag 0.40E+00    0.0     0.00019791       -98.6213851002 -9.19E-08
     6 TBLite/Diag 0.40E+00    0.0     0.00003914       -98.6213851071 -6.86E-09
     7 TBLite/Diag 0.40E+00    0.0     0.00001319       -98.6213851077 -5.88E-10
     8 TBLite/Diag 0.40E+00    0.0     0.00000397       -98.6213851078 -1.01E-10
     9 TBLite/Diag 0.40E+00    0.0     0.00000073       -98.6213851078 -3.38E-12
    10 TBLite/Diag 0.40E+00    0.0     0.00000025       -98.6213851078 -6.54E-13
    11 TBLite/Diag 0.40E+00    0.0     0.00000008       -98.6213851078  0.00E+00
    12 TBLite/Diag 0.40E+00    0.0     0.00000005       -98.6213851078 -1.42E-14
    13 TBLite/Diag 0.40E+00    0.0     0.00000002       -98.6213851078  1.42E-14
    14 TBLite/Diag 0.40E+00    0.0     0.00000002       -98.6213851078  0.00E+00
    15 TBLite/Diag 0.40E+00    0.0     7.9091E-09       -98.6213851078  8.53E-14
    16 TBLite/Diag 0.40E+00    0.0     1.1755E-09       -98.6213851078 -9.95E-14
    17 TBLite/Diag 0.40E+00    0.0     1.1247E-10       -98.6213851078  4.26E-14

  *** SCF run converged in    17 steps ***


  Core Hamiltonian energy:                                    -99.96414052413239
  Repulsive potential energy:                                   1.15954634495595
  Electrostatic energy:                                         0.27415589116756
  Self-consistent dispersion energy:                           -0.11059729664106
  Non-self consistent dispersion energy:                        0.01965047685596
  Correction for halogen bonding:                               0.00000000000000
  Electronic entropic energy:                                  -0.00000000000000
  Fermi energy:                                                -0.31084809009215

  Total energy:                                               -98.62138510779397
  Total energy (extrapolated to T->0):                        -98.62138510779397

 ENERGY| Total FORCE_EVAL ( QS ) energy [hartree]            -98.621385107793969

 OPT| **************************************************************************
 OPT| Step number                                                             10
 OPT| Optimization method                                                   BFGS
 OPT| Total energy [hartree]                                      -98.6213851078
 OPT| Internal pressure [bar]                                     643.6167242929
 OPT| Effective energy change [hartree]                            -0.0009324873
 OPT| Predicted energy change [hartree]                            -0.0006155471
 OPT| Scaling factor                                                0.0000000000
 OPT| Step size                                                     0.0611255889
 OPT| Trust radius                                                  0.4724315332
 OPT| Decrease in energy                                                     YES
 OPT| Used time [s]                                                        2.518
 OPT|
 OPT| Maximum step size                                             0.0611255889
 OPT| Convergence limit for maximum step size                       0.0030000000
 OPT| Maximum step size is converged                                          NO
 OPT|
 OPT| RMS step size                                                 0.0079018687
 OPT| Convergence limit for RMS step size                           0.0015000000
 OPT| RMS step size is converged                                              NO
 OPT|
 OPT| Maximum gradient                                              0.0073653282
 OPT| Convergence limit for maximum gradient                        0.0004500000
 OPT| Maximum gradient is converged                                           NO
 OPT|
 OPT| RMS gradient                                                  0.0018512375
 OPT| Convergence limit for RMS gradient                            0.0003000000
 OPT| RMS gradient is converged                                               NO
 OPT|
 OPT| Pressure deviation [bar]                                    643.6167242929
 OPT| Pressure tolerance [bar]                                    100.0000000000
 OPT| Pressure is converged                                                   NO
 OPT| **************************************************************************
 OPT| Estimated peak process memory after this step [MiB]                    173

 --------------------------
 OPTIMIZATION STEP:     11
 --------------------------

 CELL| Volume [angstrom^3]:                                           564.989728
 CELL| Vector a [angstrom]:      12.063     0.000     0.000   |a| =    12.063049
 CELL| Vector b [angstrom]:       0.000    12.371     0.000   |b| =    12.371438
 CELL| Vector c [angstrom]:      -2.321    -0.000     3.786   |c| =     4.440872
 CELL| Angle (b,c), alpha [degree]:                                    90.000000
 CELL| Angle (a,c), beta  [degree]:                                   121.515234
 CELL| Angle (a,b), gamma [degree]:                                    90.000000
 CELL| Numerically orthorhombic:                                              NO
 CELL| Periodicity                                                           XYZ

 Extrapolation method: ASPC

 Number of electrons:                                                        168
 Number of occupied orbitals:                                                 84
 Number of molecular orbitals:                                               144

 Number of orbital functions:                                                144
 Number of independent orbital functions:                                    144


 SCF WAVEFUNCTION OPTIMIZATION

  Step     Update method      Time    Convergence         Total energy    Change
  ------------------------------------------------------------------------------
     1 TBLite/Diag 0.40E+00    0.0     0.00861012       -98.6224313700 -9.86E+01
     2 TBLite/Diag 0.40E+00    0.0     0.00063484       -98.6224344991 -3.13E-06
     3 TBLite/Diag 0.40E+00    0.0     0.00075329       -98.6224339993  5.00E-07
     4 TBLite/Diag 0.40E+00    0.0     0.00068328       -98.6224353737 -1.37E-06
     5 TBLite/Diag 0.40E+00    0.0     0.00022865       -98.6224354771 -1.03E-07
     6 TBLite/Diag 0.40E+00    0.0     0.00004751       -98.6224354879 -1.08E-08
     7 TBLite/Diag 0.40E+00    0.0     0.00000922       -98.6224354886 -6.77E-10
     8 TBLite/Diag 0.40E+00    0.0     0.00000315       -98.6224354887 -6.60E-11
     9 TBLite/Diag 0.40E+00    0.0     0.00000128       -98.6224354887 -9.25E-12
    10 TBLite/Diag 0.40E+00    0.0     0.00000037       -98.6224354887 -9.52E-13
    11 TBLite/Diag 0.40E+00    0.0     0.00000014       -98.6224354887 -2.84E-13
    12 TBLite/Diag 0.40E+00    0.0     0.00000007       -98.6224354887  0.00E+00
    13 TBLite/Diag 0.40E+00    0.0     0.00000007       -98.6224354887  2.13E-13
    14 TBLite/Diag 0.40E+00    0.0     0.00000003       -98.6224354887 -1.28E-13
    15 TBLite/Diag 0.40E+00    0.0     4.8702E-09       -98.6224354887  4.26E-14
    16 TBLite/Diag 0.40E+00    0.0     1.4486E-09       -98.6224354887  1.14E-13
    17 TBLite/Diag 0.40E+00    0.0     8.6011E-11       -98.6224354887 -1.42E-14

  *** SCF run converged in    17 steps ***


  Core Hamiltonian energy:                                    -99.96273010857070
  Repulsive potential energy:                                   1.15650173373544
[...]
 CELL| Angle (b,c), alpha [degree]:                                    89.999999
 CELL| Angle (a,c), beta  [degree]:                                   139.577957
 CELL| Angle (a,b), gamma [degree]:                                    90.000000
 CELL| Numerically orthorhombic:                                              NO
 CELL| Periodicity                                                           XYZ

 Extrapolation method: ASPC

 Number of electrons:                                                        168
 Number of occupied orbitals:                                                 84
 Number of molecular orbitals:                                               144

 Number of orbital functions:                                                144
 Number of independent orbital functions:                                    144


 SCF WAVEFUNCTION OPTIMIZATION

  Step     Update method      Time    Convergence         Total energy    Change
  ------------------------------------------------------------------------------
     1 TBLite/Diag 0.40E+00    0.0     0.00098868       -98.7027771699 -9.87E+01
     2 TBLite/Diag 0.40E+00    0.0     0.00006332       -98.7027771948 -2.49E-08
     3 TBLite/Diag 0.40E+00    0.0     0.00004262       -98.7027771912  3.59E-09
     4 TBLite/Diag 0.40E+00    0.0     0.00003378       -98.7027771983 -7.04E-09
     5 TBLite/Diag 0.40E+00    0.0     0.00001043       -98.7027771985 -2.54E-10
     6 TBLite/Diag 0.40E+00    0.0     0.00000473       -98.7027771985 -3.63E-11
     7 TBLite/Diag 0.40E+00    0.0     0.00000149       -98.7027771986 -6.96E-12
     8 TBLite/Diag 0.40E+00    0.0     0.00000022       -98.7027771986 -2.42E-13
     9 TBLite/Diag 0.40E+00    0.0     0.00000026       -98.7027771986 -7.11E-14
    10 TBLite/Diag 0.40E+00    0.0     0.00000019       -98.7027771986 -1.14E-13
    11 TBLite/Diag 0.40E+00    0.0     0.00000004       -98.7027771986  1.42E-13
    12 TBLite/Diag 0.40E+00    0.0     7.2273E-09       -98.7027771986 -5.68E-14
    13 TBLite/Diag 0.40E+00    0.0     3.5165E-09       -98.7027771986  1.42E-14
    14 TBLite/Diag 0.40E+00    0.0     6.5420E-09       -98.7027771986  4.26E-14
    15 TBLite/Diag 0.40E+00    0.0     3.1310E-09       -98.7027771986  1.42E-14
    16 TBLite/Diag 0.40E+00    0.0     2.5454E-09       -98.7027771986 -2.84E-14
    17 TBLite/Diag 0.40E+00    0.0     3.5553E-10       -98.7027771986 -5.68E-14

  *** SCF run converged in    17 steps ***


  Core Hamiltonian energy:                                    -99.96766156822626
  Repulsive potential energy:                                   1.12605789185878
  Electrostatic energy:                                         0.27007002903637
  Self-consistent dispersion energy:                           -0.17385727793046
  Non-self consistent dispersion energy:                        0.04261372670926
  Correction for halogen bonding:                               0.00000000000000
  Electronic entropic energy:                                  -0.00000000000000
  Fermi energy:                                                -0.30378559133357

  Total energy:                                               -98.70277719855231
  Total energy (extrapolated to T->0):                        -98.70277719855231

 ENERGY| Total FORCE_EVAL ( QS ) energy [hartree]            -98.702777198552312

 OPT| **************************************************************************
 OPT| Step number                                                            134
 OPT| Optimization method                                                   BFGS
 OPT| Total energy [hartree]                                      -98.7027771986
 OPT| Internal pressure [bar]                                      47.5780153966
 OPT| Effective energy change [hartree]                            -0.0000014001
 OPT| Predicted energy change [hartree]                            -0.0000015523
 OPT| Scaling factor                                                0.6603976692
 OPT| Step size                                                     0.0020844634
 OPT| Trust radius                                                  0.4724315332
 OPT| Decrease in energy                                                     YES
 OPT| Used time [s]                                                        2.106
 OPT|
 OPT| Maximum step size                                             0.0020844634
 OPT| Convergence limit for maximum step size                       0.0030000000
 OPT| Maximum step size is converged                                         YES
 OPT|
 OPT| RMS step size                                                 0.0007358861
 OPT| Convergence limit for RMS step size                           0.0015000000
 OPT| RMS step size is converged                                             YES
 OPT|
 OPT| Maximum gradient                                              0.0001527725
 OPT| Convergence limit for maximum gradient                        0.0004500000
 OPT| Maximum gradient is converged                                          YES
 OPT|
 OPT| RMS gradient                                                  0.0000555093
 OPT| Convergence limit for RMS gradient                            0.0003000000
 OPT| RMS gradient is converged                                              YES
 OPT|
 OPT| Pressure deviation [bar]                                     47.5780153966
 OPT| Pressure tolerance [bar]                                    100.0000000000
 OPT| Pressure is converged                                                  YES
 OPT| **************************************************************************
 OPT| Estimated peak process memory after this step [MiB]                    174

 *******************************************************************************
 ***                    GEOMETRY OPTIMIZATION COMPLETED                      ***
 *******************************************************************************

 write_final_structure: Optimization converged, writing XYZ file gladly:
  uracil_GFN2_gamma_cell_opt-FINAL-1_134.xyz

 write_final_structure: Optimization converged, writing CIF file gladly:
  uracil_GFN2_gamma_cell_opt-FINAL-1_134.cif

 write_final_structure: Done!

                    Reevaluating energy at the minimum

 CELL| Volume [angstrom^3]:                                           380.745332
 CELL| Vector a [angstrom]:      11.795     0.000     0.000   |a| =    11.795084
 CELL| Vector b [angstrom]:       0.000    12.071     0.000   |b| =    12.070716
 CELL| Vector c [angstrom]:      -3.140     0.000     2.674   |c| =     4.124287
 CELL| Angle (b,c), alpha [degree]:                                    89.999999
 CELL| Angle (a,c), beta  [degree]:                                   139.577957
 CELL| Angle (a,b), gamma [degree]:                                    90.000000
 CELL| Numerically orthorhombic:                                              NO
 CELL| Periodicity                                                           XYZ

 Extrapolation method: ASPC

 Number of electrons:                                                        168
 Number of occupied orbitals:                                                 84
 Number of molecular orbitals:                                               144

 Number of orbital functions:                                                144
 Number of independent orbital functions:                                    144


 SCF WAVEFUNCTION OPTIMIZATION

  Step     Update method      Time    Convergence         Total energy    Change
  ------------------------------------------------------------------------------
     1 TBLite/Diag 0.40E+00    0.0     2.5097E-10       -98.7027771986 -9.87E+01

  *** SCF run converged in     1 steps ***


  Core Hamiltonian energy:                                    -99.96766156826163
  Repulsive potential energy:                                   1.12605789185878
  Electrostatic energy:                                         0.27007002907212
  Self-consistent dispersion energy:                           -0.17385727793080
  Non-self consistent dispersion energy:                        0.04261372670926
  Correction for halogen bonding:                               0.00000000000000
  Electronic entropic energy:                                  -0.00000000000000
  Fermi energy:                                                -0.30378559133649

  Total energy:                                               -98.70277719855227
  Total energy (extrapolated to T->0):                        -98.70277719855227

 ENERGY| Total FORCE_EVAL ( QS ) energy [hartree]            -98.702777198552269

 -------------------------------------------------------------------------------
 -                                                                             -
 -                                DBCSR STATISTICS                             -
 -                                                                             -
 -------------------------------------------------------------------------------
 COUNTER                                    TOTAL       BLAS       SMM       ACC
 flops     1 x    16 x     1              5447680       0.0%    100.0%      0.0%     
 flops     1 x    32 x     1             43581440       0.0%    100.0%      0.0%     
 flops     1 x    16 x     4             43581440       0.0%    100.0%      0.0%     
 flops     4 x    16 x     1             43581440       0.0%    100.0%      0.0%     
 flops     1 x     1 x   144            102659328       0.0%    100.0%      0.0%     
 flops     4 x    16 x     4            347699200       0.0%    100.0%      0.0%     
 flops     1 x    32 x     4            348651520       0.0%    100.0%      0.0%     
 flops     4 x    32 x     1            348651520       0.0%    100.0%      0.0%     
 flops     1 x     4 x   144            772964352       0.0%    100.0%      0.0%     
 flops     4 x     1 x   144            772964352       0.0%    100.0%      0.0%     
 flops     4 x    32 x     4           2781593600       0.0%    100.0%      0.0%     
 flops     4 x     4 x   144           6360228864       0.0%    100.0%      0.0%     
 flops inhomo. stacks                           0       0.0%      0.0%      0.0%
 flops total                        11.971605E+09       0.0%    100.0%      0.0%
 flops max/rank                     11.971605E+09       0.0%    100.0%      0.0%
 matmuls inhomo. stacks                         0       0.0%      0.0%      0.0%
 matmuls total                           10730166       0.0%    100.0%      0.0%
 number of processed stacks                 22454       0.0%    100.0%      0.0%
 average stack size                                     0.0     477.9       0.0
 marketing flops                    13.102000E+09
 -------------------------------------------------------------------------------
 # multiplications                           3286
 max memory usage/rank              13.681373E+09
 # max total images/rank                        1
 # max 3D layers                                1
 # MPI messages exchanged                       0
 -------------------------------------------------------------------------------
 -                                                                             -
 -                      DBCSR MESSAGE PASSING PERFORMANCE                      -
 -                                                                             -
 -------------------------------------------------------------------------------
 ROUTINE             CALLS      AVE VOLUME [Bytes]
 MP_Bcast               13                     12.
 MP_Allreduce        15143                      8.
 MP_Alltoall        112325                 112898.
 MP_ISend            13144                   8971.
 MP_IRecv            13144                   8971.
 -------------------------------------------------------------------------------

 -------------------------------------------------------------------------------
 -                                                                             -
 -                          OFFLOAD MEMPOOL STATISTICS                         -
 -                                                                             -
 -------------------------------------------------------------------------------
 Memory consumption                Number of allocations  Used [MiB]  Size [MiB]
 Device                                                2           0           0
 Host                                                  2           0           0
 -------------------------------------------------------------------------------

 MEMORY| Estimated peak process memory [MiB]                                 174

 -------------------------------------------------------------------------------
 -                                                                             -
 -                         MESSAGE PASSING PERFORMANCE                         -
 -                                                                             -
 -------------------------------------------------------------------------------

 ROUTINE             CALLS      AVE VOLUME [Bytes]
 MP_Group              135
 MP_Bcast             5240                    579.
 MP_Allreduce        81868                    348.
 MP_Sync              2755
 MP_comm_split        2620
 -------------------------------------------------------------------------------


 -------------------------------------------------------------------------------
 -                                                                             -
 -                           R E F E R E N C E S                               -
 -                                                                             -
 -------------------------------------------------------------------------------
 
 CP2K version 2026.1 (Development Version), the CP2K developers group (2026).
 CP2K is freely available from https://www.cp2k.org/ .
 
 M. Iannuzzi, J. Wilhelm, F. Stein, A. Bussy, H. Elgabarty, D. Golze, A. Hehn, 
 M. Graml, S. Marek, B. Sertcan Gökmen, C. Schran, H. Forbert, R. Z. 
 Khaliullin, A. Kozhevnikov, M. Taillefumier, R. Meli, V. V. Rybkin, M. Brehm, 
 R. Schade, O. Schütt, J. V. Pototschnig, H. Mirhosseini, A. Knüpfer, D. Marx, 
 M. Krack, J. Hutter, T. D. Kühne.
 J. Phys. Chem. B 130, 1237-1310 (2026).
 The CP2K Program Package Made Simple.
 https://doi.org/10.1021/acs.jpcb.5c05851

 A. Katbashev, M. Stahn, T. Rose, V. Alizadeh, M. Friede, C. Plett, P. 
 Steinbach, S. Ehlert.
 J. Phys. Chem. A 129, 2667-2682 (2025).
 Overview on Building Blocks and Applications of Efficient and Robust Extended 
 Tight Binding.
 https://doi.org/10.1021/acs.jpca.4c08263

 T. D. Kühne, M. Iannuzzi, M. Del Ben, V. V. Rybkin, P. Seewald, F. Stein, T. 
 Laino, R. Z. Khaliullin, O. Schütt, F. Schiffmann, D. Golze, J. Wilhelm, S. 
 Chulkov, M. H. Bani-Hashemian, V. Weber, U. Borstnik, M. Taillefumier, A. S. 
 Jakobovits, A. Lazzaro, H. Pabst, T. Müller, R. Schade, M. Guidon, S. 
 Andermatt, N. Holmberg, G. K. Schenter, A. Hehn, A. Bussy, F. Belleflamme, G. 
 Tabacchi, A. Glöß, M. Lass, I. Bethune, C. J. Mundy, C. Plessl, M. Watkins, 
 J. VandeVondele, M. Krack, J. Hutter.
 J. Chem. Phys. 152, 194103 (2020).
 CP2K: An electronic structure and molecular dynamics software package - 
 Quickstep: Efficient and accurate electronic structure calculations.
 https://doi.org/10.1063/5.0007045

 P. Pracht, E. Caldeweyher, S. Ehlert, S. Grimme.
 ChemRxiv, (2019).
 A Robust Non-Self-Consistent Tight-Binding Quantum Chemistry Method for large 
 Molecules.
 https://doi.org/10.26434/chemrxiv.8326202.v1

 S. Grimme, C. Bannwarth, P. Shushkov.
 J. Chem. Theory Comput. 13, 1989 (2017).
 A Robust and Accurate Tight-Binding Quantum Chemical Method for Structures, 
 Vibrational Frequencies, and Noncovalent Interactions of Large Molecular 
 Systems Parametrized for All spd-Block Elements (Z = 1-86).
 https://doi.org/10.1021/acs.jctc.7b00118

 O. Schuett, P. Messmer, J. Hutter, J. VandeVondele.
 Electronic Structure Calculations on Graphics Processing Units, 173-190 (2016).
 GPU-Accelerated Sparse Matrix-Matrix Multiplication for Linear Scaling Density 
 Functional Theory.
 https://doi.org/10.1002/9781118670712.ch8

 A. Heinecke, G. Henry, M. Hutchinson, H. Pabst.
 Proceedings of Intl. Supercomputing Conference, 981-991 (2016).
 LIBXSMM: Accelerating Small Matrix Multiplications by Runtime Code Generation.
 https://doi.org/10.1109/SC.2016.83

 U. Borstnik, J. VandeVondele, V. Weber, J. Hutter.
 Parallel Comput. 40, 47-58 (2014).
 Sparse matrix multiplication: The distributed block-compressed sparse row 
 library.
 https://doi.org/10.1016/j.parco.2014.03.012

 T. D. Kühne, M. Krack, F. R. Mohamed, M. Parrinello.
 Phys. Rev. Lett. 98, 066401 (2007).
 Efficient and accurate Car-Parrinello-like approach to Born-Oppenheimer 
 molecular dynamics.
 https://doi.org/10.1103/PhysRevLett.98.066401

 M. Frigo, S. G. Johnson.
 Proc. IEEE 93, 216-231 (2005).
 The design and implementation of FFTW3.
 https://doi.org/10.1109/JPROC.2004.840301

 J. Kolafa.
 J. Comput. Chem. 25, 335-342 (2004).
 Time-reversible always stable predictor-corrector method for molecular dynamics 
 of polarizable molecules.
 https://doi.org/10.1002/jcc.10385

 N. D. Mermin.
 Phys. Rev. 137, A1441-A1443 (1965).
 Thermal Properties of the Inhomogeneous Electron Gas.
 https://doi.org/10.1103/PhysRev.137.A1441


 -------------------------------------------------------------------------------
 -                                                                             -
 -                                T I M I N G                                  -
 -                                                                             -
 -------------------------------------------------------------------------------
 SUBROUTINE                       CALLS  ASD         SELF TIME        TOTAL TIME
                                MAXIMUM       AVERAGE  MAXIMUM  AVERAGE  MAXIMUM
 CP2K                                 1  1.0    0.002    0.002  290.015  290.015
 cp_cell_opt                          1  2.0    0.000    0.000  290.009  290.009
 geoopt_bfgs                          1  3.0    0.014    0.014  290.008  290.008
 cp_eval_at                         136  4.0    0.014    0.014  289.669  289.669
 qs_forces                          135  5.0    0.009    0.009  289.116  289.116
 build_tblite_matrices              271  7.0  234.514  234.514  239.402  239.402
 qs_energies                        136  6.0    0.004    0.004   93.939   93.939
 qs_energies_init_hamiltonians      136  7.0    0.001    0.001   72.915   72.915
 rebuild_ks_matrix                 2486  9.8    0.002    0.002   34.375   34.375
 build_tblite_ks_matrix            2486 10.8   34.320   34.320   34.373   34.373
 qs_ks_update_qs_env_forces         135  6.0    0.000    0.000   28.963   28.963
 scf_env_do_scf                     136  7.0    0.002    0.002   19.276   19.276
 scf_env_do_scf_inner_loop         2351  8.0    2.687    2.687   19.263   19.263
 qs_scf_new_mos                    2351  9.0    0.012    0.012   10.504   10.504
 -------------------------------------------------------------------------------

 The number of warnings for this run is : 0
 
 -------------------------------------------------------------------------------
  **** **** ******  **  PROGRAM ENDED AT                 2026-05-23 22:53:07.885
 ***** ** ***  *** **   PROGRAM RAN ON                                spark-c86c
 **    ****   ******    PROGRAM RAN BY                                  kuehne88
 ***** **    ** ** **   PROGRAM PROCESS ID                               2271340
  **** **  *******  **  PROGRAM STOPPED IN /home/kuehne88/periodic-gfn2-benchmar
                                           ks/X23b/runs/cellopt_gamma/GFN2/uraci
                                           l_GFN2_gamma_cellopt
