 DBCSR| CPU Multiplication driver                                           XSMM (U)
 DBCSR| Multrec recursion limit                                              512 (U)
 DBCSR| Multiplication stack size                                           1000 (D)
 DBCSR| Maximum elements for images                                    UNLIMITED (U)
 DBCSR| Multiplicative factor virtual images                                   1 (U)
 DBCSR| Use multiplication densification                                       T (D)
 DBCSR| Multiplication size stacks                                             3 (U)
 DBCSR| Use memory pool for CPU allocation                                     F (U)
 DBCSR| Number of 3D layers                                               SINGLE (U)
 DBCSR| Use MPI memory allocation                                              F (U)
 DBCSR| Use RMA algorithm                                                      F (U)
 DBCSR| Use Communication thread                                               T (U)
 DBCSR| Communication thread load                                             87 (D)
 DBCSR| MPI: My process id                                                     0
 DBCSR| MPI: Number of processes                                               1
 DBCSR| OMP: Current number of threads                                         1
 DBCSR| OMP: Max number of threads                                             1
 DBCSR| Split modifier for TAS multiplication algorithm                  1.0E+00 (U)


  **** **** ******  **  PROGRAM STARTED AT               2026-05-23 22:46:20.939
 ***** ** ***  *** **   PROGRAM STARTED ON                            spark-c86c
 **    ****   ******    PROGRAM STARTED BY                              kuehne88
 ***** **    ** ** **   PROGRAM PROCESS ID                               2230033
  **** **  *******  **  PROGRAM STARTED IN /home/kuehne88/periodic-gfn2-benchmar
                                           ks/X23b/runs/molecule_geoopt/GFN2/ure
                                           a_GFN2_mol_geoopt

 CP2K| version string:                 CP2K version 2026.1 (Development Version)
 CP2K| source code revision number:                                   0622d442e4
 CP2K| cp2kflags: omp fftw3 libxc parallel scalapack mpi_f08 xsmm spglib libdftd
 CP2K|            4 dftd4_v3 mctc-lib tblite
 CP2K| is freely available from                            https://www.cp2k.org/
 CP2K| Program compiled at                                   2026-05-23 22:05:08
 CP2K| Program compiled on                                            spark-c86c
 CP2K| Program compiled for                                              aarch64
 CP2K| Data directory path    /home/kuehne88/cp2k-master-tblite-20260523/install
 CP2K| Input file name                                  urea_GFN2_mol_geoopt.inp

 GLOBAL| Force Environment number                                              1
 GLOBAL| Basis set file name                                           BASIS_SET
 GLOBAL| Potential file name                                           POTENTIAL
 GLOBAL| MM Potential file name                                     MM_POTENTIAL
 GLOBAL| Coordinate file name                                      __STD_INPUT__
 GLOBAL| Method name                                                        CP2K
 GLOBAL| Project name                                       urea_GFN2_mol_geoopt
 GLOBAL| Run type                                                        GEO_OPT
 GLOBAL| FFT library                                                       FFTW3
 GLOBAL| Diagonalization library                                       ScaLAPACK
 GLOBAL| Cholesky decomposition library                                ScaLAPACK
 GLOBAL| DGEMM library                                                      BLAS
 GLOBAL| Direct generalized diagonalization requested                          F
 GLOBAL| Orthonormality check for eigenvectors                          DISABLED
 GLOBAL| Matrix multiplication library                                 ScaLAPACK
 GLOBAL| All-to-all communication in single precision                          F
 GLOBAL| FFTs using library dependent lengths                                  F
 GLOBAL| Grid backend                                                       AUTO
 GLOBAL| Global print level                                                  LOW
 GLOBAL| MPI I/O enabled                                                       T
 GLOBAL| Total number of message passing processes                             1
 GLOBAL| Number of distributed systems (nodes)                                 1
 GLOBAL| Number of threads for this process                                    1
 GLOBAL| This output is from process                                           0
 GLOBAL| OpenMP stack size per thread (OMP_STACKSIZE)                    default
 GLOBAL| CPU model name                                                  UNKNOWN
 GLOBAL| CPUID                                                              2200
 GLOBAL| Compiled for CPUID                                                 2000

 *** HINT in environment.F:970 :: The compiler target flags (arm_arch64)   ***
 *** used to build this binary cannot exploit all extensions of this CPU   ***
 *** model (arm_sve256). Consider compiler target flags as part of FCFLAGS ***
 *** and CFLAGS (ARCH file).                                               ***


 MEMORY| system memory details [Kb]
 MEMORY|                        rank 0           min           max       average
 MEMORY| MemTotal            125508532     125508532     125508532     125508532
 MEMORY| MemFree             106082980     106082980     106082980     106082980
 MEMORY| Buffers                866520        866520        866520        866520
 MEMORY| Cached               13218512      13218512      13218512      13218512
 MEMORY| Slab                  1565048       1565048       1565048       1565048
 MEMORY| SReclaimable           889004        889004        889004        889004
 MEMORY| MemLikelyFree       121057016     121057016     121057016     121057016


 GENERATE|  Preliminary Number of Bonds generated:                             0
 GENERATE|  Achieved consistency in connectivity generation.


                  #####   #####        #     #   #     #       #          
                 #     # #     #      #    ##### #     #   # #####  ####  
                 #     # #           #       #   ###   #       #   #    # 
                 #     #  #####     #        #   #  #  #   #   #   ###### 
                 #   # #       #   #         #   #   # #   #   #   #      
                 #    #  #     #  #          #   #  #  # # #   #    #   # 
                  #### #  #####  #           #   ###   ##  #   #     ###  

                                   GFN2-xTB  
                                 Version 0.0                       
                            Johann V. Pototschnig                  



 TOTAL NUMBERS AND MAXIMUM NUMBERS

  Total number of            - Atomic kinds:                                   4
                             - Atoms:                                          8
                             - Shell sets:                                    12
                             - Shells:                                        12
                             - Primitive Cartesian functions:                 44
                             - Cartesian basis functions:                     20
                             - Spherical basis functions:                     20

  Maximum angular momentum of the orbital basis functions:                     1


 SCF PARAMETERS         Density guess:                                     MOPAC
                        --------------------------------------------------------
                        max_scf:                                             300
                        max_scf_history:                                       0
                        max_diis:                                              4
                        --------------------------------------------------------
                        eps_scf:                                        1.00E-09
                        eps_scf_history:                                0.00E+00
                        eps_diis:                                       1.00E-01
                        eps_eigval:                                     1.00E-05
                        --------------------------------------------------------
                        level_shift [a.u.]:                             0.000000
                        added MOs                                         8    0
                        --------------------------------------------------------
                        Mixing method:                           DIRECT_P_MIXING
                        --------------------------------------------------------
                        Smear method:                                FERMI_DIRAC
                        Electronic temperature [K]:                        300.0
                        Electronic temperature [a.u.]:                  9.50E-04
                        Accuracy threshold:                             1.00E-06
                        --------------------------------------------------------
                        No outer SCF

 BFGS| Use rational function optimization for step estimation:                NO
 BFGS| Use model Hessian for initial guess:                                  YES
 BFGS| Restart Hessian:                                                       NO
 BFGS| Trust radius:                                                       0.472

 *******************************************************************************
 ***                     STARTING GEOMETRY OPTIMIZATION                      ***
 ***                                   BFGS                                  ***
 *******************************************************************************

 Extrapolation method: initial_guess

 Number of electrons:                                                         24
 Number of occupied orbitals:                                                 12
 Number of molecular orbitals:                                                20

 Number of orbital functions:                                                 20
 Number of independent orbital functions:                                     20


 SCF WAVEFUNCTION OPTIMIZATION

  Step     Update method      Time    Convergence         Total energy    Change
  ------------------------------------------------------------------------------
     1 TBLite/Diag 0.40E+00    0.0     0.97873418       -13.9169991339 -1.39E+01
     2 TBLite/Diag 0.40E+00    0.0     0.34206206       -14.0829750976 -1.66E-01
     3 TBLite/Diag 0.40E+00    0.0     0.09699772       -14.0924214306 -9.45E-03
     4 TBLite/Diag 0.40E+00    0.0     0.07673544       -14.0958180155 -3.40E-03
     5 TBLite/Diag 0.40E+00    0.0     0.04038288       -14.0962967319 -4.79E-04
     6 TBLite/Diag 0.40E+00    0.0     0.01906627       -14.0967515001 -4.55E-04
     7 TBLite/Diag 0.40E+00    0.0     0.00484199       -14.0967418996  9.60E-06
     8 TBLite/Diag 0.40E+00    0.0     0.00246183       -14.0967533345 -1.14E-05
     9 TBLite/Diag 0.40E+00    0.0     0.00036911       -14.0967537315 -3.97E-07
    10 TBLite/Diag 0.40E+00    0.0     0.00019419       -14.0967537949 -6.34E-08
    11 TBLite/Diag 0.40E+00    0.0     0.00001878       -14.0967537953 -3.62E-10
    12 TBLite/Diag 0.40E+00    0.0     0.00000128       -14.0967537953 -3.82E-12
    13 TBLite/Diag 0.40E+00    0.0     0.00000025       -14.0967537953 -1.95E-14
    14 TBLite/Diag 0.40E+00    0.0     0.00000014       -14.0967537953 -5.51E-14
    15 TBLite/Diag 0.40E+00    0.0     0.00000002       -14.0967537953  1.78E-15
    16 TBLite/Diag 0.40E+00    0.0     1.0631E-09       -14.0967537953  0.00E+00
    17 TBLite/Diag 0.40E+00    0.0     3.8564E-10       -14.0967537953  5.33E-15

  *** SCF run converged in    17 steps ***


  Core Hamiltonian energy:                                    -14.29951163935426
  Repulsive potential energy:                                   0.14411763938996
  Electrostatic energy:                                         0.06161524816251
  Self-consistent dispersion energy:                           -0.00297551541556
  Non-self consistent dispersion energy:                        0.00000047195252
  Correction for halogen bonding:                               0.00000000000000
  Electronic entropic energy:                                  -0.00000000000000
  Fermi energy:                                                -0.22841286997174

  Total energy:                                               -14.09675379526482
  Total energy (extrapolated to T->0):                        -14.09675379526482

 ENERGY| Total FORCE_EVAL ( QS ) energy [hartree]            -14.096753795264817

 OPT| **************************************************************************
 OPT| Step number                                                              0
 OPT| Optimization method                                                   BFGS
 OPT| Total energy [hartree]                                      -14.0967537953
 OPT| Used time [s]                                                        0.014
 OPT| **************************************************************************
 OPT| Estimated peak process memory [MiB]                                    162

 --------------------------
 OPTIMIZATION STEP:      1
 --------------------------

 Extrapolation method: ASPC

 Number of electrons:                                                         24
 Number of occupied orbitals:                                                 12
 Number of molecular orbitals:                                                20

 Number of orbital functions:                                                 20
 Number of independent orbital functions:                                     20


 SCF WAVEFUNCTION OPTIMIZATION

  Step     Update method      Time    Convergence         Total energy    Change
  ------------------------------------------------------------------------------
     1 TBLite/Diag 0.40E+00    0.0     0.02021165       -14.0974082039 -1.41E+01
     2 TBLite/Diag 0.40E+00    0.0     0.00512655       -14.0974307484 -2.25E-05
     3 TBLite/Diag 0.40E+00    0.0     0.00226249       -14.0974328820 -2.13E-06
     4 TBLite/Diag 0.40E+00    0.0     0.00086557       -14.0974340534 -1.17E-06
     5 TBLite/Diag 0.40E+00    0.0     0.00013727       -14.0974340674 -1.40E-08
     6 TBLite/Diag 0.40E+00    0.0     0.00006403       -14.0974340714 -4.01E-09
     7 TBLite/Diag 0.40E+00    0.0     0.00001652       -14.0974340716 -2.38E-10
     8 TBLite/Diag 0.40E+00    0.0     0.00000142       -14.0974340716 -5.00E-12
     9 TBLite/Diag 0.40E+00    0.0     0.00000048       -14.0974340716 -4.14E-13
    10 TBLite/Diag 0.40E+00    0.0     0.00000003       -14.0974340716 -3.55E-15
    11 TBLite/Diag 0.40E+00    0.0     3.7418E-09       -14.0974340716  3.55E-15
    12 TBLite/Diag 0.40E+00    0.0     6.7429E-10       -14.0974340716 -1.78E-15

  *** SCF run converged in    12 steps ***


  Core Hamiltonian energy:                                    -14.30688804633231
  Repulsive potential energy:                                   0.15125795682418
  Electrostatic energy:                                         0.06117576230252
  Self-consistent dispersion energy:                           -0.00298019513829
  Non-self consistent dispersion energy:                        0.00000045070474
  Correction for halogen bonding:                               0.00000000000000
  Electronic entropic energy:                                  -0.00000000000000
  Fermi energy:                                                -0.22158880177441

  Total energy:                                               -14.09743407163915
  Total energy (extrapolated to T->0):                        -14.09743407163915

 ENERGY| Total FORCE_EVAL ( QS ) energy [hartree]            -14.097434071639155

 OPT| **************************************************************************
 OPT| Step number                                                              1
 OPT| Optimization method                                                   BFGS
 OPT| Total energy [hartree]                                      -14.0974340716
 OPT| Effective energy change [hartree]                            -0.0006802764
 OPT| Predicted energy change [hartree]                            -0.0005446744
 OPT| Scaling factor                                                0.0000000000
 OPT| Step size                                                     0.0244479869
 OPT| Trust radius                                                  0.4724315332
 OPT| Decrease in energy                                                     YES
 OPT| Used time [s]                                                        0.010
 OPT|
 OPT| Maximum step size                                             0.0244479869
 OPT| Convergence limit for maximum step size                       0.0030000000
 OPT| Maximum step size is converged                                          NO
 OPT|
 OPT| RMS step size                                                 0.0097756621
 OPT| Convergence limit for RMS step size                           0.0015000000
 OPT| RMS step size is converged                                              NO
 OPT|
 OPT| Maximum gradient                                              0.0038355445
 OPT| Convergence limit for maximum gradient                        0.0004500000
 OPT| Maximum gradient is converged                                           NO
 OPT|
 OPT| RMS gradient                                                  0.0016564944
 OPT| Convergence limit for RMS gradient                            0.0003000000
 OPT| RMS gradient is converged                                               NO
 OPT| **************************************************************************
 OPT| Estimated peak process memory after this step [MiB]                    163

 --------------------------
 OPTIMIZATION STEP:      2
 --------------------------

 Extrapolation method: ASPC

 Number of electrons:                                                         24
 Number of occupied orbitals:                                                 12
 Number of molecular orbitals:                                                20

 Number of orbital functions:                                                 20
 Number of independent orbital functions:                                     20


 SCF WAVEFUNCTION OPTIMIZATION

  Step     Update method      Time    Convergence         Total energy    Change
  ------------------------------------------------------------------------------
     1 TBLite/Diag 0.40E+00    0.0     0.01596623       -14.0975409871 -1.41E+01
     2 TBLite/Diag 0.40E+00    0.0     0.00278678       -14.0975480692 -7.08E-06
     3 TBLite/Diag 0.40E+00    0.0     0.00136886       -14.0975485229 -4.54E-07
     4 TBLite/Diag 0.40E+00    0.0     0.00056511       -14.0975490003 -4.77E-07
     5 TBLite/Diag 0.40E+00    0.0     0.00007444       -14.0975490030 -2.75E-09
     6 TBLite/Diag 0.40E+00    0.0     0.00001511       -14.0975490033 -2.75E-10
     7 TBLite/Diag 0.40E+00    0.0     0.00000257       -14.0975490033 -9.65E-12
     8 TBLite/Diag 0.40E+00    0.0     0.00000073       -14.0975490033 -5.08E-13
     9 TBLite/Diag 0.40E+00    0.0     0.00000029       -14.0975490033 -9.59E-14
    10 TBLite/Diag 0.40E+00    0.0     0.00000004       -14.0975490033 -7.11E-15
    11 TBLite/Diag 0.40E+00    0.0     2.2021E-09       -14.0975490033  8.88E-15
    12 TBLite/Diag 0.40E+00    0.0     1.5821E-09       -14.0975490033 -5.33E-15
    13 TBLite/Diag 0.40E+00    0.0     5.0081E-11       -14.0975490033  5.33E-15

  *** SCF run converged in    13 steps ***


  Core Hamiltonian energy:                                    -14.31046563426746
  Repulsive potential energy:                                   0.15484163627444
  Electrostatic energy:                                         0.06105756329076
  Self-consistent dispersion energy:                           -0.00298301471172
  Non-self consistent dispersion energy:                        0.00000044610755
  Correction for halogen bonding:                               0.00000000000000
  Electronic entropic energy:                                  -0.00000000000000
  Fermi energy:                                                -0.21806698697180

  Total energy:                                               -14.09754900330643
  Total energy (extrapolated to T->0):                        -14.09754900330643

 ENERGY| Total FORCE_EVAL ( QS ) energy [hartree]            -14.097549003306431

 OPT| **************************************************************************
 OPT| Step number                                                              2
 OPT| Optimization method                                                   BFGS
 OPT| Total energy [hartree]                                      -14.0975490033
 OPT| Effective energy change [hartree]                            -0.0001149317
 OPT| Predicted energy change [hartree]                            -0.0001206918
 OPT| Scaling factor                                                0.0000000000
 OPT| Step size                                                     0.0139593296
 OPT| Trust radius                                                  0.4724315332
 OPT| Decrease in energy                                                     YES
 OPT| Used time [s]                                                        0.011
 OPT|
 OPT| Maximum step size                                             0.0139593296
 OPT| Convergence limit for maximum step size                       0.0030000000
 OPT| Maximum step size is converged                                          NO
 OPT|
 OPT| RMS step size                                                 0.0091325282
 OPT| Convergence limit for RMS step size                           0.0015000000
 OPT| RMS step size is converged                                              NO
 OPT|
 OPT| Maximum gradient                                              0.0028932957
 OPT| Convergence limit for maximum gradient                        0.0004500000
 OPT| Maximum gradient is converged                                           NO
 OPT|
 OPT| RMS gradient                                                  0.0010859502
 OPT| Convergence limit for RMS gradient                            0.0003000000
 OPT| RMS gradient is converged                                               NO
 OPT| **************************************************************************
 OPT| Estimated peak process memory after this step [MiB]                    163

 --------------------------
 OPTIMIZATION STEP:      3
 --------------------------

 Extrapolation method: ASPC

 Number of electrons:                                                         24
 Number of occupied orbitals:                                                 12
 Number of molecular orbitals:                                                20

 Number of orbital functions:                                                 20
 Number of independent orbital functions:                                     20


 SCF WAVEFUNCTION OPTIMIZATION

  Step     Update method      Time    Convergence         Total energy    Change
  ------------------------------------------------------------------------------
     1 TBLite/Diag 0.40E+00    0.0     0.01166015       -14.0976049275 -1.41E+01
     2 TBLite/Diag 0.40E+00    0.0     0.00140745       -14.0976059134 -9.86E-07
     3 TBLite/Diag 0.40E+00    0.0     0.00038929       -14.0976059574 -4.40E-08
     4 TBLite/Diag 0.40E+00    0.0     0.00023790       -14.0976060070 -4.96E-08
     5 TBLite/Diag 0.40E+00    0.0     0.00006028       -14.0976060107 -3.75E-09
     6 TBLite/Diag 0.40E+00    0.0     0.00001119       -14.0976060111 -3.75E-10
     7 TBLite/Diag 0.40E+00    0.0     0.00000377       -14.0976060111 -3.49E-11
     8 TBLite/Diag 0.40E+00    0.0     0.00000072       -14.0976060111 -3.11E-13
     9 TBLite/Diag 0.40E+00    0.0     0.00000003       -14.0976060111 -1.07E-14
    10 TBLite/Diag 0.40E+00    0.0     0.00000001       -14.0976060111  8.88E-15
    11 TBLite/Diag 0.40E+00    0.0     1.7736E-09       -14.0976060111 -3.55E-15
    12 TBLite/Diag 0.40E+00    0.0     6.6678E-10       -14.0976060111  0.00E+00

  *** SCF run converged in    12 steps ***


  Core Hamiltonian energy:                                    -14.31105664866249
  Repulsive potential energy:                                   0.15526906917877
  Electrostatic energy:                                         0.06116423778986
  Self-consistent dispersion energy:                           -0.00298311289384
  Non-self consistent dispersion energy:                        0.00000044344202
  Correction for halogen bonding:                               0.00000000000000
  Electronic entropic energy:                                  -0.00000000000000
  Fermi energy:                                                -0.21702449149512

  Total energy:                                               -14.09760601114568
  Total energy (extrapolated to T->0):                        -14.09760601114568

 ENERGY| Total FORCE_EVAL ( QS ) energy [hartree]            -14.097606011145682

 OPT| **************************************************************************
 OPT| Step number                                                              3
 OPT| Optimization method                                                   BFGS
 OPT| Total energy [hartree]                                      -14.0976060111
 OPT| Effective energy change [hartree]                            -0.0000570078
 OPT| Predicted energy change [hartree]                            -0.0000352653
 OPT| Scaling factor                                                0.0000000000
 OPT| Step size                                                     0.0138251889
 OPT| Trust radius                                                  0.4724315332
 OPT| Decrease in energy                                                     YES
 OPT| Used time [s]                                                        0.017
 OPT|
 OPT| Maximum step size                                             0.0138251889
 OPT| Convergence limit for maximum step size                       0.0030000000
 OPT| Maximum step size is converged                                          NO
 OPT|
 OPT| RMS step size                                                 0.0060002874
 OPT| Convergence limit for RMS step size                           0.0015000000
 OPT| RMS step size is converged                                              NO
 OPT|
 OPT| Maximum gradient                                              0.0031677959
 OPT| Convergence limit for maximum gradient                        0.0004500000
 OPT| Maximum gradient is converged                                           NO
 OPT|
 OPT| RMS gradient                                                  0.0009601473
 OPT| Convergence limit for RMS gradient                            0.0003000000
 OPT| RMS gradient is converged                                               NO
 OPT| **************************************************************************
 OPT| Estimated peak process memory after this step [MiB]                    163

 --------------------------
 OPTIMIZATION STEP:      4
 --------------------------

 Extrapolation method: ASPC

 Number of electrons:                                                         24
 Number of occupied orbitals:                                                 12
 Number of molecular orbitals:                                                20

 Number of orbital functions:                                                 20
 Number of independent orbital functions:                                     20


 SCF WAVEFUNCTION OPTIMIZATION

  Step     Update method      Time    Convergence         Total energy    Change
  ------------------------------------------------------------------------------
     1 TBLite/Diag 0.40E+00    0.0     0.03648061       -14.0977078732 -1.41E+01
     2 TBLite/Diag 0.40E+00    0.0     0.00344784       -14.0977140820 -6.21E-06
     3 TBLite/Diag 0.40E+00    0.0     0.00069441       -14.0977143831 -3.01E-07
     4 TBLite/Diag 0.40E+00    0.0     0.00046976       -14.0977144978 -1.15E-07
     5 TBLite/Diag 0.40E+00    0.0     0.00015311       -14.0977145187 -2.09E-08
     6 TBLite/Diag 0.40E+00    0.0     0.00003321       -14.0977145215 -2.82E-09
     7 TBLite/Diag 0.40E+00    0.0     0.00000634       -14.0977145216 -9.92E-11
     8 TBLite/Diag 0.40E+00    0.0     0.00000081       -14.0977145216 -8.44E-13
     9 TBLite/Diag 0.40E+00    0.0     0.00000054       -14.0977145216 -1.76E-13
    10 TBLite/Diag 0.40E+00    0.0     0.00000002       -14.0977145216  1.42E-14
    11 TBLite/Diag 0.40E+00    0.0     1.9538E-09       -14.0977145216 -1.42E-14
    12 TBLite/Diag 0.40E+00    0.0     1.4175E-09       -14.0977145216  1.60E-14
    13 TBLite/Diag 0.40E+00    0.0     1.4543E-10       -14.0977145216 -8.88E-15

  *** SCF run converged in    13 steps ***


  Core Hamiltonian energy:                                    -14.31158122416282
  Repulsive potential energy:                                   0.15529398147806
  Electrostatic energy:                                         0.06155542347892
  Self-consistent dispersion energy:                           -0.00298314381702
  Non-self consistent dispersion energy:                        0.00000044140268
  Correction for halogen bonding:                               0.00000000000000
  Electronic entropic energy:                                  -0.00000000000000
  Fermi energy:                                                -0.21516293033877

  Total energy:                                               -14.09771452162018
  Total energy (extrapolated to T->0):                        -14.09771452162018

 ENERGY| Total FORCE_EVAL ( QS ) energy [hartree]            -14.097714521620183

 OPT| **************************************************************************
 OPT| Step number                                                              4
 OPT| Optimization method                                                   BFGS
 OPT| Total energy [hartree]                                      -14.0977145216
 OPT| Effective energy change [hartree]                            -0.0001085105
 OPT| Predicted energy change [hartree]                            -0.0000822854
 OPT| Scaling factor                                                0.0000000000
 OPT| Step size                                                     0.0415659584
 OPT| Trust radius                                                  0.4724315332
 OPT| Decrease in energy                                                     YES
 OPT| Used time [s]                                                        0.012
 OPT|
 OPT| Maximum step size                                             0.0415659584
 OPT| Convergence limit for maximum step size                       0.0030000000
 OPT| Maximum step size is converged                                          NO
 OPT|
 OPT| RMS step size                                                 0.0190362464
 OPT| Convergence limit for RMS step size                           0.0015000000
 OPT| RMS step size is converged                                              NO
 OPT|
 OPT| Maximum gradient                                              0.0015607109
 OPT| Convergence limit for maximum gradient                        0.0004500000
 OPT| Maximum gradient is converged                                           NO
 OPT|
 OPT| RMS gradient                                                  0.0007231790
 OPT| Convergence limit for RMS gradient                            0.0003000000
 OPT| RMS gradient is converged                                               NO
 OPT| **************************************************************************
 OPT| Estimated peak process memory after this step [MiB]                    163

 --------------------------
 OPTIMIZATION STEP:      5
 --------------------------

 Extrapolation method: ASPC

 Number of electrons:                                                         24
 Number of occupied orbitals:                                                 12
 Number of molecular orbitals:                                                20

 Number of orbital functions:                                                 20
 Number of independent orbital functions:                                     20


 SCF WAVEFUNCTION OPTIMIZATION

  Step     Update method      Time    Convergence         Total energy    Change
  ------------------------------------------------------------------------------
     1 TBLite/Diag 0.40E+00    0.0     0.02512112       -14.0977593892 -1.41E+01
     2 TBLite/Diag 0.40E+00    0.0     0.00120373       -14.0977601892 -8.00E-07
     3 TBLite/Diag 0.40E+00    0.0     0.00035799       -14.0977602398 -5.07E-08
     4 TBLite/Diag 0.40E+00    0.0     0.00022284       -14.0977602744 -3.45E-08
     5 TBLite/Diag 0.40E+00    0.0     0.00005968       -14.0977602777 -3.35E-09
     6 TBLite/Diag 0.40E+00    0.0     0.00001834       -14.0977602783 -5.41E-10
     7 TBLite/Diag 0.40E+00    0.0     0.00000381       -14.0977602783 -1.76E-11
     8 TBLite/Diag 0.40E+00    0.0     0.00000011       -14.0977602783 -3.38E-14
     9 TBLite/Diag 0.40E+00    0.0     0.00000009       -14.0977602783  1.78E-15
    10 TBLite/Diag 0.40E+00    0.0     0.00000002       -14.0977602783  7.11E-15
    11 TBLite/Diag 0.40E+00    0.0     2.2044E-09       -14.0977602783  1.78E-15
    12 TBLite/Diag 0.40E+00    0.0     3.2774E-10       -14.0977602783 -7.11E-15

  *** SCF run converged in    12 steps ***


  Core Hamiltonian energy:                                    -14.31168339206891
  Repulsive potential energy:                                   0.15516877121467
  Electrostatic energy:                                         0.06173717919687
  Self-consistent dispersion energy:                           -0.00298327838789
  Non-self consistent dispersion energy:                        0.00000044176535
  Correction for halogen bonding:                               0.00000000000000
  Electronic entropic energy:                                  -0.00000000000000
  Fermi energy:                                                -0.21447154417740

  Total energy:                                               -14.09776027827990
  Total energy (extrapolated to T->0):                        -14.09776027827990

 ENERGY| Total FORCE_EVAL ( QS ) energy [hartree]            -14.097760278279905

 OPT| **************************************************************************
 OPT| Step number                                                              5
 OPT| Optimization method                                                   BFGS
 OPT| Total energy [hartree]                                      -14.0977602783
 OPT| Effective energy change [hartree]                            -0.0000457567
 OPT| Predicted energy change [hartree]                            -0.0000340186
 OPT| Scaling factor                                                0.0000000000
 OPT| Step size                                                     0.0326099341
 OPT| Trust radius                                                  0.4724315332
 OPT| Decrease in energy                                                     YES
 OPT| Used time [s]                                                        0.011
 OPT|
 OPT| Maximum step size                                             0.0326099341
 OPT| Convergence limit for maximum step size                       0.0030000000
 OPT| Maximum step size is converged                                          NO
 OPT|
 OPT| RMS step size                                                 0.0136698588
 OPT| Convergence limit for RMS step size                           0.0015000000
 OPT| RMS step size is converged                                              NO
 OPT|
 OPT| Maximum gradient                                              0.0017445435
 OPT| Convergence limit for maximum gradient                        0.0004500000
 OPT| Maximum gradient is converged                                           NO
 OPT|
 OPT| RMS gradient                                                  0.0007743939
 OPT| Convergence limit for RMS gradient                            0.0003000000
 OPT| RMS gradient is converged                                               NO
 OPT| **************************************************************************
 OPT| Estimated peak process memory after this step [MiB]                    163

 --------------------------
 OPTIMIZATION STEP:      6
 --------------------------

 Extrapolation method: ASPC

 Number of electrons:                                                         24
 Number of occupied orbitals:                                                 12
 Number of molecular orbitals:                                                20

 Number of orbital functions:                                                 20
 Number of independent orbital functions:                                     20


 SCF WAVEFUNCTION OPTIMIZATION

  Step     Update method      Time    Convergence         Total energy    Change
  ------------------------------------------------------------------------------
     1 TBLite/Diag 0.40E+00    0.0     0.01844191       -14.0977874958 -1.41E+01
     2 TBLite/Diag 0.40E+00    0.0     0.00022833       -14.0977876382 -1.42E-07
     3 TBLite/Diag 0.40E+00    0.0     0.00012140       -14.0977876700 -3.19E-08
     4 TBLite/Diag 0.40E+00    0.0     0.00002708       -14.0977876707 -6.11E-10
     5 TBLite/Diag 0.40E+00    0.0     0.00000970       -14.0977876707 -8.64E-11
     6 TBLite/Diag 0.40E+00    0.0     0.00000280       -14.0977876708 -1.08E-11
     7 TBLite/Diag 0.40E+00    0.0     0.00000190       -14.0977876708 -1.66E-12
     8 TBLite/Diag 0.40E+00    0.0     0.00000061       -14.0977876708 -6.98E-13
     9 TBLite/Diag 0.40E+00    0.0     0.00000013       -14.0977876708 -3.20E-14
    10 TBLite/Diag 0.40E+00    0.0     0.00000003       -14.0977876708 -1.07E-14
    11 TBLite/Diag 0.40E+00    0.0     2.3439E-09       -14.0977876708  5.33E-15
    12 TBLite/Diag 0.40E+00    0.0     7.7815E-11       -14.0977876708 -1.78E-15

  *** SCF run converged in    12 steps ***


  Core Hamiltonian energy:                                    -14.31176117195507
  Repulsive potential energy:                                   0.15519363554615
  Electrostatic energy:                                         0.06176284115818
  Self-consistent dispersion energy:                           -0.00298341779725
  Non-self consistent dispersion energy:                        0.00000044228718
  Correction for halogen bonding:                               0.00000000000000
  Electronic entropic energy:                                  -0.00000000000000
  Fermi energy:                                                -0.21436787941240

  Total energy:                                               -14.09778767076080
  Total energy (extrapolated to T->0):                        -14.09778767076080

 ENERGY| Total FORCE_EVAL ( QS ) energy [hartree]            -14.097787670760804

 OPT| **************************************************************************
 OPT| Step number                                                              6
 OPT| Optimization method                                                   BFGS
 OPT| Total energy [hartree]                                      -14.0977876708
 OPT| Effective energy change [hartree]                            -0.0000273925
 OPT| Predicted energy change [hartree]                            -0.0000235665
 OPT| Scaling factor                                                0.0000000000
 OPT| Step size                                                     0.0287624170
 OPT| Trust radius                                                  0.4724315332
 OPT| Decrease in energy                                                     YES
 OPT| Used time [s]                                                        0.011
 OPT|
 OPT| Maximum step size                                             0.0287624170
 OPT| Convergence limit for maximum step size                       0.0030000000
 OPT| Maximum step size is converged                                          NO
 OPT|
 OPT| RMS step size                                                 0.0111335736
 OPT| Convergence limit for RMS step size                           0.0015000000
 OPT| RMS step size is converged                                              NO
 OPT|
 OPT| Maximum gradient                                              0.0015878548
 OPT| Convergence limit for maximum gradient                        0.0004500000
 OPT| Maximum gradient is converged                                           NO
 OPT|
 OPT| RMS gradient                                                  0.0005666559
 OPT| Convergence limit for RMS gradient                            0.0003000000
 OPT| RMS gradient is converged                                               NO
 OPT| **************************************************************************
 OPT| Estimated peak process memory after this step [MiB]                    163

 --------------------------
 OPTIMIZATION STEP:      7
 --------------------------

 Extrapolation method: ASPC

 Number of electrons:                                                         24
 Number of occupied orbitals:                                                 12
 Number of molecular orbitals:                                                20

 Number of orbital functions:                                                 20
 Number of independent orbital functions:                                     20


 SCF WAVEFUNCTION OPTIMIZATION

  Step     Update method      Time    Convergence         Total energy    Change
  ------------------------------------------------------------------------------
     1 TBLite/Diag 0.40E+00    0.0     0.01270827       -14.0978024746 -1.41E+01
     2 TBLite/Diag 0.40E+00    0.0     0.00091606       -14.0978029881 -5.14E-07
     3 TBLite/Diag 0.40E+00    0.0     0.00016135       -14.0978030092 -2.11E-08
     4 TBLite/Diag 0.40E+00    0.0     0.00013479       -14.0978030193 -1.01E-08
     5 TBLite/Diag 0.40E+00    0.0     0.00003782       -14.0978030207 -1.42E-09
     6 TBLite/Diag 0.40E+00    0.0     0.00000609       -14.0978030208 -1.04E-10
     7 TBLite/Diag 0.40E+00    0.0     0.00000122       -14.0978030208 -4.32E-12
     8 TBLite/Diag 0.40E+00    0.0     0.00000046       -14.0978030208 -5.81E-13
     9 TBLite/Diag 0.40E+00    0.0     0.00000018       -14.0978030208 -3.20E-14
    10 TBLite/Diag 0.40E+00    0.0     0.00000002       -14.0978030208  1.78E-15
    11 TBLite/Diag 0.40E+00    0.0     1.4212E-09       -14.0978030208 -3.55E-15
    12 TBLite/Diag 0.40E+00    0.0     9.7985E-11       -14.0978030208  1.24E-14

  *** SCF run converged in    12 steps ***


  Core Hamiltonian energy:                                    -14.31185421460823
  Repulsive potential energy:                                   0.15535983490729
  Electrostatic energy:                                         0.06167443410572
  Self-consistent dispersion energy:                           -0.00298351776966
  Non-self consistent dispersion energy:                        0.00000044251652
  Correction for halogen bonding:                               0.00000000000000
  Electronic entropic energy:                                  -0.00000000000000
  Fermi energy:                                                -0.21458343025756

  Total energy:                                               -14.09780302084836
  Total energy (extrapolated to T->0):                        -14.09780302084836

 ENERGY| Total FORCE_EVAL ( QS ) energy [hartree]            -14.097803020848358

 OPT| **************************************************************************
 OPT| Step number                                                              7
 OPT| Optimization method                                                   BFGS
 OPT| Total energy [hartree]                                      -14.0978030208
 OPT| Effective energy change [hartree]                            -0.0000153501
 OPT| Predicted energy change [hartree]                            -0.0000145651
 OPT| Scaling factor                                                0.0000000000
 OPT| Step size                                                     0.0181767655
 OPT| Trust radius                                                  0.4724315332
 OPT| Decrease in energy                                                     YES
 OPT| Used time [s]                                                        0.011
 OPT|
 OPT| Maximum step size                                             0.0181767655
 OPT| Convergence limit for maximum step size                       0.0030000000
 OPT| Maximum step size is converged                                          NO
 OPT|
 OPT| RMS step size                                                 0.0068924284
 OPT| Convergence limit for RMS step size                           0.0015000000
 OPT| RMS step size is converged                                              NO
 OPT|
 OPT| Maximum gradient                                              0.0009192317
 OPT| Convergence limit for maximum gradient                        0.0004500000
 OPT| Maximum gradient is converged                                           NO
 OPT|
 OPT| RMS gradient                                                  0.0003429686
 OPT| Convergence limit for RMS gradient                            0.0003000000
 OPT| RMS gradient is converged                                               NO
 OPT| **************************************************************************
 OPT| Estimated peak process memory after this step [MiB]                    163

 --------------------------
 OPTIMIZATION STEP:      8
 --------------------------

 Extrapolation method: ASPC

 Number of electrons:                                                         24
 Number of occupied orbitals:                                                 12
 Number of molecular orbitals:                                                20

 Number of orbital functions:                                                 20
 Number of independent orbital functions:                                     20


 SCF WAVEFUNCTION OPTIMIZATION

  Step     Update method      Time    Convergence         Total energy    Change
  ------------------------------------------------------------------------------
     1 TBLite/Diag 0.40E+00    0.0     0.00589487       -14.0978113168 -1.41E+01
     2 TBLite/Diag 0.40E+00    0.0     0.00032660       -14.0978113798 -6.30E-08
     3 TBLite/Diag 0.40E+00    0.0     0.00005460       -14.0978113843 -4.45E-09
     4 TBLite/Diag 0.40E+00    0.0     0.00005587       -14.0978113857 -1.41E-09
     5 TBLite/Diag 0.40E+00    0.0     0.00001497       -14.0978113859 -2.03E-10
     6 TBLite/Diag 0.40E+00    0.0     0.00000547       -14.0978113859 -3.99E-11
     7 TBLite/Diag 0.40E+00    0.0     0.00000086       -14.0978113859 -1.39E-12
     8 TBLite/Diag 0.40E+00    0.0     0.00000014       -14.0978113859 -2.66E-14
     9 TBLite/Diag 0.40E+00    0.0     0.00000011       -14.0978113859 -1.78E-14
    10 TBLite/Diag 0.40E+00    0.0     0.00000001       -14.0978113859  5.33E-15
    11 TBLite/Diag 0.40E+00    0.0     1.2544E-09       -14.0978113859 -8.88E-15
    12 TBLite/Diag 0.40E+00    0.0     6.1112E-11       -14.0978113859 -1.07E-14

  *** SCF run converged in    12 steps ***


  Core Hamiltonian energy:                                    -14.31187402519363
  Repulsive potential energy:                                   0.15542596022236
  Electrostatic energy:                                         0.06161975706274
  Self-consistent dispersion energy:                           -0.00298352017202
  Non-self consistent dispersion energy:                        0.00000044216731
  Correction for halogen bonding:                               0.00000000000000
  Electronic entropic energy:                                  -0.00000000000000
  Fermi energy:                                                -0.21458799954173

  Total energy:                                               -14.09781138591326
  Total energy (extrapolated to T->0):                        -14.09781138591326

 ENERGY| Total FORCE_EVAL ( QS ) energy [hartree]            -14.097811385913255

 OPT| **************************************************************************
 OPT| Step number                                                              8
 OPT| Optimization method                                                   BFGS
 OPT| Total energy [hartree]                                      -14.0978113859
 OPT| Effective energy change [hartree]                            -0.0000083651
 OPT| Predicted energy change [hartree]                            -0.0000056180
 OPT| Scaling factor                                                0.0000000000
 OPT| Step size                                                     0.0064435720
 OPT| Trust radius                                                  0.4724315332
 OPT| Decrease in energy                                                     YES
 OPT| Used time [s]                                                        0.011
 OPT|
 OPT| Maximum step size                                             0.0064435720
 OPT| Convergence limit for maximum step size                       0.0030000000
 OPT| Maximum step size is converged                                          NO
 OPT|
 OPT| RMS step size                                                 0.0030517726
 OPT| Convergence limit for RMS step size                           0.0015000000
 OPT| RMS step size is converged                                              NO
 OPT|
 OPT| Maximum gradient                                              0.0005870544
 OPT| Convergence limit for maximum gradient                        0.0004500000
 OPT| Maximum gradient is converged                                           NO
 OPT|
 OPT| RMS gradient                                                  0.0002459913
 OPT| Convergence limit for RMS gradient                            0.0003000000
 OPT| RMS gradient is converged                                              YES
 OPT| **************************************************************************
 OPT| Estimated peak process memory after this step [MiB]                    163

 --------------------------
 OPTIMIZATION STEP:      9
 --------------------------

 Extrapolation method: ASPC

 Number of electrons:                                                         24
 Number of occupied orbitals:                                                 12
 Number of molecular orbitals:                                                20

 Number of orbital functions:                                                 20
 Number of independent orbital functions:                                     20


 SCF WAVEFUNCTION OPTIMIZATION

  Step     Update method      Time    Convergence         Total energy    Change
  ------------------------------------------------------------------------------
     1 TBLite/Diag 0.40E+00    0.0     0.00511891       -14.0978168920 -1.41E+01
     2 TBLite/Diag 0.40E+00    0.0     0.00024033       -14.0978169494 -5.74E-08
     3 TBLite/Diag 0.40E+00    0.0     0.00008509       -14.0978169540 -4.53E-09
     4 TBLite/Diag 0.40E+00    0.0     0.00002724       -14.0978169550 -1.02E-09
     5 TBLite/Diag 0.40E+00    0.0     0.00001276       -14.0978169550 -4.88E-11
     6 TBLite/Diag 0.40E+00    0.0     0.00000424       -14.0978169551 -4.67E-11
     7 TBLite/Diag 0.40E+00    0.0     0.00000090       -14.0978169551 -8.99E-13
     8 TBLite/Diag 0.40E+00    0.0     0.00000013       -14.0978169551 -7.28E-14
     9 TBLite/Diag 0.40E+00    0.0     0.00000005       -14.0978169551  1.78E-14
    10 TBLite/Diag 0.40E+00    0.0     0.00000002       -14.0978169551 -7.11E-15
    11 TBLite/Diag 0.40E+00    0.0     8.5661E-10       -14.0978169551 -5.33E-15

  *** SCF run converged in    11 steps ***


  Core Hamiltonian energy:                                    -14.31181258803315
  Repulsive potential energy:                                   0.15536554976975
  Electrostatic energy:                                         0.06161302943705
  Self-consistent dispersion energy:                           -0.00298338832348
  Non-self consistent dispersion energy:                        0.00000044206139
  Correction for halogen bonding:                               0.00000000000000
  Electronic entropic energy:                                  -0.00000000000000
  Fermi energy:                                                -0.21451621696853

  Total energy:                                               -14.09781695508844
  Total energy (extrapolated to T->0):                        -14.09781695508844

 ENERGY| Total FORCE_EVAL ( QS ) energy [hartree]            -14.097816955088442

 OPT| **************************************************************************
 OPT| Step number                                                              9
 OPT| Optimization method                                                   BFGS
 OPT| Total energy [hartree]                                      -14.0978169551
 OPT| Effective energy change [hartree]                            -0.0000055692
 OPT| Predicted energy change [hartree]                            -0.0000045625
 OPT| Scaling factor                                                0.0000000000
 OPT| Step size                                                     0.0064943163
 OPT| Trust radius                                                  0.4724315332
 OPT| Decrease in energy                                                     YES
 OPT| Used time [s]                                                        0.011
 OPT|
 OPT| Maximum step size                                             0.0064943163
 OPT| Convergence limit for maximum step size                       0.0030000000
 OPT| Maximum step size is converged                                          NO
 OPT|
 OPT| RMS step size                                                 0.0037285460
 OPT| Convergence limit for RMS step size                           0.0015000000
 OPT| RMS step size is converged                                              NO
 OPT|
 OPT| Maximum gradient                                              0.0007432402
 OPT| Convergence limit for maximum gradient                        0.0004500000
 OPT| Maximum gradient is converged                                           NO
 OPT|
 OPT| RMS gradient                                                  0.0002383483
 OPT| Convergence limit for RMS gradient                            0.0003000000
 OPT| RMS gradient is converged                                              YES
 OPT| **************************************************************************
 OPT| Estimated peak process memory after this step [MiB]                    163

 --------------------------
 OPTIMIZATION STEP:     10
 --------------------------

 Extrapolation method: ASPC

 Number of electrons:                                                         24
 Number of occupied orbitals:                                                 12
 Number of molecular orbitals:                                                20

 Number of orbital functions:                                                 20
 Number of independent orbital functions:                                     20


 SCF WAVEFUNCTION OPTIMIZATION

  Step     Update method      Time    Convergence         Total energy    Change
  ------------------------------------------------------------------------------
     1 TBLite/Diag 0.40E+00    0.0     0.00204420       -14.0978183383 -1.41E+01
     2 TBLite/Diag 0.40E+00    0.0     0.00051634       -14.0978184867 -1.48E-07
     3 TBLite/Diag 0.40E+00    0.0     0.00006042       -14.0978184903 -3.64E-09
     4 TBLite/Diag 0.40E+00    0.0     0.00002599       -14.0978184907 -3.32E-10
     5 TBLite/Diag 0.40E+00    0.0     0.00001622       -14.0978184909 -2.79E-10
     6 TBLite/Diag 0.40E+00    0.0     0.00000271       -14.0978184909 -1.70E-11
     7 TBLite/Diag 0.40E+00    0.0     0.00000075       -14.0978184909 -8.90E-13
     8 TBLite/Diag 0.40E+00    0.0     0.00000008       -14.0978184909 -7.11E-15
     9 TBLite/Diag 0.40E+00    0.0     0.00000002       -14.0978184909 -1.07E-14
    10 TBLite/Diag 0.40E+00    0.0     6.4817E-09       -14.0978184909 -1.78E-15
    11 TBLite/Diag 0.40E+00    0.0     2.8161E-10       -14.0978184909  8.88E-15

  *** SCF run converged in    11 steps ***


  Core Hamiltonian energy:                                    -14.31181815852719
  Repulsive potential energy:                                   0.15533176637950
  Electrostatic energy:                                         0.06165072158604
  Self-consistent dispersion energy:                           -0.00298326267989
  Non-self consistent dispersion energy:                        0.00000044229249
  Correction for halogen bonding:                               0.00000000000000
  Electronic entropic energy:                                  -0.00000000000000
  Fermi energy:                                                -0.21441761188136

  Total energy:                                               -14.09781849094906
  Total energy (extrapolated to T->0):                        -14.09781849094906

 ENERGY| Total FORCE_EVAL ( QS ) energy [hartree]            -14.097818490949061

 OPT| **************************************************************************
 OPT| Step number                                                             10
 OPT| Optimization method                                                   BFGS
 OPT| Total energy [hartree]                                      -14.0978184909
 OPT| Effective energy change [hartree]                            -0.0000015359
 OPT| Predicted energy change [hartree]                            -0.0000010433
 OPT| Scaling factor                                                0.0000000000
 OPT| Step size                                                     0.0033730991
 OPT| Trust radius                                                  0.4724315332
 OPT| Decrease in energy                                                     YES
 OPT| Used time [s]                                                        0.011
 OPT|
 OPT| Maximum step size                                             0.0033730991
 OPT| Convergence limit for maximum step size                       0.0030000000
 OPT| Maximum step size is converged                                          NO
 OPT|
 OPT| RMS step size                                                 0.0015480778
 OPT| Convergence limit for RMS step size                           0.0015000000
 OPT| RMS step size is converged                                              NO
 OPT|
 OPT| Maximum gradient                                              0.0004080326
 OPT| Convergence limit for maximum gradient                        0.0004500000
 OPT| Maximum gradient is converged                                          YES
 OPT|
 OPT| RMS gradient                                                  0.0001604388
 OPT| Convergence limit for RMS gradient                            0.0003000000
 OPT| RMS gradient is converged                                              YES
 OPT| **************************************************************************
 OPT| Estimated peak process memory after this step [MiB]                    163

 --------------------------
 OPTIMIZATION STEP:     11
 --------------------------

 Extrapolation method: ASPC

 Number of electrons:                                                         24
 Number of occupied orbitals:                                                 12
 Number of molecular orbitals:                                                20

 Number of orbital functions:                                                 20
 Number of independent orbital functions:                                     20


 SCF WAVEFUNCTION OPTIMIZATION

  Step     Update method      Time    Convergence         Total energy    Change
  ------------------------------------------------------------------------------
     1 TBLite/Diag 0.40E+00    0.0     0.00345571       -14.0978192891 -1.41E+01
     2 TBLite/Diag 0.40E+00    0.0     0.00072906       -14.0978195586 -2.70E-07
     3 TBLite/Diag 0.40E+00    0.0     0.00009249       -14.0978195680 -9.36E-09
     4 TBLite/Diag 0.40E+00    0.0     0.00005582       -14.0978195691 -1.08E-09
     5 TBLite/Diag 0.40E+00    0.0     0.00002665       -14.0978195698 -7.20E-10
     6 TBLite/Diag 0.40E+00    0.0     0.00000398       -14.0978195698 -4.60E-11
     7 TBLite/Diag 0.40E+00    0.0     0.00000082       -14.0978195698 -1.67E-12
     8 TBLite/Diag 0.40E+00    0.0     0.00000013       -14.0978195698 -2.66E-14
     9 TBLite/Diag 0.40E+00    0.0     0.00000005       -14.0978195698  1.78E-15
    10 TBLite/Diag 0.40E+00    0.0     0.00000001       -14.0978195698  1.78E-15
    11 TBLite/Diag 0.40E+00    0.0     3.8720E-10       -14.0978195698 -3.55E-15

  *** SCF run converged in    11 steps ***


  Core Hamiltonian energy:                                    -14.31188645649640
  Repulsive potential energy:                                   0.15533875394344
  Electrostatic energy:                                         0.06171080292693
  Self-consistent dispersion energy:                           -0.00298311289050
  Non-self consistent dispersion energy:                        0.00000044267020
  Correction for halogen bonding:                               0.00000000000000
  Electronic entropic energy:                                  -0.00000000000000
  Fermi energy:                                                -0.21421023058938

  Total energy:                                               -14.09781956984634
  Total energy (extrapolated to T->0):                        -14.09781956984634

 ENERGY| Total FORCE_EVAL ( QS ) energy [hartree]            -14.097819569846344

 OPT| **************************************************************************
 OPT| Step number                                                             11
 OPT| Optimization method                                                   BFGS
 OPT| Total energy [hartree]                                      -14.0978195698
 OPT| Effective energy change [hartree]                            -0.0000010789
 OPT| Predicted energy change [hartree]                            -0.0000008560
 OPT| Scaling factor                                                0.0000000000
 OPT| Step size                                                     0.0033614923
 OPT| Trust radius                                                  0.4724315332
 OPT| Decrease in energy                                                     YES
 OPT| Used time [s]                                                        0.011
 OPT|
 OPT| Maximum step size                                             0.0033614923
 OPT| Convergence limit for maximum step size                       0.0030000000
 OPT| Maximum step size is converged                                          NO
 OPT|
 OPT| RMS step size                                                 0.0015493391
 OPT| Convergence limit for RMS step size                           0.0015000000
 OPT| RMS step size is converged                                              NO
 OPT|
 OPT| Maximum gradient                                              0.0001886950
 OPT| Convergence limit for maximum gradient                        0.0004500000
 OPT| Maximum gradient is converged                                          YES
 OPT|
 OPT| RMS gradient                                                  0.0000889906
 OPT| Convergence limit for RMS gradient                            0.0003000000
 OPT| RMS gradient is converged                                              YES
 OPT| **************************************************************************
 OPT| Estimated peak process memory after this step [MiB]                    163

 --------------------------
 OPTIMIZATION STEP:     12
 --------------------------

 Extrapolation method: ASPC

 Number of electrons:                                                         24
 Number of occupied orbitals:                                                 12
 Number of molecular orbitals:                                                20

 Number of orbital functions:                                                 20
 Number of independent orbital functions:                                     20


 SCF WAVEFUNCTION OPTIMIZATION

  Step     Update method      Time    Convergence         Total energy    Change
  ------------------------------------------------------------------------------
     1 TBLite/Diag 0.40E+00    0.0     0.00207842       -14.0978198338 -1.41E+01
     2 TBLite/Diag 0.40E+00    0.0     0.00027332       -14.0978198694 -3.56E-08
     3 TBLite/Diag 0.40E+00    0.0     0.00006428       -14.0978198713 -1.88E-09
     4 TBLite/Diag 0.40E+00    0.0     0.00003859       -14.0978198722 -8.84E-10
     5 TBLite/Diag 0.40E+00    0.0     0.00001177       -14.0978198723 -1.43E-10
     6 TBLite/Diag 0.40E+00    0.0     0.00000196       -14.0978198724 -1.31E-11
     7 TBLite/Diag 0.40E+00    0.0     0.00000056       -14.0978198724 -4.83E-13
     8 TBLite/Diag 0.40E+00    0.0     0.00000006       -14.0978198724 -7.11E-15
     9 TBLite/Diag 0.40E+00    0.0     0.00000001       -14.0978198724 -1.07E-14
    10 TBLite/Diag 0.40E+00    0.0     3.5985E-09       -14.0978198724  1.78E-15
    11 TBLite/Diag 0.40E+00    0.0     4.4208E-10       -14.0978198724  3.55E-15

  *** SCF run converged in    11 steps ***


  Core Hamiltonian energy:                                    -14.31196148626440
  Repulsive potential energy:                                   0.15539052828555
  Electrostatic energy:                                         0.06173369457005
  Self-consistent dispersion energy:                           -0.00298305177072
  Non-self consistent dispersion energy:                        0.00000044282783
  Correction for halogen bonding:                               0.00000000000000
  Electronic entropic energy:                                  -0.00000000000000
  Fermi energy:                                                -0.21407604464562

  Total energy:                                               -14.09781987235170
  Total energy (extrapolated to T->0):                        -14.09781987235170

 ENERGY| Total FORCE_EVAL ( QS ) energy [hartree]            -14.097819872351700

 OPT| **************************************************************************
 OPT| Step number                                                             12
 OPT| Optimization method                                                   BFGS
 OPT| Total energy [hartree]                                      -14.0978198724
 OPT| Effective energy change [hartree]                            -0.0000003025
 OPT| Predicted energy change [hartree]                            -0.0000002233
 OPT| Scaling factor                                                0.0000000000
 OPT| Step size                                                     0.0017669972
 OPT| Trust radius                                                  0.4724315332
 OPT| Decrease in energy                                                     YES
 OPT| Used time [s]                                                        0.011
 OPT|
 OPT| Maximum step size                                             0.0017669972
 OPT| Convergence limit for maximum step size                       0.0030000000
 OPT| Maximum step size is converged                                         YES
 OPT|
 OPT| RMS step size                                                 0.0007089655
 OPT| Convergence limit for RMS step size                           0.0015000000
 OPT| RMS step size is converged                                             YES
 OPT|
 OPT| Maximum gradient                                              0.0001481653
 OPT| Convergence limit for maximum gradient                        0.0004500000
 OPT| Maximum gradient is converged                                          YES
 OPT|
 OPT| RMS gradient                                                  0.0000676658
 OPT| Convergence limit for RMS gradient                            0.0003000000
 OPT| RMS gradient is converged                                              YES
 OPT| **************************************************************************
 OPT| Estimated peak process memory after this step [MiB]                    163

 *******************************************************************************
 ***                    GEOMETRY OPTIMIZATION COMPLETED                      ***
 *******************************************************************************

 write_final_structure: Optimization converged, writing XYZ file gladly:
  urea_GFN2_mol_geoopt-FINAL-1_12.xyz

 write_final_structure: Optimization converged, writing CIF file gladly:
  urea_GFN2_mol_geoopt-FINAL-1_12.cif

 write_final_structure: Done!

                    Reevaluating energy at the minimum

 Extrapolation method: ASPC

 Number of electrons:                                                         24
 Number of occupied orbitals:                                                 12
 Number of molecular orbitals:                                                20

 Number of orbital functions:                                                 20
 Number of independent orbital functions:                                     20


 SCF WAVEFUNCTION OPTIMIZATION

  Step     Update method      Time    Convergence         Total energy    Change
  ------------------------------------------------------------------------------
     1 TBLite/Diag 0.40E+00    0.0     4.5354E-11       -14.0978198724 -1.41E+01

  *** SCF run converged in     1 steps ***


  Core Hamiltonian energy:                                    -14.31196148627604
  Repulsive potential energy:                                   0.15539052828555
  Electrostatic energy:                                         0.06173369458170
  Self-consistent dispersion energy:                           -0.00298305177073
  Non-self consistent dispersion energy:                        0.00000044282783
  Correction for halogen bonding:                               0.00000000000000
  Electronic entropic energy:                                  -0.00000000000000
  Fermi energy:                                                -0.21407604463590

  Total energy:                                               -14.09781987235170
  Total energy (extrapolated to T->0):                        -14.09781987235170

 ENERGY| Total FORCE_EVAL ( QS ) energy [hartree]            -14.097819872351696

 -------------------------------------------------------------------------------
 -                                                                             -
 -                                DBCSR STATISTICS                             -
 -                                                                             -
 -------------------------------------------------------------------------------
 COUNTER                                    TOTAL       BLAS       SMM       ACC
 flops     1 x    20 x     1                35200       0.0%    100.0%      0.0%     
 flops     1 x     1 x    20                74400       0.0%    100.0%      0.0%     
 flops     4 x    20 x     1               140800       0.0%    100.0%      0.0%     
 flops     1 x    20 x     4               140800       0.0%    100.0%      0.0%     
 flops     4 x     1 x    20               238080       0.0%    100.0%      0.0%     
 flops     1 x     4 x    20               238080       0.0%    100.0%      0.0%     
 flops     4 x    20 x     4               563200       0.0%    100.0%      0.0%     
 flops     4 x     4 x    20              1190400       0.0%    100.0%      0.0%     
 flops inhomo. stacks                           0       0.0%      0.0%      0.0%
 flops total                         2.620960E+06       0.0%    100.0%      0.0%
 flops max/rank                      2.620960E+06       0.0%    100.0%      0.0%
 matmuls inhomo. stacks                         0       0.0%      0.0%      0.0%
 matmuls total                              10216       0.0%    100.0%      0.0%
 number of processed stacks                   964       0.0%    100.0%      0.0%
 average stack size                                     0.0      10.6       0.0
 marketing flops                     2.665600E+06
 -------------------------------------------------------------------------------
 # multiplications                            241
 max memory usage/rank              13.669970E+09
 # max total images/rank                        1
 # max 3D layers                                1
 # MPI messages exchanged                       0
 -------------------------------------------------------------------------------
 -                                                                             -
 -                      DBCSR MESSAGE PASSING PERFORMANCE                      -
 -                                                                             -
 -------------------------------------------------------------------------------
 ROUTINE             CALLS      AVE VOLUME [Bytes]
 MP_Bcast                9                     12.
 MP_Allreduce         1130                      9.
 MP_Alltoall          7971                   2298.
 MP_ISend              964                    288.
 MP_IRecv              964                    288.
 -------------------------------------------------------------------------------

 -------------------------------------------------------------------------------
 -                                                                             -
 -                          OFFLOAD MEMPOOL STATISTICS                         -
 -                                                                             -
 -------------------------------------------------------------------------------
 Memory consumption                Number of allocations  Used [MiB]  Size [MiB]
 Device                                                1           0           0
 Host                                                  1           0           0
 -------------------------------------------------------------------------------

 MEMORY| Estimated peak process memory [MiB]                                 163

 -------------------------------------------------------------------------------
 -                                                                             -
 -                         MESSAGE PASSING PERFORMANCE                         -
 -                                                                             -
 -------------------------------------------------------------------------------

 ROUTINE             CALLS      AVE VOLUME [Bytes]
 MP_Group                1
 MP_Bcast              358                     86.
 MP_Allreduce         5893                     60.
 MP_Sync               187
 MP_comm_split         186
 -------------------------------------------------------------------------------


 -------------------------------------------------------------------------------
 -                                                                             -
 -                           R E F E R E N C E S                               -
 -                                                                             -
 -------------------------------------------------------------------------------
 
 CP2K version 2026.1 (Development Version), the CP2K developers group (2026).
 CP2K is freely available from https://www.cp2k.org/ .
 
 M. Iannuzzi, J. Wilhelm, F. Stein, A. Bussy, H. Elgabarty, D. Golze, A. Hehn, 
 M. Graml, S. Marek, B. Sertcan Gökmen, C. Schran, H. Forbert, R. Z. 
 Khaliullin, A. Kozhevnikov, M. Taillefumier, R. Meli, V. V. Rybkin, M. Brehm, 
 R. Schade, O. Schütt, J. V. Pototschnig, H. Mirhosseini, A. Knüpfer, D. Marx, 
 M. Krack, J. Hutter, T. D. Kühne.
 J. Phys. Chem. B 130, 1237-1310 (2026).
 The CP2K Program Package Made Simple.
 https://doi.org/10.1021/acs.jpcb.5c05851

 A. Katbashev, M. Stahn, T. Rose, V. Alizadeh, M. Friede, C. Plett, P. 
 Steinbach, S. Ehlert.
 J. Phys. Chem. A 129, 2667-2682 (2025).
 Overview on Building Blocks and Applications of Efficient and Robust Extended 
 Tight Binding.
 https://doi.org/10.1021/acs.jpca.4c08263

 T. D. Kühne, M. Iannuzzi, M. Del Ben, V. V. Rybkin, P. Seewald, F. Stein, T. 
 Laino, R. Z. Khaliullin, O. Schütt, F. Schiffmann, D. Golze, J. Wilhelm, S. 
 Chulkov, M. H. Bani-Hashemian, V. Weber, U. Borstnik, M. Taillefumier, A. S. 
 Jakobovits, A. Lazzaro, H. Pabst, T. Müller, R. Schade, M. Guidon, S. 
 Andermatt, N. Holmberg, G. K. Schenter, A. Hehn, A. Bussy, F. Belleflamme, G. 
 Tabacchi, A. Glöß, M. Lass, I. Bethune, C. J. Mundy, C. Plessl, M. Watkins, 
 J. VandeVondele, M. Krack, J. Hutter.
 J. Chem. Phys. 152, 194103 (2020).
 CP2K: An electronic structure and molecular dynamics software package - 
 Quickstep: Efficient and accurate electronic structure calculations.
 https://doi.org/10.1063/5.0007045

 P. Pracht, E. Caldeweyher, S. Ehlert, S. Grimme.
 ChemRxiv, (2019).
 A Robust Non-Self-Consistent Tight-Binding Quantum Chemistry Method for large 
 Molecules.
 https://doi.org/10.26434/chemrxiv.8326202.v1

 S. Grimme, C. Bannwarth, P. Shushkov.
 J. Chem. Theory Comput. 13, 1989 (2017).
 A Robust and Accurate Tight-Binding Quantum Chemical Method for Structures, 
 Vibrational Frequencies, and Noncovalent Interactions of Large Molecular 
 Systems Parametrized for All spd-Block Elements (Z = 1-86).
 https://doi.org/10.1021/acs.jctc.7b00118

 O. Schuett, P. Messmer, J. Hutter, J. VandeVondele.
 Electronic Structure Calculations on Graphics Processing Units, 173-190 (2016).
 GPU-Accelerated Sparse Matrix-Matrix Multiplication for Linear Scaling Density 
 Functional Theory.
 https://doi.org/10.1002/9781118670712.ch8

 A. Heinecke, G. Henry, M. Hutchinson, H. Pabst.
 Proceedings of Intl. Supercomputing Conference, 981-991 (2016).
 LIBXSMM: Accelerating Small Matrix Multiplications by Runtime Code Generation.
 https://doi.org/10.1109/SC.2016.83

 U. Borstnik, J. VandeVondele, V. Weber, J. Hutter.
 Parallel Comput. 40, 47-58 (2014).
 Sparse matrix multiplication: The distributed block-compressed sparse row 
 library.
 https://doi.org/10.1016/j.parco.2014.03.012

 T. D. Kühne, M. Krack, F. R. Mohamed, M. Parrinello.
 Phys. Rev. Lett. 98, 066401 (2007).
 Efficient and accurate Car-Parrinello-like approach to Born-Oppenheimer 
 molecular dynamics.
 https://doi.org/10.1103/PhysRevLett.98.066401

 M. Frigo, S. G. Johnson.
 Proc. IEEE 93, 216-231 (2005).
 The design and implementation of FFTW3.
 https://doi.org/10.1109/JPROC.2004.840301

 J. Kolafa.
 J. Comput. Chem. 25, 335-342 (2004).
 Time-reversible always stable predictor-corrector method for molecular dynamics 
 of polarizable molecules.
 https://doi.org/10.1002/jcc.10385

 N. D. Mermin.
 Phys. Rev. 137, A1441-A1443 (1965).
 Thermal Properties of the Inhomogeneous Electron Gas.
 https://doi.org/10.1103/PhysRev.137.A1441


 -------------------------------------------------------------------------------
 -                                                                             -
 -                                T I M I N G                                  -
 -                                                                             -
 -------------------------------------------------------------------------------
 SUBROUTINE                       CALLS  ASD         SELF TIME        TOTAL TIME
                                MAXIMUM       AVERAGE  MAXIMUM  AVERAGE  MAXIMUM
 CP2K                                 1  1.0    0.002    0.002    0.161    0.161
 cp_geo_opt                           1  2.0    0.000    0.000    0.156    0.156
 geoopt_bfgs                          1  3.0    0.001    0.001    0.156    0.156
 cp_eval_at                          14  4.0    0.001    0.001    0.149    0.149
 qs_forces                           13  5.0    0.001    0.001    0.146    0.146
 qs_energies                         14  5.9    0.000    0.000    0.138    0.138
 scf_env_do_scf                      14  6.9    0.000    0.000    0.108    0.108
 scf_env_do_scf_inner_loop          160  8.0    0.008    0.008    0.108    0.108
 qs_scf_new_mos                     160  9.0    0.000    0.000    0.073    0.073
 cp_dbcsr_plus_fm_fm_t              186 10.8    0.001    0.001    0.043    0.043
 calculate_dm_sparse                173 10.0    0.000    0.000    0.040    0.040
 dbcsr_multiply_generic             241 12.0    0.002    0.002    0.038    0.038
 copy_dbcsr_to_fm                   375 10.5    0.001    0.001    0.022    0.022
 make_m2s                           482 13.0    0.001    0.001    0.022    0.022
 dbcsr_complete_redistribute        802 12.2    0.009    0.009    0.020    0.020
 rebuild_ks_matrix                  173  9.8    0.000    0.000    0.017    0.017
 build_tblite_ks_matrix             173 10.8    0.015    0.015    0.017    0.017
 init_scf_run                        14  6.9    0.000    0.000    0.017    0.017
 scf_env_initial_rho_setup           14  7.9    0.000    0.000    0.016    0.016
 wfi_extrapolate                     14  8.9    0.000    0.000    0.016    0.016
 qs_ks_update_qs_env                160  9.0    0.000    0.000    0.014    0.014
 qs_diis_b_step                     146 10.0    0.000    0.000    0.012    0.012
 eigensolver                        160 10.0    0.001    0.001    0.012    0.012
 build_tblite_matrices               27  7.0    0.005    0.005    0.011    0.011
 cp_fm_syevd                        186 10.6    0.000    0.000    0.011    0.011
 copy_fm_to_dbcsr                   427 11.8    0.000    0.000    0.011    0.011
 cp_dbcsr_sm_fm_multiply             55 10.4    0.000    0.000    0.010    0.010
 make_images                        482 14.0    0.002    0.002    0.010    0.010
 write_mo_set_to_restart            160  9.0    0.008    0.008    0.008    0.008
 dbcsr_finalize                    4355 12.2    0.002    0.002    0.008    0.008
 qs_energies_init_hamiltonians       14  6.9    0.000    0.000    0.007    0.007
 multiply_cannon                    241 13.0    0.003    0.003    0.007    0.007
 dbcsr_create_new                  6136 13.1    0.005    0.005    0.007    0.007
 cp_fm_syevd_base                   186 11.6    0.006    0.006    0.006    0.006
 tb_get_multipole                    27  8.0    0.004    0.004    0.006    0.006
 dbcsr_crop_matrix                  372 13.8    0.001    0.001    0.006    0.006
 cp_dbcsr_sm_fm_multiply_core        55 11.4    0.000    0.000    0.006    0.006
 dbcsr_desymmetrize_deep            375 11.5    0.002    0.002    0.006    0.006
 dbcsr_copy_submatrix               372 14.8    0.001    0.001    0.005    0.005
 dbcsr_iterator_start             10207 12.7    0.003    0.003    0.004    0.004
 qs_ks_update_qs_env_forces          13  6.0    0.000    0.000    0.004    0.004
 reorthogonalize_vectors             13  9.9    0.000    0.000    0.004    0.004
 dbcsr_merge_all                   1360 14.9    0.003    0.003    0.004    0.004
 make_basis_lowdin                   13 10.9    0.000    0.000    0.004    0.004
 parallel_gemm_fm_gemm              415 10.6    0.000    0.000    0.004    0.004
 cp_fm_gemm                         415 11.6    0.004    0.004    0.004    0.004
 cp_fm_redistribute_start           186 11.6    0.003    0.003    0.004    0.004
 dbcsr_destroy                     5803 12.5    0.002    0.002    0.004    0.004
 make_images_data                   482 15.0    0.001    0.001    0.003    0.003
 dbcsr_iterator_stop              10207 12.7    0.003    0.003    0.003    0.003
 compute_matrix_w                    14  6.9    0.000    0.000    0.003    0.003
 calculate_w_matrix_1                13  8.0    0.000    0.000    0.003    0.003
 write_restart                       13  4.0    0.003    0.003    0.003    0.003
 -------------------------------------------------------------------------------

 The number of warnings for this run is : 0
 
 -------------------------------------------------------------------------------
  **** **** ******  **  PROGRAM ENDED AT                 2026-05-23 22:46:21.710
 ***** ** ***  *** **   PROGRAM RAN ON                                spark-c86c
 **    ****   ******    PROGRAM RAN BY                                  kuehne88
 ***** **    ** ** **   PROGRAM PROCESS ID                               2230033
  **** **  *******  **  PROGRAM STOPPED IN /home/kuehne88/periodic-gfn2-benchmar
                                           ks/X23b/runs/molecule_geoopt/GFN2/ure
                                           a_GFN2_mol_geoopt
