 DBCSR| CPU Multiplication driver                                           XSMM (U)
 DBCSR| Multrec recursion limit                                              512 (U)
 DBCSR| Multiplication stack size                                           1000 (D)
 DBCSR| Maximum elements for images                                    UNLIMITED (U)
 DBCSR| Multiplicative factor virtual images                                   1 (U)
 DBCSR| Use multiplication densification                                       T (D)
 DBCSR| Multiplication size stacks                                             3 (U)
 DBCSR| Use memory pool for CPU allocation                                     F (U)
 DBCSR| Number of 3D layers                                               SINGLE (U)
 DBCSR| Use MPI memory allocation                                              F (U)
 DBCSR| Use RMA algorithm                                                      F (U)
 DBCSR| Use Communication thread                                               T (U)
 DBCSR| Communication thread load                                             87 (D)
 DBCSR| MPI: My process id                                                     0
 DBCSR| MPI: Number of processes                                               1
 DBCSR| OMP: Current number of threads                                         1
 DBCSR| OMP: Max number of threads                                             1
 DBCSR| Split modifier for TAS multiplication algorithm                  1.0E+00 (U)


  **** **** ******  **  PROGRAM STARTED AT               2026-05-23 22:46:35.678
 ***** ** ***  *** **   PROGRAM STARTED ON                            spark-c86c
 **    ****   ******    PROGRAM STARTED BY                              kuehne88
 ***** **    ** ** **   PROGRAM PROCESS ID                               2256789
  **** **  *******  **  PROGRAM STARTED IN /home/kuehne88/periodic-gfn2-benchmar
                                           ks/X23b/runs/crystal_sp/k333/GFN1/eth
                                           ylcarbamate_GFN1_k333_sp

 CP2K| version string:                 CP2K version 2026.1 (Development Version)
 CP2K| source code revision number:                                   0622d442e4
 CP2K| cp2kflags: omp fftw3 libxc parallel scalapack mpi_f08 xsmm spglib libdftd
 CP2K|            4 dftd4_v3 mctc-lib tblite
 CP2K| is freely available from                            https://www.cp2k.org/
 CP2K| Program compiled at                                   2026-05-23 22:05:08
 CP2K| Program compiled on                                            spark-c86c
 CP2K| Program compiled for                                              aarch64
 CP2K| Data directory path    /home/kuehne88/cp2k-master-tblite-20260523/install
 CP2K| Input file name                           ethylcarbamate_GFN1_k333_sp.inp

 GLOBAL| Force Environment number                                              1
 GLOBAL| Basis set file name                                           BASIS_SET
 GLOBAL| Potential file name                                           POTENTIAL
 GLOBAL| MM Potential file name                                     MM_POTENTIAL
 GLOBAL| Coordinate file name                                      __STD_INPUT__
 GLOBAL| Method name                                                        CP2K
 GLOBAL| Project name                            ethylcarbamate_GFN1_k333_energy
 GLOBAL| Run type                                                         ENERGY
 GLOBAL| FFT library                                                       FFTW3
 GLOBAL| Diagonalization library                                       ScaLAPACK
 GLOBAL| Cholesky decomposition library                                ScaLAPACK
 GLOBAL| DGEMM library                                                      BLAS
 GLOBAL| Direct generalized diagonalization requested                          F
 GLOBAL| Orthonormality check for eigenvectors                          DISABLED
 GLOBAL| Matrix multiplication library                                 ScaLAPACK
 GLOBAL| All-to-all communication in single precision                          F
 GLOBAL| FFTs using library dependent lengths                                  F
 GLOBAL| Grid backend                                                       AUTO
 GLOBAL| Global print level                                                  LOW
 GLOBAL| MPI I/O enabled                                                       T
 GLOBAL| Total number of message passing processes                             1
 GLOBAL| Number of distributed systems (nodes)                                 1
 GLOBAL| Number of threads for this process                                    1
 GLOBAL| This output is from process                                           0
 GLOBAL| OpenMP stack size per thread (OMP_STACKSIZE)                    default
 GLOBAL| CPU model name                                                  UNKNOWN
 GLOBAL| CPUID                                                              2200
 GLOBAL| Compiled for CPUID                                                 2000

 *** HINT in environment.F:970 :: The compiler target flags (arm_arch64)   ***
 *** used to build this binary cannot exploit all extensions of this CPU   ***
 *** model (arm_sve256). Consider compiler target flags as part of FCFLAGS ***
 *** and CFLAGS (ARCH file).                                               ***


 MEMORY| system memory details [Kb]
 MEMORY|                        rank 0           min           max       average
 MEMORY| MemTotal            125508532     125508532     125508532     125508532
 MEMORY| MemFree             102973028     102973028     102973028     102973028
 MEMORY| Buffers                867308        867308        867308        867308
 MEMORY| Cached               13701668      13701668      13701668      13701668
 MEMORY| Slab                  1581724       1581724       1581724       1581724
 MEMORY| SReclaimable           903776        903776        903776        903776
 MEMORY| MemLikelyFree       118445780     118445780     118445780     118445780


 GENERATE|  Preliminary Number of Bonds generated:                             0
 GENERATE|  Achieved consistency in connectivity generation.


                  #####   #####        #     #   #     #       #          
                 #     # #     #      #    ##### #     #   # #####  ####  
                 #     # #           #       #   ###   #       #   #    # 
                 #     #  #####     #        #   #  #  #   #   #   ###### 
                 #   # #       #   #         #   #   # #   #   #   #      
                 #    #  #     #  #          #   #  #  # # #   #    #   # 
                  #### #  #####  #           #   ###   ##  #   #     ###  

                                   GFN1-xTB  
                                 Version 0.0                       
                            Johann V. Pototschnig                  



 TOTAL NUMBERS AND MAXIMUM NUMBERS

  Total number of            - Atomic kinds:                                   4
                             - Atoms:                                         26
                             - Shell sets:                                    52
                             - Shells:                                        52
                             - Primitive Cartesian functions:                298
                             - Cartesian basis functions:                     76
                             - Spherical basis functions:                     76

  Maximum angular momentum of the orbital basis functions:                     1


 SCF PARAMETERS         Density guess:                                     MOPAC
                        --------------------------------------------------------
                        max_scf:                                             300
                        max_scf_history:                                       0
                        max_diis:                                              4
                        --------------------------------------------------------
                        eps_scf:                                        1.00E-09
                        eps_scf_history:                                0.00E+00
                        eps_diis:                                       1.00E-01
                        eps_eigval:                                     1.00E-05
                        --------------------------------------------------------
                        level_shift [a.u.]:                             0.000000
                        added MOs                                        40    0
                        --------------------------------------------------------
                        Mixing method:                           DIRECT_P_MIXING
                        --------------------------------------------------------
                        Smear method:                                FERMI_DIRAC
                        Electronic temperature [K]:                        300.0
                        Electronic temperature [a.u.]:                  9.50E-04
                        Accuracy threshold:                             1.00E-06
                        --------------------------------------------------------
                        No outer SCF

 Extrapolation method: initial_guess

 Number of electrons:                                                         72
 Number of occupied orbitals:                                                 36
 Number of molecular orbitals:                                                76

 Number of orbital functions:                                                 76
 Number of independent orbital functions:                                     76


 SCF WAVEFUNCTION OPTIMIZATION

  Step     Update method      Time    Convergence         Total energy    Change
  ------------------------------------------------------------------------------
     1 TBLite/Diag 0.40E+00    0.3     1.68670714       -44.6814160656 -4.47E+01
     2 TBLite/Diag 0.40E+00    0.3     0.31594370       -45.4189001547 -7.37E-01
     3 TBLite/Diag 0.40E+00    0.3     0.07105144       -45.4322724366 -1.34E-02
     4 TBLite/Diag 0.40E+00    0.3     0.03169279       -45.4336205395 -1.35E-03
     5 TBLite/Diag 0.40E+00    0.3     0.01786335       -45.4346456864 -1.03E-03
     6 TBLite/Diag 0.40E+00    0.3     0.00764703       -45.4346592176 -1.35E-05
     7 TBLite/Diag 0.40E+00    0.3     0.00409273       -45.4347413351 -8.21E-05
     8 TBLite/Diag 0.40E+00    0.2     0.00010201       -45.4347413547 -1.95E-08
     9 TBLite/Diag 0.40E+00    0.1     0.00005812       -45.4347413661 -1.14E-08
    10 TBLite/Diag 0.40E+00    0.1     0.00000874       -45.4347413666 -5.11E-10
    11 TBLite/Diag 0.40E+00    0.1     0.00000283       -45.4347413666 -2.12E-12
    12 TBLite/Diag 0.40E+00    0.1     0.00000148       -45.4347413666 -9.13E-12
    13 TBLite/Diag 0.40E+00    0.1     0.00000013       -45.4347413666 -8.53E-14
    14 TBLite/Diag 0.40E+00    0.1     0.00000003       -45.4347413666  1.42E-14
    15 TBLite/Diag 0.40E+00    0.1     1.5397E-09       -45.4347413666  2.84E-14
    16 TBLite/Diag 0.40E+00    0.1     3.4012E-10       -45.4347413666 -4.97E-14

  *** SCF run converged in    16 steps ***


  Core Hamiltonian energy:                                    -46.25371608799097
  Repulsive potential energy:                                   0.64328662892032
  Electrostatic energy:                                         0.21030872085977
  Self-consistent dispersion energy:                            0.00000000000000
  Non-self consistent dispersion energy:                       -0.03462062837456
  Correction for halogen bonding:                               0.00000000000000
  Electronic entropic energy:                                  -0.00000000000028
  Fermi energy:                                                -0.24532632231142

  Total energy:                                               -45.43474136658572
  Total energy (extrapolated to T->0):                        -45.43474136658558

 ENERGY| Total FORCE_EVAL ( QS ) energy [hartree]            -45.434741366585719

 -------------------------------------------------------------------------------
 -                                                                             -
 -                                DBCSR STATISTICS                             -
 -                                                                             -
 -------------------------------------------------------------------------------
 COUNTER                                    TOTAL       BLAS       SMM       ACC
 flops inhomo. stacks                           0       0.0%      0.0%      0.0%
 flops total                         0.000000E+00       0.0%      0.0%      0.0%
 flops max/rank                      0.000000E+00       0.0%      0.0%      0.0%
 matmuls inhomo. stacks                         0       0.0%      0.0%      0.0%
 matmuls total                                  0       0.0%      0.0%      0.0%
 number of processed stacks                     0       0.0%      0.0%      0.0%
 average stack size                                     0.0       0.0       0.0
 marketing flops                     0.000000E+00
 -------------------------------------------------------------------------------
 -                                                                             -
 -                      DBCSR MESSAGE PASSING PERFORMANCE                      -
 -                                                                             -
 -------------------------------------------------------------------------------
 ROUTINE             CALLS      AVE VOLUME [Bytes]
 MP_Bcast                1                     12.
 MP_Allreduce           19                     21.
 MP_Alltoall         37206                  35785.
 -------------------------------------------------------------------------------

 -------------------------------------------------------------------------------
 -                                                                             -
 -                          OFFLOAD MEMPOOL STATISTICS                         -
 -                                                                             -
 -------------------------------------------------------------------------------
 Memory consumption                Number of allocations  Used [MiB]  Size [MiB]
 Device                                                1           0           0
 Host                                                  1           0           0
 -------------------------------------------------------------------------------

 MEMORY| Estimated peak process memory [MiB]                                 214

 -------------------------------------------------------------------------------
 -                                                                             -
 -                         MESSAGE PASSING PERFORMANCE                         -
 -                                                                             -
 -------------------------------------------------------------------------------

 ROUTINE             CALLS      AVE VOLUME [Bytes]
 MP_Group                1
 MP_Bcast            15892                      7.
 MP_Allreduce         7367                    305.
 MP_Sync                 1
 MP_Wait             13230
 MP_ISend            18522                   6607.
 MP_IRecv            18522                   6607.
 -------------------------------------------------------------------------------


 -------------------------------------------------------------------------------
 -                                                                             -
 -                           R E F E R E N C E S                               -
 -                                                                             -
 -------------------------------------------------------------------------------
 
 CP2K version 2026.1 (Development Version), the CP2K developers group (2026).
 CP2K is freely available from https://www.cp2k.org/ .
 
 M. Iannuzzi, J. Wilhelm, F. Stein, A. Bussy, H. Elgabarty, D. Golze, A. Hehn, 
 M. Graml, S. Marek, B. Sertcan Gökmen, C. Schran, H. Forbert, R. Z. 
 Khaliullin, A. Kozhevnikov, M. Taillefumier, R. Meli, V. V. Rybkin, M. Brehm, 
 R. Schade, O. Schütt, J. V. Pototschnig, H. Mirhosseini, A. Knüpfer, D. Marx, 
 M. Krack, J. Hutter, T. D. Kühne.
 J. Phys. Chem. B 130, 1237-1310 (2026).
 The CP2K Program Package Made Simple.
 https://doi.org/10.1021/acs.jpcb.5c05851

 A. Katbashev, M. Stahn, T. Rose, V. Alizadeh, M. Friede, C. Plett, P. 
 Steinbach, S. Ehlert.
 J. Phys. Chem. A 129, 2667-2682 (2025).
 Overview on Building Blocks and Applications of Efficient and Robust Extended 
 Tight Binding.
 https://doi.org/10.1021/acs.jpca.4c08263

 T. D. Kühne, M. Iannuzzi, M. Del Ben, V. V. Rybkin, P. Seewald, F. Stein, T. 
 Laino, R. Z. Khaliullin, O. Schütt, F. Schiffmann, D. Golze, J. Wilhelm, S. 
 Chulkov, M. H. Bani-Hashemian, V. Weber, U. Borstnik, M. Taillefumier, A. S. 
 Jakobovits, A. Lazzaro, H. Pabst, T. Müller, R. Schade, M. Guidon, S. 
 Andermatt, N. Holmberg, G. K. Schenter, A. Hehn, A. Bussy, F. Belleflamme, G. 
 Tabacchi, A. Glöß, M. Lass, I. Bethune, C. J. Mundy, C. Plessl, M. Watkins, 
 J. VandeVondele, M. Krack, J. Hutter.
 J. Chem. Phys. 152, 194103 (2020).
 CP2K: An electronic structure and molecular dynamics software package - 
 Quickstep: Efficient and accurate electronic structure calculations.
 https://doi.org/10.1063/5.0007045

 P. Pracht, E. Caldeweyher, S. Ehlert, S. Grimme.
 ChemRxiv, (2019).
 A Robust Non-Self-Consistent Tight-Binding Quantum Chemistry Method for large 
 Molecules.
 https://doi.org/10.26434/chemrxiv.8326202.v1

 S. Grimme, C. Bannwarth, P. Shushkov.
 J. Chem. Theory Comput. 13, 1989 (2017).
 A Robust and Accurate Tight-Binding Quantum Chemical Method for Structures, 
 Vibrational Frequencies, and Noncovalent Interactions of Large Molecular 
 Systems Parametrized for All spd-Block Elements (Z = 1-86).
 https://doi.org/10.1021/acs.jctc.7b00118

 O. Schuett, P. Messmer, J. Hutter, J. VandeVondele.
 Electronic Structure Calculations on Graphics Processing Units, 173-190 (2016).
 GPU-Accelerated Sparse Matrix-Matrix Multiplication for Linear Scaling Density 
 Functional Theory.
 https://doi.org/10.1002/9781118670712.ch8

 A. Heinecke, G. Henry, M. Hutchinson, H. Pabst.
 Proceedings of Intl. Supercomputing Conference, 981-991 (2016).
 LIBXSMM: Accelerating Small Matrix Multiplications by Runtime Code Generation.
 https://doi.org/10.1109/SC.2016.83

 U. Borstnik, J. VandeVondele, V. Weber, J. Hutter.
 Parallel Comput. 40, 47-58 (2014).
 Sparse matrix multiplication: The distributed block-compressed sparse row 
 library.
 https://doi.org/10.1016/j.parco.2014.03.012

 M. Frigo, S. G. Johnson.
 Proc. IEEE 93, 216-231 (2005).
 The design and implementation of FFTW3.
 https://doi.org/10.1109/JPROC.2004.840301

 N. D. Mermin.
 Phys. Rev. 137, A1441-A1443 (1965).
 Thermal Properties of the Inhomogeneous Electron Gas.
 https://doi.org/10.1103/PhysRev.137.A1441


 -------------------------------------------------------------------------------
 -                                                                             -
 -                                T I M I N G                                  -
 -                                                                             -
 -------------------------------------------------------------------------------
 SUBROUTINE                       CALLS  ASD         SELF TIME        TOTAL TIME
                                MAXIMUM       AVERAGE  MAXIMUM  AVERAGE  MAXIMUM
 CP2K                                 1  1.0    0.007    0.007    3.789    3.789
 qs_energies                          1  2.0    0.000    0.000    3.776    3.776
 scf_env_do_scf                       1  3.0    0.000    0.000    3.625    3.625
 scf_env_do_scf_inner_loop           16  4.0    0.037    0.037    3.625    3.625
 qs_scf_new_mos_kp                   16  5.0    0.000    0.000    3.379    3.379
 do_general_diag_kp                  16  6.0    0.010    0.010    3.379    3.379
 rskp_transform                     891  6.9    1.005    1.005    1.005    1.005
 kpoint_density_transform            16  7.0    0.002    0.002    0.803    0.803
 cp_cfm_geeig                       432  7.0    0.002    0.002    0.546    0.546
 copy_dbcsr_to_fm                  1854  6.9    0.009    0.009    0.491    0.491
 dbcsr_complete_redistribute       2718  8.2    0.347    0.347    0.460    0.460
 transform_dmat                     432  8.0    0.436    0.436    0.436    0.436
 cp_cfm_heevd                       432  8.0    0.000    0.000    0.361    0.361
 cp_cfm_heevd_base                  432  9.0    0.361    0.361    0.361    0.361
 copy_fm_to_dbcsr                   864  8.0    0.002    0.002    0.280    0.280
 dbcsr_desymmetrize_deep           3636  7.4    0.187    0.187    0.272    0.272
 cp_fm_start_copy_general          2646  7.3    0.128    0.128    0.151    0.151
 cp_cfm_triangular_multiply        1296  8.0    0.131    0.131    0.131    0.131
 qs_diis_b_calc_err_kp              405  7.0    0.007    0.007    0.121    0.121
 qs_ks_update_qs_env                 16  5.0    0.000    0.000    0.118    0.118
 parallel_gemm_cfm                 1620  8.0    0.001    0.001    0.111    0.111
 dbcsr_copy                        3168  7.2    0.008    0.008    0.111    0.111
 parallel_gemm_cfm_gemm            1620  9.0    0.001    0.001    0.111    0.111
 cp_cfm_gemm                       1620 10.0    0.110    0.110    0.110    0.110
 dbcsr_copy_into_existing           864 10.0    0.099    0.099    0.101    0.101
 qs_energies_init_hamiltonians        1  3.0    0.000    0.000    0.092    0.092
 kpoint_density_matrices             16  7.0    0.003    0.003    0.092    0.092
 cp_fm_finish_copy_general         2646  7.3    0.088    0.088    0.091    0.091
 dbcsr_finalize                    7350  8.4    0.008    0.008    0.087    0.087
 parallel_gemm_fm_gemm             1728  8.0    0.001    0.001    0.087    0.087
 cp_fm_gemm                        1728  9.0    0.086    0.086    0.086    0.086
 rebuild_ks_matrix                   16  6.0    0.000    0.000    0.082    0.082
 build_tblite_ks_matrix              16  7.0    0.076    0.076    0.082    0.082
 build_tblite_matrices                1  4.0    0.058    0.058    0.079    0.079
 -------------------------------------------------------------------------------

 The number of warnings for this run is : 0
 
 -------------------------------------------------------------------------------
  **** **** ******  **  PROGRAM ENDED AT                 2026-05-23 22:46:39.832
 ***** ** ***  *** **   PROGRAM RAN ON                                spark-c86c
 **    ****   ******    PROGRAM RAN BY                                  kuehne88
 ***** **    ** ** **   PROGRAM PROCESS ID                               2256789
  **** **  *******  **  PROGRAM STOPPED IN /home/kuehne88/periodic-gfn2-benchmar
                                           ks/X23b/runs/crystal_sp/k333/GFN1/eth
                                           ylcarbamate_GFN1_k333_sp
