 DBCSR| CPU Multiplication driver                                           XSMM (U)
 DBCSR| Multrec recursion limit                                              512 (U)
 DBCSR| Multiplication stack size                                           1000 (D)
 DBCSR| Maximum elements for images                                    UNLIMITED (U)
 DBCSR| Multiplicative factor virtual images                                   1 (U)
 DBCSR| Use multiplication densification                                       T (D)
 DBCSR| Multiplication size stacks                                             3 (U)
 DBCSR| Use memory pool for CPU allocation                                     F (U)
 DBCSR| Number of 3D layers                                               SINGLE (U)
 DBCSR| Use MPI memory allocation                                              F (U)
 DBCSR| Use RMA algorithm                                                      F (U)
 DBCSR| Use Communication thread                                               T (U)
 DBCSR| Communication thread load                                             87 (D)
 DBCSR| MPI: My process id                                                     0
 DBCSR| MPI: Number of processes                                               1
 DBCSR| OMP: Current number of threads                                         1
 DBCSR| OMP: Max number of threads                                             1
 DBCSR| Split modifier for TAS multiplication algorithm                  1.0E+00 (U)


  **** **** ******  **  PROGRAM STARTED AT               2026-05-23 22:46:18.305
 ***** ** ***  *** **   PROGRAM STARTED ON                            spark-c86c
 **    ****   ******    PROGRAM STARTED BY                              kuehne88
 ***** **    ** ** **   PROGRAM PROCESS ID                               2222436
  **** **  *******  **  PROGRAM STARTED IN /home/kuehne88/periodic-gfn2-benchmar
                                           ks/X23b/runs/molecule_geoopt/GFN1/oxa
                                           lic_acid_alpha_GFN1_mol_geoopt

 CP2K| version string:                 CP2K version 2026.1 (Development Version)
 CP2K| source code revision number:                                   0622d442e4
 CP2K| cp2kflags: omp fftw3 libxc parallel scalapack mpi_f08 xsmm spglib libdftd
 CP2K|            4 dftd4_v3 mctc-lib tblite
 CP2K| is freely available from                            https://www.cp2k.org/
 CP2K| Program compiled at                                   2026-05-23 22:05:08
 CP2K| Program compiled on                                            spark-c86c
 CP2K| Program compiled for                                              aarch64
 CP2K| Data directory path    /home/kuehne88/cp2k-master-tblite-20260523/install
 CP2K| Input file name                     oxalic_acid_alpha_GFN1_mol_geoopt.inp

 GLOBAL| Force Environment number                                              1
 GLOBAL| Basis set file name                                           BASIS_SET
 GLOBAL| Potential file name                                           POTENTIAL
 GLOBAL| MM Potential file name                                     MM_POTENTIAL
 GLOBAL| Coordinate file name                                      __STD_INPUT__
 GLOBAL| Method name                                                        CP2K
 GLOBAL| Project name                          oxalic_acid_alpha_GFN1_mol_geoopt
 GLOBAL| Run type                                                        GEO_OPT
 GLOBAL| FFT library                                                       FFTW3
 GLOBAL| Diagonalization library                                       ScaLAPACK
 GLOBAL| Cholesky decomposition library                                ScaLAPACK
 GLOBAL| DGEMM library                                                      BLAS
 GLOBAL| Direct generalized diagonalization requested                          F
 GLOBAL| Orthonormality check for eigenvectors                          DISABLED
 GLOBAL| Matrix multiplication library                                 ScaLAPACK
 GLOBAL| All-to-all communication in single precision                          F
 GLOBAL| FFTs using library dependent lengths                                  F
 GLOBAL| Grid backend                                                       AUTO
 GLOBAL| Global print level                                                  LOW
 GLOBAL| MPI I/O enabled                                                       T
 GLOBAL| Total number of message passing processes                             1
 GLOBAL| Number of distributed systems (nodes)                                 1
 GLOBAL| Number of threads for this process                                    1
 GLOBAL| This output is from process                                           0
 GLOBAL| OpenMP stack size per thread (OMP_STACKSIZE)                    default
 GLOBAL| CPU model name                                                  UNKNOWN
 GLOBAL| CPUID                                                              2200
 GLOBAL| Compiled for CPUID                                                 2000

 *** HINT in environment.F:970 :: The compiler target flags (arm_arch64)   ***
 *** used to build this binary cannot exploit all extensions of this CPU   ***
 *** model (arm_sve256). Consider compiler target flags as part of FCFLAGS ***
 *** and CFLAGS (ARCH file).                                               ***


 MEMORY| system memory details [Kb]
 MEMORY|                        rank 0           min           max       average
 MEMORY| MemTotal            125508532     125508532     125508532     125508532
 MEMORY| MemFree             105609956     105609956     105609956     105609956
 MEMORY| Buffers                865984        865984        865984        865984
 MEMORY| Cached               13214800      13214800      13214800      13214800
 MEMORY| Slab                  1565168       1565168       1565168       1565168
 MEMORY| SReclaimable           888300        888300        888300        888300
 MEMORY| MemLikelyFree       120579040     120579040     120579040     120579040


 GENERATE|  Preliminary Number of Bonds generated:                             0
 GENERATE|  Achieved consistency in connectivity generation.


                  #####   #####        #     #   #     #       #          
                 #     # #     #      #    ##### #     #   # #####  ####  
                 #     # #           #       #   ###   #       #   #    # 
                 #     #  #####     #        #   #  #  #   #   #   ###### 
                 #   # #       #   #         #   #   # #   #   #   #      
                 #    #  #     #  #          #   #  #  # # #   #    #   # 
                  #### #  #####  #           #   ###   ##  #   #     ###  

                                   GFN1-xTB  
                                 Version 0.0                       
                            Johann V. Pototschnig                  



 TOTAL NUMBERS AND MAXIMUM NUMBERS

  Total number of            - Atomic kinds:                                   3
                             - Atoms:                                          8
                             - Shell sets:                                    16
                             - Shells:                                        16
                             - Primitive Cartesian functions:                 94
                             - Cartesian basis functions:                     28
                             - Spherical basis functions:                     28

  Maximum angular momentum of the orbital basis functions:                     1


 SCF PARAMETERS         Density guess:                                     MOPAC
                        --------------------------------------------------------
                        max_scf:                                             300
                        max_scf_history:                                       0
                        max_diis:                                              4
                        --------------------------------------------------------
                        eps_scf:                                        1.00E-09
                        eps_scf_history:                                0.00E+00
                        eps_diis:                                       1.00E-01
                        eps_eigval:                                     1.00E-05
                        --------------------------------------------------------
                        level_shift [a.u.]:                             0.000000
                        added MOs                                        11    0
                        --------------------------------------------------------
                        Mixing method:                           DIRECT_P_MIXING
                        --------------------------------------------------------
                        Smear method:                                FERMI_DIRAC
                        Electronic temperature [K]:                        300.0
                        Electronic temperature [a.u.]:                  9.50E-04
                        Accuracy threshold:                             1.00E-06
                        --------------------------------------------------------
                        No outer SCF

 BFGS| Use rational function optimization for step estimation:                NO
 BFGS| Use model Hessian for initial guess:                                  YES
 BFGS| Restart Hessian:                                                       NO
 BFGS| Trust radius:                                                       0.472

 *******************************************************************************
 ***                     STARTING GEOMETRY OPTIMIZATION                      ***
 ***                                   BFGS                                  ***
 *******************************************************************************

 Extrapolation method: initial_guess

 Number of electrons:                                                         34
 Number of occupied orbitals:                                                 17
 Number of molecular orbitals:                                                28

 Number of orbital functions:                                                 28
 Number of independent orbital functions:                                     28


 SCF WAVEFUNCTION OPTIMIZATION

  Step     Update method      Time    Convergence         Total energy    Change
  ------------------------------------------------------------------------------
     1 TBLite/Diag 0.40E+00    0.0     1.55371399       -23.3933963095 -2.34E+01
     2 TBLite/Diag 0.40E+00    0.0     0.42808441       -24.0939032212 -7.01E-01
     3 TBLite/Diag 0.40E+00    0.0     0.06519914       -24.1004879071 -6.58E-03
     4 TBLite/Diag 0.40E+00    0.0     0.05451139       -24.1007011647 -2.13E-04
     5 TBLite/Diag 0.40E+00    0.0     0.03502115       -24.1020057766 -1.30E-03
     6 TBLite/Diag 0.40E+00    0.0     0.00903960       -24.1021871899 -1.81E-04
     7 TBLite/Diag 0.40E+00    0.0     0.00099844       -24.1021893971 -2.21E-06
     8 TBLite/Diag 0.40E+00    0.0     0.00010242       -24.1021894019 -4.86E-09
     9 TBLite/Diag 0.40E+00    0.0     0.00005316       -24.1021894053 -3.39E-09
    10 TBLite/Diag 0.40E+00    0.0     0.00001201       -24.1021894056 -3.25E-10
    11 TBLite/Diag 0.40E+00    0.0     2.1358E-09       -24.1021894056  0.00E+00
    12 TBLite/Diag 0.40E+00    0.0     5.6892E-10       -24.1021894056 -7.11E-15

  *** SCF run converged in    12 steps ***


  Core Hamiltonian energy:                                    -24.42345952647203
  Repulsive potential energy:                                   0.15965775752159
  Electrostatic energy:                                         0.16381289520378
  Self-consistent dispersion energy:                            0.00000000000000
  Non-self consistent dispersion energy:                       -0.00220053189513
  Correction for halogen bonding:                               0.00000000000000
  Electronic entropic energy:                                  -0.00000000000000
  Fermi energy:                                                -0.39052365807348

  Total energy:                                               -24.10218940564179
  Total energy (extrapolated to T->0):                        -24.10218940564179

 ENERGY| Total FORCE_EVAL ( QS ) energy [hartree]            -24.102189405641791

 OPT| **************************************************************************
 OPT| Step number                                                              0
 OPT| Optimization method                                                   BFGS
 OPT| Total energy [hartree]                                      -24.1021894056
 OPT| Used time [s]                                                        0.017
 OPT| **************************************************************************
 OPT| Estimated peak process memory [MiB]                                    166

 --------------------------
 OPTIMIZATION STEP:      1
 --------------------------

 Extrapolation method: ASPC

 Number of electrons:                                                         34
 Number of occupied orbitals:                                                 17
 Number of molecular orbitals:                                                28

 Number of orbital functions:                                                 28
 Number of independent orbital functions:                                     28


 SCF WAVEFUNCTION OPTIMIZATION

  Step     Update method      Time    Convergence         Total energy    Change
  ------------------------------------------------------------------------------
     1 TBLite/Diag 0.40E+00    0.0     0.03645317       -24.1029838386 -2.41E+01
     2 TBLite/Diag 0.40E+00    0.0     0.00454040       -24.1030156568 -3.18E-05
     3 TBLite/Diag 0.40E+00    0.0     0.00150544       -24.1030194536 -3.80E-06
     4 TBLite/Diag 0.40E+00    0.0     0.00030588       -24.1030195718 -1.18E-07
     5 TBLite/Diag 0.40E+00    0.0     0.00004883       -24.1030195775 -5.77E-09
     6 TBLite/Diag 0.40E+00    0.0     0.00002025       -24.1030195783 -7.71E-10
     7 TBLite/Diag 0.40E+00    0.0     0.00000004       -24.1030195783 -7.11E-15
     8 TBLite/Diag 0.40E+00    0.0     5.5952E-09       -24.1030195783  7.11E-15
     9 TBLite/Diag 0.40E+00    0.0     1.3230E-09       -24.1030195783  1.07E-14
    10 TBLite/Diag 0.40E+00    0.0     7.9334E-11       -24.1030195783 -3.55E-15

  *** SCF run converged in    10 steps ***


  Core Hamiltonian energy:                                    -24.42587103113024
  Repulsive potential energy:                                   0.16198949171526
  Electrostatic energy:                                         0.16306361937677
  Self-consistent dispersion energy:                            0.00000000000000
  Non-self consistent dispersion energy:                       -0.00220165828310
  Correction for halogen bonding:                               0.00000000000000
  Electronic entropic energy:                                  -0.00000000000000
  Fermi energy:                                                -0.38547314291306

  Total energy:                                               -24.10301957832130
  Total energy (extrapolated to T->0):                        -24.10301957832130

 ENERGY| Total FORCE_EVAL ( QS ) energy [hartree]            -24.103019578321298

 OPT| **************************************************************************
 OPT| Step number                                                              1
 OPT| Optimization method                                                   BFGS
 OPT| Total energy [hartree]                                      -24.1030195783
 OPT| Effective energy change [hartree]                            -0.0008301727
 OPT| Predicted energy change [hartree]                            -0.0010142125
 OPT| Scaling factor                                                0.0000000000
 OPT| Step size                                                     0.0497695047
 OPT| Trust radius                                                  0.4724315332
 OPT| Decrease in energy                                                     YES
 OPT| Used time [s]                                                        0.009
 OPT|
 OPT| Maximum step size                                             0.0497695047
 OPT| Convergence limit for maximum step size                       0.0030000000
 OPT| Maximum step size is converged                                          NO
 OPT|
 OPT| RMS step size                                                 0.0242425809
 OPT| Convergence limit for RMS step size                           0.0015000000
 OPT| RMS step size is converged                                              NO
 OPT|
 OPT| Maximum gradient                                              0.0064435252
 OPT| Convergence limit for maximum gradient                        0.0004500000
 OPT| Maximum gradient is converged                                           NO
 OPT|
 OPT| RMS gradient                                                  0.0027360726
 OPT| Convergence limit for RMS gradient                            0.0003000000
 OPT| RMS gradient is converged                                               NO
 OPT| **************************************************************************
 OPT| Estimated peak process memory after this step [MiB]                    166

 --------------------------
 OPTIMIZATION STEP:      2
 --------------------------

 Extrapolation method: ASPC

 Number of electrons:                                                         34
 Number of occupied orbitals:                                                 17
 Number of molecular orbitals:                                                28

 Number of orbital functions:                                                 28
 Number of independent orbital functions:                                     28


 SCF WAVEFUNCTION OPTIMIZATION

  Step     Update method      Time    Convergence         Total energy    Change
  ------------------------------------------------------------------------------
     1 TBLite/Diag 0.40E+00    0.0     0.01021162       -24.1031405100 -2.41E+01
     2 TBLite/Diag 0.40E+00    0.0     0.00221042       -24.1031489300 -8.42E-06
     3 TBLite/Diag 0.40E+00    0.0     0.00035294       -24.1031490324 -1.02E-07
     4 TBLite/Diag 0.40E+00    0.0     0.00012349       -24.1031490549 -2.25E-08
     5 TBLite/Diag 0.40E+00    0.0     0.00001775       -24.1031490557 -8.06E-10
     6 TBLite/Diag 0.40E+00    0.0     0.00000091       -24.1031490557 -1.53E-12
     7 TBLite/Diag 0.40E+00    0.0     8.2263E-09       -24.1031490557  7.11E-15
     8 TBLite/Diag 0.40E+00    0.0     1.4258E-09       -24.1031490557 -1.07E-14
     9 TBLite/Diag 0.40E+00    0.0     3.5419E-10       -24.1031490557  1.78E-14

  *** SCF run converged in     9 steps ***


  Core Hamiltonian energy:                                    -24.42684291567602
  Repulsive potential energy:                                   0.16276120219615
  Electrostatic energy:                                         0.16313460960403
  Self-consistent dispersion energy:                            0.00000000000000
  Non-self consistent dispersion energy:                       -0.00220195181806
  Correction for halogen bonding:                               0.00000000000000
  Electronic entropic energy:                                  -0.00000000000000
  Fermi energy:                                                -0.38421585833210

  Total energy:                                               -24.10314905569390
  Total energy (extrapolated to T->0):                        -24.10314905569390

 ENERGY| Total FORCE_EVAL ( QS ) energy [hartree]            -24.103149055693898

 OPT| **************************************************************************
 OPT| Step number                                                              2
 OPT| Optimization method                                                   BFGS
 OPT| Total energy [hartree]                                      -24.1031490557
 OPT| Effective energy change [hartree]                            -0.0001294774
 OPT| Predicted energy change [hartree]                            -0.0001163372
 OPT| Scaling factor                                                0.0000000000
 OPT| Step size                                                     0.0112632453
 OPT| Trust radius                                                  0.4724315332
 OPT| Decrease in energy                                                     YES
 OPT| Used time [s]                                                        0.008
 OPT|
 OPT| Maximum step size                                             0.0112632453
 OPT| Convergence limit for maximum step size                       0.0030000000
 OPT| Maximum step size is converged                                          NO
 OPT|
 OPT| RMS step size                                                 0.0057295060
 OPT| Convergence limit for RMS step size                           0.0015000000
 OPT| RMS step size is converged                                              NO
 OPT|
 OPT| Maximum gradient                                              0.0026637036
 OPT| Convergence limit for maximum gradient                        0.0004500000
 OPT| Maximum gradient is converged                                           NO
 OPT|
 OPT| RMS gradient                                                  0.0011869374
 OPT| Convergence limit for RMS gradient                            0.0003000000
 OPT| RMS gradient is converged                                               NO
 OPT| **************************************************************************
 OPT| Estimated peak process memory after this step [MiB]                    166

 --------------------------
 OPTIMIZATION STEP:      3
 --------------------------

 Extrapolation method: ASPC

 Number of electrons:                                                         34
 Number of occupied orbitals:                                                 17
 Number of molecular orbitals:                                                28

 Number of orbital functions:                                                 28
 Number of independent orbital functions:                                     28


 SCF WAVEFUNCTION OPTIMIZATION

  Step     Update method      Time    Convergence         Total energy    Change
  ------------------------------------------------------------------------------
     1 TBLite/Diag 0.40E+00    0.0     0.00455379       -24.1031733703 -2.41E+01
     2 TBLite/Diag 0.40E+00    0.0     0.00069967       -24.1031746215 -1.25E-06
     3 TBLite/Diag 0.40E+00    0.0     0.00003316       -24.1031746228 -1.28E-09
     4 TBLite/Diag 0.40E+00    0.0     0.00000848       -24.1031746230 -1.46E-10
     5 TBLite/Diag 0.40E+00    0.0     0.00000254       -24.1031746230 -1.17E-11
     6 TBLite/Diag 0.40E+00    0.0     0.00000009       -24.1031746230 -3.20E-14
     7 TBLite/Diag 0.40E+00    0.0     5.4638E-10       -24.1031746230 -1.07E-14

  *** SCF run converged in     7 steps ***


  Core Hamiltonian energy:                                    -24.42675548928803
  Repulsive potential energy:                                   0.16262454396713
  Electrostatic energy:                                         0.16315856731930
  Self-consistent dispersion energy:                            0.00000000000000
  Non-self consistent dispersion energy:                       -0.00220224497177
  Correction for halogen bonding:                               0.00000000000000
  Electronic entropic energy:                                  -0.00000000000000
  Fermi energy:                                                -0.38358090285992

  Total energy:                                               -24.10317462297337
  Total energy (extrapolated to T->0):                        -24.10317462297337

 ENERGY| Total FORCE_EVAL ( QS ) energy [hartree]            -24.103174622973373

 OPT| **************************************************************************
 OPT| Step number                                                              3
 OPT| Optimization method                                                   BFGS
 OPT| Total energy [hartree]                                      -24.1031746230
 OPT| Effective energy change [hartree]                            -0.0000255673
 OPT| Predicted energy change [hartree]                            -0.0000241870
 OPT| Scaling factor                                                0.0000000000
 OPT| Step size                                                     0.0065219432
 OPT| Trust radius                                                  0.4724315332
 OPT| Decrease in energy                                                     YES
 OPT| Used time [s]                                                        0.007
 OPT|
 OPT| Maximum step size                                             0.0065219432
 OPT| Convergence limit for maximum step size                       0.0030000000
 OPT| Maximum step size is converged                                          NO
 OPT|
 OPT| RMS step size                                                 0.0033430032
 OPT| Convergence limit for RMS step size                           0.0015000000
 OPT| RMS step size is converged                                              NO
 OPT|
 OPT| Maximum gradient                                              0.0009862662
 OPT| Convergence limit for maximum gradient                        0.0004500000
 OPT| Maximum gradient is converged                                           NO
 OPT|
 OPT| RMS gradient                                                  0.0004747422
 OPT| Convergence limit for RMS gradient                            0.0003000000
 OPT| RMS gradient is converged                                               NO
 OPT| **************************************************************************
 OPT| Estimated peak process memory after this step [MiB]                    166

 --------------------------
 OPTIMIZATION STEP:      4
 --------------------------

 Extrapolation method: ASPC

 Number of electrons:                                                         34
 Number of occupied orbitals:                                                 17
 Number of molecular orbitals:                                                28

 Number of orbital functions:                                                 28
 Number of independent orbital functions:                                     28


 SCF WAVEFUNCTION OPTIMIZATION

  Step     Update method      Time    Convergence         Total energy    Change
  ------------------------------------------------------------------------------
     1 TBLite/Diag 0.40E+00    0.0     0.00383021       -24.1031809356 -2.41E+01
     2 TBLite/Diag 0.40E+00    0.0     0.00068270       -24.1031816035 -6.68E-07
     3 TBLite/Diag 0.40E+00    0.0     0.00009758       -24.1031816201 -1.66E-08
     4 TBLite/Diag 0.40E+00    0.0     0.00002841       -24.1031816209 -7.44E-10
     5 TBLite/Diag 0.40E+00    0.0     0.00000756       -24.1031816212 -2.90E-10
     6 TBLite/Diag 0.40E+00    0.0     0.00000199       -24.1031816212 -8.42E-12
     7 TBLite/Diag 0.40E+00    0.0     1.1674E-09       -24.1031816212  3.55E-15
     8 TBLite/Diag 0.40E+00    0.0     2.2598E-10       -24.1031816212  0.00E+00

  *** SCF run converged in     8 steps ***


  Core Hamiltonian energy:                                    -24.42654082598657
  Repulsive potential energy:                                   0.16243185334384
  Electrostatic energy:                                         0.16312984564319
  Self-consistent dispersion energy:                            0.00000000000000
  Non-self consistent dispersion energy:                       -0.00220249416625
  Correction for halogen bonding:                               0.00000000000000
  Electronic entropic energy:                                  -0.00000000000000
  Fermi energy:                                                -0.38332276113875

  Total energy:                                               -24.10318162116580
  Total energy (extrapolated to T->0):                        -24.10318162116580

 ENERGY| Total FORCE_EVAL ( QS ) energy [hartree]            -24.103181621165799

 OPT| **************************************************************************
 OPT| Step number                                                              4
 OPT| Optimization method                                                   BFGS
 OPT| Total energy [hartree]                                      -24.1031816212
 OPT| Effective energy change [hartree]                            -0.0000069982
 OPT| Predicted energy change [hartree]                            -0.0000052893
 OPT| Scaling factor                                                0.0000000000
 OPT| Step size                                                     0.0037428666
 OPT| Trust radius                                                  0.4724315332
 OPT| Decrease in energy                                                     YES
 OPT| Used time [s]                                                        0.008
 OPT|
 OPT| Maximum step size                                             0.0037428666
 OPT| Convergence limit for maximum step size                       0.0030000000
 OPT| Maximum step size is converged                                          NO
 OPT|
 OPT| RMS step size                                                 0.0016335936
 OPT| Convergence limit for RMS step size                           0.0015000000
 OPT| RMS step size is converged                                              NO
 OPT|
 OPT| Maximum gradient                                              0.0002665751
 OPT| Convergence limit for maximum gradient                        0.0004500000
 OPT| Maximum gradient is converged                                          YES
 OPT|
 OPT| RMS gradient                                                  0.0001392999
 OPT| Convergence limit for RMS gradient                            0.0003000000
 OPT| RMS gradient is converged                                              YES
 OPT| **************************************************************************
 OPT| Estimated peak process memory after this step [MiB]                    166

 --------------------------
 OPTIMIZATION STEP:      5
 --------------------------

 Extrapolation method: ASPC

 Number of electrons:                                                         34
 Number of occupied orbitals:                                                 17
 Number of molecular orbitals:                                                28

 Number of orbital functions:                                                 28
 Number of independent orbital functions:                                     28


 SCF WAVEFUNCTION OPTIMIZATION

  Step     Update method      Time    Convergence         Total energy    Change
  ------------------------------------------------------------------------------
     1 TBLite/Diag 0.40E+00    0.0     0.00217430       -24.1031839558 -2.41E+01
     2 TBLite/Diag 0.40E+00    0.0     0.00018484       -24.1031840352 -7.94E-08
     3 TBLite/Diag 0.40E+00    0.0     0.00001628       -24.1031840359 -7.64E-10
     4 TBLite/Diag 0.40E+00    0.0     0.00001118       -24.1031840360 -8.82E-11
     5 TBLite/Diag 0.40E+00    0.0     0.00000394       -24.1031840361 -5.32E-11
     6 TBLite/Diag 0.40E+00    0.0     0.00000091       -24.1031840361 -2.25E-12
     7 TBLite/Diag 0.40E+00    0.0     1.8846E-10       -24.1031840361 -7.11E-15

  *** SCF run converged in     7 steps ***


  Core Hamiltonian energy:                                    -24.42641571553739
  Repulsive potential energy:                                   0.16233677647601
  Electrostatic energy:                                         0.16309768740945
  Self-consistent dispersion energy:                            0.00000000000000
  Non-self consistent dispersion energy:                       -0.00220278443298
  Correction for halogen bonding:                               0.00000000000000
  Electronic entropic energy:                                  -0.00000000000000
  Fermi energy:                                                -0.38330858134694

  Total energy:                                               -24.10318403608491
  Total energy (extrapolated to T->0):                        -24.10318403608491

 ENERGY| Total FORCE_EVAL ( QS ) energy [hartree]            -24.103184036084908

 OPT| **************************************************************************
 OPT| Step number                                                              5
 OPT| Optimization method                                                   BFGS
 OPT| Total energy [hartree]                                      -24.1031840361
 OPT| Effective energy change [hartree]                            -0.0000024149
 OPT| Predicted energy change [hartree]                            -0.0000019189
 OPT| Scaling factor                                                0.0000000000
 OPT| Step size                                                     0.0041357432
 OPT| Trust radius                                                  0.4724315332
 OPT| Decrease in energy                                                     YES
 OPT| Used time [s]                                                        0.008
 OPT|
 OPT| Maximum step size                                             0.0041357432
 OPT| Convergence limit for maximum step size                       0.0030000000
 OPT| Maximum step size is converged                                          NO
 OPT|
 OPT| RMS step size                                                 0.0016875454
 OPT| Convergence limit for RMS step size                           0.0015000000
 OPT| RMS step size is converged                                              NO
 OPT|
 OPT| Maximum gradient                                              0.0003222065
 OPT| Convergence limit for maximum gradient                        0.0004500000
 OPT| Maximum gradient is converged                                          YES
 OPT|
 OPT| RMS gradient                                                  0.0001474050
 OPT| Convergence limit for RMS gradient                            0.0003000000
 OPT| RMS gradient is converged                                              YES
 OPT| **************************************************************************
 OPT| Estimated peak process memory after this step [MiB]                    167

 --------------------------
 OPTIMIZATION STEP:      6
 --------------------------

 Extrapolation method: ASPC

 Number of electrons:                                                         34
 Number of occupied orbitals:                                                 17
 Number of molecular orbitals:                                                28

 Number of orbital functions:                                                 28
 Number of independent orbital functions:                                     28


 SCF WAVEFUNCTION OPTIMIZATION

  Step     Update method      Time    Convergence         Total energy    Change
  ------------------------------------------------------------------------------
     1 TBLite/Diag 0.40E+00    0.0     0.00172321       -24.1031847107 -2.41E+01
     2 TBLite/Diag 0.40E+00    0.0     0.00003974       -24.1031847175 -6.81E-09
     3 TBLite/Diag 0.40E+00    0.0     0.00001840       -24.1031847177 -1.88E-10
     4 TBLite/Diag 0.40E+00    0.0     0.00000744       -24.1031847178 -1.09E-10
     5 TBLite/Diag 0.40E+00    0.0     0.00000135       -24.1031847178 -2.18E-12
     6 TBLite/Diag 0.40E+00    0.0     0.00000051       -24.1031847178 -5.72E-13
     7 TBLite/Diag 0.40E+00    0.0     6.0225E-10       -24.1031847178 -7.11E-15

  *** SCF run converged in     7 steps ***


  Core Hamiltonian energy:                                    -24.42638946117066
  Repulsive potential energy:                                   0.16233522359411
  Electrostatic energy:                                         0.16307259553244
  Self-consistent dispersion energy:                            0.00000000000000
  Non-self consistent dispersion energy:                       -0.00220307579547
  Correction for halogen bonding:                               0.00000000000000
  Electronic entropic energy:                                  -0.00000000000000
  Fermi energy:                                                -0.38336892847043

  Total energy:                                               -24.10318471783959
  Total energy (extrapolated to T->0):                        -24.10318471783959

 ENERGY| Total FORCE_EVAL ( QS ) energy [hartree]            -24.103184717839586

 OPT| **************************************************************************
 OPT| Step number                                                              6
 OPT| Optimization method                                                   BFGS
 OPT| Total energy [hartree]                                      -24.1031847178
 OPT| Effective energy change [hartree]                            -0.0000006818
 OPT| Predicted energy change [hartree]                            -0.0000010590
 OPT| Scaling factor                                                0.0000000000
 OPT| Step size                                                     0.0039235604
 OPT| Trust radius                                                  0.4724315332
 OPT| Decrease in energy                                                     YES
 OPT| Used time [s]                                                        0.008
 OPT|
 OPT| Maximum step size                                             0.0039235604
 OPT| Convergence limit for maximum step size                       0.0030000000
 OPT| Maximum step size is converged                                          NO
 OPT|
 OPT| RMS step size                                                 0.0016166095
 OPT| Convergence limit for RMS step size                           0.0015000000
 OPT| RMS step size is converged                                              NO
 OPT|
 OPT| Maximum gradient                                              0.0003343254
 OPT| Convergence limit for maximum gradient                        0.0004500000
 OPT| Maximum gradient is converged                                          YES
 OPT|
 OPT| RMS gradient                                                  0.0001758852
 OPT| Convergence limit for RMS gradient                            0.0003000000
 OPT| RMS gradient is converged                                              YES
 OPT| **************************************************************************
 OPT| Estimated peak process memory after this step [MiB]                    167

 --------------------------
 OPTIMIZATION STEP:      7
 --------------------------

 Extrapolation method: ASPC

 Number of electrons:                                                         34
 Number of occupied orbitals:                                                 17
 Number of molecular orbitals:                                                28

 Number of orbital functions:                                                 28
 Number of independent orbital functions:                                     28


 SCF WAVEFUNCTION OPTIMIZATION

  Step     Update method      Time    Convergence         Total energy    Change
  ------------------------------------------------------------------------------
     1 TBLite/Diag 0.40E+00    0.0     0.00138886       -24.1031854002 -2.41E+01
     2 TBLite/Diag 0.40E+00    0.0     0.00008652       -24.1031854081 -7.87E-09
     3 TBLite/Diag 0.40E+00    0.0     0.00001430       -24.1031854085 -4.22E-10
     4 TBLite/Diag 0.40E+00    0.0     0.00000375       -24.1031854085  3.35E-12
     5 TBLite/Diag 0.40E+00    0.0     0.00000225       -24.1031854085 -1.18E-11
     6 TBLite/Diag 0.40E+00    0.0     0.00000034       -24.1031854085 -2.31E-13
     7 TBLite/Diag 0.40E+00    0.0     2.1027E-10       -24.1031854085  7.11E-15

  *** SCF run converged in     7 steps ***


  Core Hamiltonian energy:                                    -24.42643535653851
  Repulsive potential energy:                                   0.16238474831641
  Electrostatic energy:                                         0.16306840075550
  Self-consistent dispersion energy:                            0.00000000000000
  Non-self consistent dispersion energy:                       -0.00220320107038
  Correction for halogen bonding:                               0.00000000000000
  Electronic entropic energy:                                  -0.00000000000000
  Fermi energy:                                                -0.38343065955590

  Total energy:                                               -24.10318540853698
  Total energy (extrapolated to T->0):                        -24.10318540853698

 ENERGY| Total FORCE_EVAL ( QS ) energy [hartree]            -24.103185408536984

 OPT| **************************************************************************
 OPT| Step number                                                              7
 OPT| Optimization method                                                   BFGS
 OPT| Total energy [hartree]                                      -24.1031854085
 OPT| Effective energy change [hartree]                            -0.0000006907
 OPT| Predicted energy change [hartree]                            -0.0000006873
 OPT| Scaling factor                                                0.0000000000
 OPT| Step size                                                     0.0015515666
 OPT| Trust radius                                                  0.4724315332
 OPT| Decrease in energy                                                     YES
 OPT| Used time [s]                                                        0.008
 OPT|
 OPT| Maximum step size                                             0.0015515666
 OPT| Convergence limit for maximum step size                       0.0030000000
 OPT| Maximum step size is converged                                         YES
 OPT|
 OPT| RMS step size                                                 0.0007132002
 OPT| Convergence limit for RMS step size                           0.0015000000
 OPT| RMS step size is converged                                             YES
 OPT|
 OPT| Maximum gradient                                              0.0001670026
 OPT| Convergence limit for maximum gradient                        0.0004500000
 OPT| Maximum gradient is converged                                          YES
 OPT|
 OPT| RMS gradient                                                  0.0000754871
 OPT| Convergence limit for RMS gradient                            0.0003000000
 OPT| RMS gradient is converged                                              YES
 OPT| **************************************************************************
 OPT| Estimated peak process memory after this step [MiB]                    167

 *******************************************************************************
 ***                    GEOMETRY OPTIMIZATION COMPLETED                      ***
 *******************************************************************************

 write_final_structure: Optimization converged, writing XYZ file gladly:
  oxalic_acid_alpha_GFN1_mol_geoopt-FINAL-1_7.xyz

 write_final_structure: Optimization converged, writing CIF file gladly:
  oxalic_acid_alpha_GFN1_mol_geoopt-FINAL-1_7.cif

 write_final_structure: Done!

                    Reevaluating energy at the minimum

 Extrapolation method: ASPC

 Number of electrons:                                                         34
 Number of occupied orbitals:                                                 17
 Number of molecular orbitals:                                                28

 Number of orbital functions:                                                 28
 Number of independent orbital functions:                                     28


 SCF WAVEFUNCTION OPTIMIZATION

  Step     Update method      Time    Convergence         Total energy    Change
  ------------------------------------------------------------------------------
     1 TBLite/Diag 0.40E+00    0.0     2.6560E-10       -24.1031854085 -2.41E+01

  *** SCF run converged in     1 steps ***


  Core Hamiltonian energy:                                    -24.42643535633238
  Repulsive potential energy:                                   0.16238474831641
  Electrostatic energy:                                         0.16306840054938
  Self-consistent dispersion energy:                            0.00000000000000
  Non-self consistent dispersion energy:                       -0.00220320107038
  Correction for halogen bonding:                               0.00000000000000
  Electronic entropic energy:                                  -0.00000000000000
  Fermi energy:                                                -0.38343065958158

  Total energy:                                               -24.10318540853697
  Total energy (extrapolated to T->0):                        -24.10318540853697

 ENERGY| Total FORCE_EVAL ( QS ) energy [hartree]            -24.103185408536969

 -------------------------------------------------------------------------------
 -                                                                             -
 -                                DBCSR STATISTICS                             -
 -                                                                             -
 -------------------------------------------------------------------------------
 COUNTER                                    TOTAL       BLAS       SMM       ACC
 flops     2 x    28 x     2                26880       0.0%    100.0%      0.0%     
 flops     2 x     2 x    28                56448       0.0%    100.0%      0.0%     
 flops     2 x    28 x     4               161280       0.0%    100.0%      0.0%     
 flops     4 x    28 x     2               161280       0.0%    100.0%      0.0%     
 flops     2 x     4 x    28               225792       0.0%    100.0%      0.0%     
 flops     4 x     2 x    28               225792       0.0%    100.0%      0.0%     
 flops     4 x    28 x     4               967680       0.0%    100.0%      0.0%     
 flops     4 x     4 x    28              1580544       0.0%    100.0%      0.0%     
 flops inhomo. stacks                           0       0.0%      0.0%      0.0%
 flops total                         3.405696E+06       0.0%    100.0%      0.0%
 flops max/rank                      3.405696E+06       0.0%    100.0%      0.0%
 matmuls inhomo. stacks                         0       0.0%      0.0%      0.0%
 matmuls total                               4944       0.0%    100.0%      0.0%
 number of processed stacks                   456       0.0%    100.0%      0.0%
 average stack size                                     0.0      10.8       0.0
 marketing flops                     3.556224E+06
 -------------------------------------------------------------------------------
 # multiplications                            114
 max memory usage/rank              13.671129E+09
 # max total images/rank                        1
 # max 3D layers                                1
 # MPI messages exchanged                       0
 -------------------------------------------------------------------------------
 -                                                                             -
 -                      DBCSR MESSAGE PASSING PERFORMANCE                      -
 -                                                                             -
 -------------------------------------------------------------------------------
 ROUTINE             CALLS      AVE VOLUME [Bytes]
 MP_Bcast                9                     12.
 MP_Allreduce          545                      9.
 MP_Alltoall          3606                   4077.
 MP_ISend              456                    307.
 MP_IRecv              456                    307.
 -------------------------------------------------------------------------------

 -------------------------------------------------------------------------------
 -                                                                             -
 -                          OFFLOAD MEMPOOL STATISTICS                         -
 -                                                                             -
 -------------------------------------------------------------------------------
 Memory consumption                Number of allocations  Used [MiB]  Size [MiB]
 Device                                                1           0           0
 Host                                                  1           0           0
 -------------------------------------------------------------------------------

 MEMORY| Estimated peak process memory [MiB]                                 167

 -------------------------------------------------------------------------------
 -                                                                             -
 -                         MESSAGE PASSING PERFORMANCE                         -
 -                                                                             -
 -------------------------------------------------------------------------------

 ROUTINE             CALLS      AVE VOLUME [Bytes]
 MP_Group                1
 MP_Bcast              159                    119.
 MP_Allreduce         1355                     60.
 MP_Sync                85
 MP_comm_split          84
 -------------------------------------------------------------------------------


 -------------------------------------------------------------------------------
 -                                                                             -
 -                           R E F E R E N C E S                               -
 -                                                                             -
 -------------------------------------------------------------------------------
 
 CP2K version 2026.1 (Development Version), the CP2K developers group (2026).
 CP2K is freely available from https://www.cp2k.org/ .
 
 M. Iannuzzi, J. Wilhelm, F. Stein, A. Bussy, H. Elgabarty, D. Golze, A. Hehn, 
 M. Graml, S. Marek, B. Sertcan Gökmen, C. Schran, H. Forbert, R. Z. 
 Khaliullin, A. Kozhevnikov, M. Taillefumier, R. Meli, V. V. Rybkin, M. Brehm, 
 R. Schade, O. Schütt, J. V. Pototschnig, H. Mirhosseini, A. Knüpfer, D. Marx, 
 M. Krack, J. Hutter, T. D. Kühne.
 J. Phys. Chem. B 130, 1237-1310 (2026).
 The CP2K Program Package Made Simple.
 https://doi.org/10.1021/acs.jpcb.5c05851

 A. Katbashev, M. Stahn, T. Rose, V. Alizadeh, M. Friede, C. Plett, P. 
 Steinbach, S. Ehlert.
 J. Phys. Chem. A 129, 2667-2682 (2025).
 Overview on Building Blocks and Applications of Efficient and Robust Extended 
 Tight Binding.
 https://doi.org/10.1021/acs.jpca.4c08263

 T. D. Kühne, M. Iannuzzi, M. Del Ben, V. V. Rybkin, P. Seewald, F. Stein, T. 
 Laino, R. Z. Khaliullin, O. Schütt, F. Schiffmann, D. Golze, J. Wilhelm, S. 
 Chulkov, M. H. Bani-Hashemian, V. Weber, U. Borstnik, M. Taillefumier, A. S. 
 Jakobovits, A. Lazzaro, H. Pabst, T. Müller, R. Schade, M. Guidon, S. 
 Andermatt, N. Holmberg, G. K. Schenter, A. Hehn, A. Bussy, F. Belleflamme, G. 
 Tabacchi, A. Glöß, M. Lass, I. Bethune, C. J. Mundy, C. Plessl, M. Watkins, 
 J. VandeVondele, M. Krack, J. Hutter.
 J. Chem. Phys. 152, 194103 (2020).
 CP2K: An electronic structure and molecular dynamics software package - 
 Quickstep: Efficient and accurate electronic structure calculations.
 https://doi.org/10.1063/5.0007045

 P. Pracht, E. Caldeweyher, S. Ehlert, S. Grimme.
 ChemRxiv, (2019).
 A Robust Non-Self-Consistent Tight-Binding Quantum Chemistry Method for large 
 Molecules.
 https://doi.org/10.26434/chemrxiv.8326202.v1

 S. Grimme, C. Bannwarth, P. Shushkov.
 J. Chem. Theory Comput. 13, 1989 (2017).
 A Robust and Accurate Tight-Binding Quantum Chemical Method for Structures, 
 Vibrational Frequencies, and Noncovalent Interactions of Large Molecular 
 Systems Parametrized for All spd-Block Elements (Z = 1-86).
 https://doi.org/10.1021/acs.jctc.7b00118

 O. Schuett, P. Messmer, J. Hutter, J. VandeVondele.
 Electronic Structure Calculations on Graphics Processing Units, 173-190 (2016).
 GPU-Accelerated Sparse Matrix-Matrix Multiplication for Linear Scaling Density 
 Functional Theory.
 https://doi.org/10.1002/9781118670712.ch8

 A. Heinecke, G. Henry, M. Hutchinson, H. Pabst.
 Proceedings of Intl. Supercomputing Conference, 981-991 (2016).
 LIBXSMM: Accelerating Small Matrix Multiplications by Runtime Code Generation.
 https://doi.org/10.1109/SC.2016.83

 U. Borstnik, J. VandeVondele, V. Weber, J. Hutter.
 Parallel Comput. 40, 47-58 (2014).
 Sparse matrix multiplication: The distributed block-compressed sparse row 
 library.
 https://doi.org/10.1016/j.parco.2014.03.012

 T. D. Kühne, M. Krack, F. R. Mohamed, M. Parrinello.
 Phys. Rev. Lett. 98, 066401 (2007).
 Efficient and accurate Car-Parrinello-like approach to Born-Oppenheimer 
 molecular dynamics.
 https://doi.org/10.1103/PhysRevLett.98.066401

 M. Frigo, S. G. Johnson.
 Proc. IEEE 93, 216-231 (2005).
 The design and implementation of FFTW3.
 https://doi.org/10.1109/JPROC.2004.840301

 J. Kolafa.
 J. Comput. Chem. 25, 335-342 (2004).
 Time-reversible always stable predictor-corrector method for molecular dynamics 
 of polarizable molecules.
 https://doi.org/10.1002/jcc.10385

 N. D. Mermin.
 Phys. Rev. 137, A1441-A1443 (1965).
 Thermal Properties of the Inhomogeneous Electron Gas.
 https://doi.org/10.1103/PhysRev.137.A1441


 -------------------------------------------------------------------------------
 -                                                                             -
 -                                T I M I N G                                  -
 -                                                                             -
 -------------------------------------------------------------------------------
 SUBROUTINE                       CALLS  ASD         SELF TIME        TOTAL TIME
                                MAXIMUM       AVERAGE  MAXIMUM  AVERAGE  MAXIMUM
 CP2K                                 1  1.0    0.002    0.002    0.084    0.084
 cp_geo_opt                           1  2.0    0.000    0.000    0.075    0.075
 geoopt_bfgs                          1  3.0    0.001    0.001    0.075    0.075
 cp_eval_at                           9  4.0    0.000    0.000    0.071    0.071
 qs_forces                            8  5.0    0.000    0.000    0.068    0.068
 qs_energies                          9  5.9    0.000    0.000    0.062    0.062
 scf_env_do_scf                       9  6.9    0.000    0.000    0.045    0.045
 scf_env_do_scf_inner_loop           68  8.0    0.001    0.001    0.045    0.045
 qs_scf_new_mos                      68  9.0    0.000    0.000    0.039    0.039
 cp_dbcsr_plus_fm_fm_t               84 10.8    0.000    0.000    0.022    0.022
 calculate_dm_sparse                 76 10.0    0.000    0.000    0.020    0.020
 dbcsr_multiply_generic             114 11.9    0.001    0.001    0.020    0.020
 copy_dbcsr_to_fm                   166 10.5    0.000    0.000    0.011    0.011
 make_m2s                           228 12.9    0.001    0.001    0.011    0.011
 init_scf_run                         9  6.9    0.000    0.000    0.010    0.010
 dbcsr_complete_redistribute        364 12.2    0.005    0.005    0.010    0.010
 scf_env_initial_rho_setup            9  7.9    0.000    0.000    0.009    0.009
 wfi_extrapolate                      9  8.9    0.000    0.000    0.009    0.009
 eigensolver                         68 10.0    0.001    0.001    0.008    0.008
 cp_fm_syevd                         84 10.5    0.000    0.000    0.008    0.008
 rebuild_ks_matrix                   76  9.7    0.000    0.000    0.007    0.007
 build_tblite_ks_matrix              76 10.7    0.007    0.007    0.007    0.007
 qs_diis_b_step                      59 10.0    0.000    0.000    0.006    0.006
 build_tblite_matrices               17  7.0    0.006    0.006    0.006    0.006
 cp_dbcsr_sm_fm_multiply             30 10.4    0.000    0.000    0.006    0.006
 qs_init_subsys                       1  2.0    0.002    0.002    0.006    0.006
 copy_fm_to_dbcsr                   198 11.7    0.000    0.000    0.006    0.006
 qs_ks_update_qs_env_forces           8  6.0    0.000    0.000    0.005    0.005
 make_images                        228 13.9    0.001    0.001    0.005    0.005
 cp_fm_syevd_base                    84 11.5    0.005    0.005    0.005    0.005
 multiply_cannon                    114 12.9    0.002    0.002    0.004    0.004
 dbcsr_finalize                    1376 13.1    0.001    0.001    0.004    0.004
 qs_energies_init_hamiltonians        9  6.9    0.000    0.000    0.004    0.004
 cp_dbcsr_sm_fm_multiply_core        30 11.4    0.000    0.000    0.003    0.003
 dbcsr_create_new                  2611 13.3    0.002    0.002    0.003    0.003
 dbcsr_crop_matrix                  168 13.8    0.000    0.000    0.003    0.003
 dbcsr_desymmetrize_deep            166 11.5    0.001    0.001    0.003    0.003
 reorthogonalize_vectors              8  9.9    0.000    0.000    0.003    0.003
 make_basis_lowdin                    8 10.9    0.000    0.000    0.003    0.003
 qs_env_setup                         1  3.0    0.000    0.000    0.003    0.003
 qs_env_rebuild_pw_env               18  6.3    0.000    0.000    0.003    0.003
 pw_env_rebuild                       1  5.0    0.000    0.000    0.002    0.002
 dbcsr_copy_submatrix               168 14.8    0.001    0.001    0.002    0.002
 parallel_gemm_fm_gemm              186 10.5    0.000    0.000    0.002    0.002
 cp_fm_gemm                         186 11.5    0.002    0.002    0.002    0.002
 qs_ks_update_qs_env                 68  9.0    0.000    0.000    0.002    0.002
 dbcsr_merge_all                    616 14.8    0.001    0.001    0.002    0.002
 cp_fm_redistribute_start            84 11.5    0.001    0.001    0.002    0.002
 compute_matrix_w                     9  6.9    0.000    0.000    0.002    0.002
 calculate_w_matrix_1                 8  8.0    0.000    0.000    0.002    0.002
 make_images_data                   228 14.9    0.001    0.001    0.002    0.002
 write_restart                        8  4.0    0.001    0.001    0.002    0.002
 -------------------------------------------------------------------------------

 The number of warnings for this run is : 0
 
 -------------------------------------------------------------------------------
  **** **** ******  **  PROGRAM ENDED AT                 2026-05-23 22:46:19.711
 ***** ** ***  *** **   PROGRAM RAN ON                                spark-c86c
 **    ****   ******    PROGRAM RAN BY                                  kuehne88
 ***** **    ** ** **   PROGRAM PROCESS ID                               2222436
  **** **  *******  **  PROGRAM STOPPED IN /home/kuehne88/periodic-gfn2-benchmar
                                           ks/X23b/runs/molecule_geoopt/GFN1/oxa
                                           lic_acid_alpha_GFN1_mol_geoopt
