 DBCSR| CPU Multiplication driver                                           XSMM (U)
 DBCSR| Multrec recursion limit                                              512 (U)
 DBCSR| Multiplication stack size                                           1000 (D)
 DBCSR| Maximum elements for images                                    UNLIMITED (U)
 DBCSR| Multiplicative factor virtual images                                   1 (U)
 DBCSR| Use multiplication densification                                       T (D)
 DBCSR| Multiplication size stacks                                             3 (U)
 DBCSR| Use memory pool for CPU allocation                                     F (U)
 DBCSR| Number of 3D layers                                               SINGLE (U)
 DBCSR| Use MPI memory allocation                                              F (U)
 DBCSR| Use RMA algorithm                                                      F (U)
 DBCSR| Use Communication thread                                               T (U)
 DBCSR| Communication thread load                                             87 (D)
 DBCSR| MPI: My process id                                                     0
 DBCSR| MPI: Number of processes                                               1
 DBCSR| OMP: Current number of threads                                         1
 DBCSR| OMP: Max number of threads                                             1
 DBCSR| Split modifier for TAS multiplication algorithm                  1.0E+00 (U)


  **** **** ******  **  PROGRAM STARTED AT               2026-05-23 22:47:01.924
 ***** ** ***  *** **   PROGRAM STARTED ON                            spark-c86c
 **    ****   ******    PROGRAM STARTED BY                              kuehne88
 ***** **    ** ** **   PROGRAM PROCESS ID                               2266671
  **** **  *******  **  PROGRAM STARTED IN /home/kuehne88/periodic-gfn2-benchmar
                                           ks/X23b/runs/cellopt_gamma/GFN1/succi
                                           nic_acid_GFN1_gamma_cellopt

 CP2K| version string:                 CP2K version 2026.1 (Development Version)
 CP2K| source code revision number:                                   0622d442e4
 CP2K| cp2kflags: omp fftw3 libxc parallel scalapack mpi_f08 xsmm spglib libdftd
 CP2K|            4 dftd4_v3 mctc-lib tblite
 CP2K| is freely available from                            https://www.cp2k.org/
 CP2K| Program compiled at                                   2026-05-23 22:05:08
 CP2K| Program compiled on                                            spark-c86c
 CP2K| Program compiled for                                              aarch64
 CP2K| Data directory path    /home/kuehne88/cp2k-master-tblite-20260523/install
 CP2K| Input file name                      succinic_acid_GFN1_gamma_cellopt.inp

 GLOBAL| Force Environment number                                              1
 GLOBAL| Basis set file name                                           BASIS_SET
 GLOBAL| Potential file name                                           POTENTIAL
 GLOBAL| MM Potential file name                                     MM_POTENTIAL
 GLOBAL| Coordinate file name                                      __STD_INPUT__
 GLOBAL| Method name                                                        CP2K
 GLOBAL| Project name                          succinic_acid_GFN1_gamma_cell_opt
 GLOBAL| Run type                                                       CELL_OPT
 GLOBAL| FFT library                                                       FFTW3
 GLOBAL| Diagonalization library                                       ScaLAPACK
 GLOBAL| Cholesky decomposition library                                ScaLAPACK
 GLOBAL| DGEMM library                                                      BLAS
 GLOBAL| Direct generalized diagonalization requested                          F
 GLOBAL| Orthonormality check for eigenvectors                          DISABLED
 GLOBAL| Matrix multiplication library                                 ScaLAPACK
 GLOBAL| All-to-all communication in single precision                          F
 GLOBAL| FFTs using library dependent lengths                                  F
 GLOBAL| Grid backend                                                       AUTO
 GLOBAL| Global print level                                                  LOW
 GLOBAL| MPI I/O enabled                                                       T
 GLOBAL| Total number of message passing processes                             1
 GLOBAL| Number of distributed systems (nodes)                                 1
 GLOBAL| Number of threads for this process                                    1
 GLOBAL| This output is from process                                           0
 GLOBAL| OpenMP stack size per thread (OMP_STACKSIZE)                    default
 GLOBAL| CPU model name                                                  UNKNOWN
 GLOBAL| CPUID                                                              2200
 GLOBAL| Compiled for CPUID                                                 2000

 *** HINT in environment.F:970 :: The compiler target flags (arm_arch64)   ***
 *** used to build this binary cannot exploit all extensions of this CPU   ***
 *** model (arm_sve256). Consider compiler target flags as part of FCFLAGS ***
 *** and CFLAGS (ARCH file).                                               ***


 MEMORY| system memory details [Kb]
 MEMORY|                        rank 0           min           max       average
 MEMORY| MemTotal            125508532     125508532     125508532     125508532
 MEMORY| MemFree             103590716     103590716     103590716     103590716
 MEMORY| Buffers                867616        867616        867616        867616
 MEMORY| Cached               14020648      14020648      14020648      14020648
 MEMORY| Slab                  1592380       1592380       1592380       1592380
 MEMORY| SReclaimable           914132        914132        914132        914132
 MEMORY| MemLikelyFree       119393112     119393112     119393112     119393112


 GENERATE|  Preliminary Number of Bonds generated:                             0
 GENERATE|  Achieved consistency in connectivity generation.


                  #####   #####        #     #   #     #       #          
                 #     # #     #      #    ##### #     #   # #####  ####  
                 #     # #           #       #   ###   #       #   #    # 
                 #     #  #####     #        #   #  #  #   #   #   ###### 
                 #   # #       #   #         #   #   # #   #   #   #      
                 #    #  #     #  #          #   #  #  # # #   #    #   # 
                  #### #  #####  #           #   ###   ##  #   #     ###  

                                   GFN1-xTB  
                                 Version 0.0                       
                            Johann V. Pototschnig                  



 TOTAL NUMBERS AND MAXIMUM NUMBERS

  Total number of            - Atomic kinds:                                   3
                             - Atoms:                                         28
                             - Shell sets:                                    56
                             - Shells:                                        56
                             - Primitive Cartesian functions:                324
                             - Cartesian basis functions:                     88
                             - Spherical basis functions:                     88

  Maximum angular momentum of the orbital basis functions:                     1


 SCF PARAMETERS         Density guess:                                     MOPAC
                        --------------------------------------------------------
                        max_scf:                                             300
                        max_scf_history:                                       0
                        max_diis:                                              4
                        --------------------------------------------------------
                        eps_scf:                                        1.00E-09
                        eps_scf_history:                                0.00E+00
                        eps_diis:                                       1.00E-01
                        eps_eigval:                                     1.00E-05
                        --------------------------------------------------------
                        level_shift [a.u.]:                             0.000000
                        added MOs                                        42    0
                        --------------------------------------------------------
                        Mixing method:                           DIRECT_P_MIXING
                        --------------------------------------------------------
                        Smear method:                                FERMI_DIRAC
                        Electronic temperature [K]:                        300.0
                        Electronic temperature [a.u.]:                  9.50E-04
                        Accuracy threshold:                             1.00E-06
                        --------------------------------------------------------
                        No outer SCF

 CELL_OPT| Pressure tolerance [bar]:                                       100.0
 CELL_OPT| Keep volume of cell:                                               NO
 CELL_OPT| Keep angles between the cell vectors:                              NO
 CELL_OPT| Keep cell symmetry:                                                NO
 CELL_OPT| Constraint:                                                      NONE

 BFGS| Use rational function optimization for step estimation:                NO
 BFGS| Use model Hessian for initial guess:                                   NO
 BFGS| Restart Hessian:                                                       NO
 BFGS| Trust radius:                                                       0.472

 *******************************************************************************
 ***                     STARTING   CELL   OPTIMIZATION                      ***
 ***                                   BFGS                                  ***
 *******************************************************************************

 CELL| Volume [angstrom^3]:                                           239.283683
 CELL| Vector a [angstrom]:       5.464     0.000     0.000   |a| =     5.464000
 CELL| Vector b [angstrom]:       0.000     8.766     0.000   |b| =     8.766000
 CELL| Vector c [angstrom]:      -0.287     0.000     4.996   |c| =     5.004000
 CELL| Angle (b,c), alpha [degree]:                                    90.000000
 CELL| Angle (a,c), beta  [degree]:                                    93.290000
 CELL| Angle (a,b), gamma [degree]:                                    90.000000
 CELL| Numerically orthorhombic:                                              NO
 CELL| Periodicity                                                           XYZ

 Extrapolation method: initial_guess

 Number of electrons:                                                         92
 Number of occupied orbitals:                                                 46
 Number of molecular orbitals:                                                88

 Number of orbital functions:                                                 88
 Number of independent orbital functions:                                     88


 SCF WAVEFUNCTION OPTIMIZATION

  Step     Update method      Time    Convergence         Total energy    Change
  ------------------------------------------------------------------------------
     1 TBLite/Diag 0.40E+00    0.0     1.57778486       -59.8780795380 -5.99E+01
     2 TBLite/Diag 0.40E+00    0.0     0.25698636       -61.1438919302 -1.27E+00
     3 TBLite/Diag 0.40E+00    0.0     0.04101447       -61.1598517461 -1.60E-02
     4 TBLite/Diag 0.40E+00    0.0     0.02615371       -61.1607905181 -9.39E-04
     5 TBLite/Diag 0.40E+00    0.0     0.01702298       -61.1622851717 -1.49E-03
     6 TBLite/Diag 0.40E+00    0.0     0.00794134       -61.1626197857 -3.35E-04
     7 TBLite/Diag 0.40E+00    0.0     0.00265200       -61.1627125979 -9.28E-05
     8 TBLite/Diag 0.40E+00    0.0     0.00010552       -61.1627124712  1.27E-07
     9 TBLite/Diag 0.40E+00    0.0     0.00011984       -61.1627126489 -1.78E-07
    10 TBLite/Diag 0.40E+00    0.0     0.00001210       -61.1627126489 -7.72E-12
    11 TBLite/Diag 0.40E+00    0.0     0.00000416       -61.1627126494 -4.67E-10
    12 TBLite/Diag 0.40E+00    0.0     0.00000180       -61.1627126494 -4.85E-11
    13 TBLite/Diag 0.40E+00    0.0     0.00000006       -61.1627126494 -1.42E-13
    14 TBLite/Diag 0.40E+00    0.0     2.2651E-10       -61.1627126494  7.11E-14

  *** SCF run converged in    14 steps ***


  Core Hamiltonian energy:                                    -61.91649121932758
  Repulsive potential energy:                                   0.46366514846002
  Electrostatic energy:                                         0.33876587920698
  Self-consistent dispersion energy:                            0.00000000000000
  Non-self consistent dispersion energy:                       -0.04865245775544
  Correction for halogen bonding:                               0.00000000000000
  Electronic entropic energy:                                  -0.00000000000000
  Fermi energy:                                                -0.30280203430098

  Total energy:                                               -61.16271264941602
  Total energy (extrapolated to T->0):                        -61.16271264941602

 ENERGY| Total FORCE_EVAL ( QS ) energy [hartree]            -61.162712649416015

 OPT| **************************************************************************
 OPT| Step number                                                              0
 OPT| Optimization method                                                   BFGS
 OPT| Total energy [hartree]                                      -61.1627126494
 OPT| Internal pressure [bar]                                  -40950.6795592441
 OPT| Used time [s]                                                        0.346
 OPT| **************************************************************************
 OPT| Estimated peak process memory [MiB]                                    167

 --------------------------
 OPTIMIZATION STEP:      1
 --------------------------

 CELL| Volume [angstrom^3]:                                           237.987462
 CELL| Vector a [angstrom]:       5.455     0.000     0.000   |a| =     5.454820
 CELL| Vector b [angstrom]:       0.000     8.758     0.000   |b| =     8.758360
 CELL| Vector c [angstrom]:      -0.287     0.000     4.981   |c| =     4.989675
 CELL| Angle (b,c), alpha [degree]:                                    90.000000
 CELL| Angle (a,c), beta  [degree]:                                    93.301535
 CELL| Angle (a,b), gamma [degree]:                                    90.000000
 CELL| Numerically orthorhombic:                                              NO
 CELL| Periodicity                                                           XYZ

 Extrapolation method: ASPC

 Number of electrons:                                                         92
 Number of occupied orbitals:                                                 46
 Number of molecular orbitals:                                                88

 Number of orbital functions:                                                 88
 Number of independent orbital functions:                                     88


 SCF WAVEFUNCTION OPTIMIZATION

  Step     Update method      Time    Convergence         Total energy    Change
  ------------------------------------------------------------------------------
     1 TBLite/Diag 0.40E+00    0.0     0.01940975       -61.1645822840 -6.12E+01
     2 TBLite/Diag 0.40E+00    0.0     0.00366813       -61.1646873437 -1.05E-04
     3 TBLite/Diag 0.40E+00    0.0     0.00074310       -61.1646938151 -6.47E-06
     4 TBLite/Diag 0.40E+00    0.0     0.00025727       -61.1646941489 -3.34E-07
     5 TBLite/Diag 0.40E+00    0.0     0.00008399       -61.1646942253 -7.64E-08
     6 TBLite/Diag 0.40E+00    0.0     0.00002679       -61.1646942323 -6.98E-09
     7 TBLite/Diag 0.40E+00    0.0     0.00000752       -61.1646942325 -2.22E-10
     8 TBLite/Diag 0.40E+00    0.0     0.00000064       -61.1646942325 -2.03E-12
     9 TBLite/Diag 0.40E+00    0.0     0.00000001       -61.1646942325  2.84E-14
    10 TBLite/Diag 0.40E+00    0.0     5.1226E-09       -61.1646942325  0.00E+00
    11 TBLite/Diag 0.40E+00    0.0     1.8695E-10       -61.1646942325  4.97E-14

  *** SCF run converged in    11 steps ***


  Core Hamiltonian energy:                                    -61.93711367624010
  Repulsive potential energy:                                   0.48638406125959
  Electrostatic energy:                                         0.33495284478815
  Self-consistent dispersion energy:                            0.00000000000000
  Non-self consistent dispersion energy:                       -0.04891746234149
  Correction for halogen bonding:                               0.00000000000000
  Electronic entropic energy:                                  -0.00000000000000
  Fermi energy:                                                -0.29676243020212

  Total energy:                                               -61.16469423253385
  Total energy (extrapolated to T->0):                        -61.16469423253385

 ENERGY| Total FORCE_EVAL ( QS ) energy [hartree]            -61.164694232533847

 OPT| **************************************************************************
 OPT| Step number                                                              1
 OPT| Optimization method                                                   BFGS
 OPT| Total energy [hartree]                                      -61.1646942325
 OPT| Internal pressure [bar]                                  -19525.9237135296
 OPT| Effective energy change [hartree]                            -0.0019815831
 OPT| Predicted energy change [hartree]                            -0.0017715457
 OPT| Scaling factor                                                0.0000000000
 OPT| Step size                                                     0.0271341083
 OPT| Trust radius                                                  0.4724315332
 OPT| Decrease in energy                                                     YES
 OPT| Used time [s]                                                        0.343
 OPT|
 OPT| Maximum step size                                             0.0271341083
 OPT| Convergence limit for maximum step size                       0.0030000000
 OPT| Maximum step size is converged                                          NO
 OPT|
 OPT| RMS step size                                                 0.0062743671
 OPT| Convergence limit for RMS step size                           0.0015000000
 OPT| RMS step size is converged                                              NO
 OPT|
 OPT| Maximum gradient                                              0.0174739737
 OPT| Convergence limit for maximum gradient                        0.0004500000
 OPT| Maximum gradient is converged                                           NO
 OPT|
 OPT| RMS gradient                                                  0.0033084990
 OPT| Convergence limit for RMS gradient                            0.0003000000
 OPT| RMS gradient is converged                                               NO
 OPT|
 OPT| Pressure deviation [bar]                                 -19525.9237135296
 OPT| Pressure tolerance [bar]                                    100.0000000000
 OPT| Pressure is converged                                                   NO
 OPT| **************************************************************************
 OPT| Estimated peak process memory after this step [MiB]                    168

 --------------------------
 OPTIMIZATION STEP:      2
 --------------------------

 CELL| Volume [angstrom^3]:                                           236.743876
 CELL| Vector a [angstrom]:       5.446     0.000     0.000   |a| =     5.445553
 CELL| Vector b [angstrom]:      -0.000     8.754     0.000   |b| =     8.754092
 CELL| Vector c [angstrom]:      -0.287    -0.000     4.966   |c| =     4.974526
 CELL| Angle (b,c), alpha [degree]:                                    90.000000
 CELL| Angle (a,c), beta  [degree]:                                    93.312046
 CELL| Angle (a,b), gamma [degree]:                                    90.000000
 CELL| Numerically orthorhombic:                                              NO
 CELL| Periodicity                                                           XYZ

 Extrapolation method: ASPC

 Number of electrons:                                                         92
 Number of occupied orbitals:                                                 46
 Number of molecular orbitals:                                                88

 Number of orbital functions:                                                 88
 Number of independent orbital functions:                                     88


 SCF WAVEFUNCTION OPTIMIZATION

  Step     Update method      Time    Convergence         Total energy    Change
  ------------------------------------------------------------------------------
     1 TBLite/Diag 0.40E+00    0.0     0.01132232       -61.1655462686 -6.12E+01
     2 TBLite/Diag 0.40E+00    0.0     0.00322360       -61.1656197007 -7.34E-05
     3 TBLite/Diag 0.40E+00    0.0     0.00051502       -61.1656227038 -3.00E-06
     4 TBLite/Diag 0.40E+00    0.0     0.00010652       -61.1656227647 -6.09E-08
     5 TBLite/Diag 0.40E+00    0.0     0.00004450       -61.1656227979 -3.32E-08
     6 TBLite/Diag 0.40E+00    0.0     0.00001250       -61.1656227990 -1.08E-09
     7 TBLite/Diag 0.40E+00    0.0     0.00000128       -61.1656227990 -1.26E-11
     8 TBLite/Diag 0.40E+00    0.0     0.00000029       -61.1656227990 -5.83E-13
     9 TBLite/Diag 0.40E+00    0.0     8.7436E-09       -61.1656227990  4.26E-14
    10 TBLite/Diag 0.40E+00    0.0     4.2640E-09       -61.1656227990 -2.84E-14
    11 TBLite/Diag 0.40E+00    0.0     4.6731E-11       -61.1656227990 -1.42E-14

  *** SCF run converged in    11 steps ***


  Core Hamiltonian energy:                                    -61.94382460674169
  Repulsive potential energy:                                   0.49190306194306
  Electrostatic energy:                                         0.33547580732064
  Self-consistent dispersion energy:                            0.00000000000000
  Non-self consistent dispersion energy:                       -0.04917706150421
  Correction for halogen bonding:                               0.00000000000000
  Electronic entropic energy:                                  -0.00000000000000
  Fermi energy:                                                -0.29574826754938

  Total energy:                                               -61.16562279898220
  Total energy (extrapolated to T->0):                        -61.16562279898220

 ENERGY| Total FORCE_EVAL ( QS ) energy [hartree]            -61.165622798982199

 OPT| **************************************************************************
 OPT| Step number                                                              2
 OPT| Optimization method                                                   BFGS
 OPT| Total energy [hartree]                                      -61.1656227990
 OPT| Internal pressure [bar]                                  -12119.8500003359
 OPT| Effective energy change [hartree]                            -0.0009285664
 OPT| Predicted energy change [hartree]                            -0.0006165220
 OPT| Scaling factor                                                0.0000000000
 OPT| Step size                                                     0.0286807519
 OPT| Trust radius                                                  0.4724315332
 OPT| Decrease in energy                                                     YES
 OPT| Used time [s]                                                        0.345
 OPT|
 OPT| Maximum step size                                             0.0286807519
 OPT| Convergence limit for maximum step size                       0.0030000000
 OPT| Maximum step size is converged                                          NO
 OPT|
 OPT| RMS step size                                                 0.0046235366
 OPT| Convergence limit for RMS step size                           0.0015000000
 OPT| RMS step size is converged                                              NO
 OPT|
 OPT| Maximum gradient                                              0.0144560406
 OPT| Convergence limit for maximum gradient                        0.0004500000
 OPT| Maximum gradient is converged                                           NO
 OPT|
 OPT| RMS gradient                                                  0.0027063649
 OPT| Convergence limit for RMS gradient                            0.0003000000
 OPT| RMS gradient is converged                                               NO
 OPT|
 OPT| Pressure deviation [bar]                                 -12119.8500003359
 OPT| Pressure tolerance [bar]                                    100.0000000000
 OPT| Pressure is converged                                                   NO
 OPT| **************************************************************************
 OPT| Estimated peak process memory after this step [MiB]                    168

 --------------------------
 OPTIMIZATION STEP:      3
 --------------------------

 CELL| Volume [angstrom^3]:                                           233.942110
 CELL| Vector a [angstrom]:       5.427     0.000     0.000   |a| =     5.426565
 CELL| Vector b [angstrom]:      -0.000     8.746     0.000   |b| =     8.746138
 CELL| Vector c [angstrom]:      -0.289     0.000     4.929   |c| =     4.937555
 CELL| Angle (b,c), alpha [degree]:                                    90.000000
 CELL| Angle (a,c), beta  [degree]:                                    93.354897
 CELL| Angle (a,b), gamma [degree]:                                    90.000000
 CELL| Numerically orthorhombic:                                              NO
 CELL| Periodicity                                                           XYZ

 Extrapolation method: ASPC

 Number of electrons:                                                         92
 Number of occupied orbitals:                                                 46
 Number of molecular orbitals:                                                88

 Number of orbital functions:                                                 88
 Number of independent orbital functions:                                     88


 SCF WAVEFUNCTION OPTIMIZATION

  Step     Update method      Time    Convergence         Total energy    Change
  ------------------------------------------------------------------------------
     1 TBLite/Diag 0.40E+00    0.0     0.01033850       -61.1670983818 -6.12E+01
     2 TBLite/Diag 0.40E+00    0.0     0.00278700       -61.1671453760 -4.70E-05
     3 TBLite/Diag 0.40E+00    0.0     0.00054512       -61.1671484938 -3.12E-06
     4 TBLite/Diag 0.40E+00    0.0     0.00014484       -61.1671486475 -1.54E-07
     5 TBLite/Diag 0.40E+00    0.0     0.00002914       -61.1671486616 -1.41E-08
     6 TBLite/Diag 0.40E+00    0.0     0.00001505       -61.1671486631 -1.43E-09
     7 TBLite/Diag 0.40E+00    0.0     0.00000142       -61.1671486631 -9.31E-12
     8 TBLite/Diag 0.40E+00    0.0     0.00000014       -61.1671486631 -9.24E-14
     9 TBLite/Diag 0.40E+00    0.0     0.00000002       -61.1671486631  0.00E+00
    10 TBLite/Diag 0.40E+00    0.0     5.3214E-09       -61.1671486631  4.97E-14
    11 TBLite/Diag 0.40E+00    0.0     4.5252E-11       -61.1671486631  2.13E-14

  *** SCF run converged in    11 steps ***


  Core Hamiltonian energy:                                    -61.95279322963903
  Repulsive potential energy:                                   0.49947547121128
  Electrostatic energy:                                         0.33594314686229
  Self-consistent dispersion energy:                            0.00000000000000
  Non-self consistent dispersion energy:                       -0.04977405151014
  Correction for halogen bonding:                               0.00000000000000
  Electronic entropic energy:                                  -0.00000000000000
  Fermi energy:                                                -0.29495317436567

  Total energy:                                               -61.16714866307560
  Total energy (extrapolated to T->0):                        -61.16714866307560

 ENERGY| Total FORCE_EVAL ( QS ) energy [hartree]            -61.167148663075601

 OPT| **************************************************************************
 OPT| Step number                                                              3
 OPT| Optimization method                                                   BFGS
 OPT| Total energy [hartree]                                      -61.1671486631
 OPT| Internal pressure [bar]                                      26.8330434583
 OPT| Effective energy change [hartree]                            -0.0015258641
 OPT| Predicted energy change [hartree]                            -0.0009973947
 OPT| Scaling factor                                                0.0000000000
 OPT| Step size                                                     0.0701530193
 OPT| Trust radius                                                  0.4724315332
 OPT| Decrease in energy                                                     YES
 OPT| Used time [s]                                                        0.349
 OPT|
 OPT| Maximum step size                                             0.0701530193
 OPT| Convergence limit for maximum step size                       0.0030000000
 OPT| Maximum step size is converged                                          NO
 OPT|
 OPT| RMS step size                                                 0.0102038341
 OPT| Convergence limit for RMS step size                           0.0015000000
 OPT| RMS step size is converged                                              NO
 OPT|
 OPT| Maximum gradient                                              0.0074837362
 OPT| Convergence limit for maximum gradient                        0.0004500000
 OPT| Maximum gradient is converged                                           NO
 OPT|
 OPT| RMS gradient                                                  0.0034325077
 OPT| Convergence limit for RMS gradient                            0.0003000000
 OPT| RMS gradient is converged                                               NO
 OPT|
 OPT| Pressure deviation [bar]                                     26.8330434583
 OPT| Pressure tolerance [bar]                                    100.0000000000
 OPT| Pressure is converged                                                  YES
 OPT| **************************************************************************
 OPT| Estimated peak process memory after this step [MiB]                    169

 --------------------------
 OPTIMIZATION STEP:      4
 --------------------------

 CELL| Volume [angstrom^3]:                                           229.182542
 CELL| Vector a [angstrom]:       5.396     0.000     0.000   |a| =     5.395978
 CELL| Vector b [angstrom]:      -0.000     8.734     0.000   |b| =     8.734203
 CELL| Vector c [angstrom]:      -0.296    -0.000     4.863   |c| =     4.871807
 CELL| Angle (b,c), alpha [degree]:                                    90.000000
 CELL| Angle (a,c), beta  [degree]:                                    93.480899
 CELL| Angle (a,b), gamma [degree]:                                    90.000000
 CELL| Numerically orthorhombic:                                              NO
 CELL| Periodicity                                                           XYZ

 Extrapolation method: ASPC

 Number of electrons:                                                         92
 Number of occupied orbitals:                                                 46
 Number of molecular orbitals:                                                88

 Number of orbital functions:                                                 88
 Number of independent orbital functions:                                     88


 SCF WAVEFUNCTION OPTIMIZATION

  Step     Update method      Time    Convergence         Total energy    Change
  ------------------------------------------------------------------------------
     1 TBLite/Diag 0.40E+00    0.0     0.02274298       -61.1691530581 -6.12E+01
     2 TBLite/Diag 0.40E+00    0.0     0.00134860       -61.1691657482 -1.27E-05
     3 TBLite/Diag 0.40E+00    0.0     0.00038534       -61.1691669609 -1.21E-06
     4 TBLite/Diag 0.40E+00    0.0     0.00015710       -61.1691671867 -2.26E-07
     5 TBLite/Diag 0.40E+00    0.0     0.00002043       -61.1691671938 -7.02E-09
     6 TBLite/Diag 0.40E+00    0.0     0.00000804       -61.1691671941 -2.88E-10
     7 TBLite/Diag 0.40E+00    0.0     0.00000097       -61.1691671941 -1.17E-11
     8 TBLite/Diag 0.40E+00    0.0     0.00000061       -61.1691671941 -1.22E-12
     9 TBLite/Diag 0.40E+00    0.0     0.00000003       -61.1691671941 -1.92E-13
    10 TBLite/Diag 0.40E+00    0.0     5.2654E-10       -61.1691671941  1.07E-13

  *** SCF run converged in    10 steps ***


  Core Hamiltonian energy:                                    -61.95841431749446
  Repulsive potential energy:                                   0.50385384224424
  Electrostatic energy:                                         0.33621496639323
  Self-consistent dispersion energy:                            0.00000000000000
  Non-self consistent dispersion energy:                       -0.05082168521244
  Correction for halogen bonding:                               0.00000000000000
  Electronic entropic energy:                                  -0.00000000000000
  Fermi energy:                                                -0.29516742949648

  Total energy:                                               -61.16916719406943
  Total energy (extrapolated to T->0):                        -61.16916719406943

 ENERGY| Total FORCE_EVAL ( QS ) energy [hartree]            -61.169167194069431

 OPT| **************************************************************************
 OPT| Step number                                                              4
 OPT| Optimization method                                                   BFGS
 OPT| Total energy [hartree]                                      -61.1691671941
 OPT| Internal pressure [bar]                                   14311.5743882992
 OPT| Effective energy change [hartree]                            -0.0020185310
 OPT| Predicted energy change [hartree]                            -0.0015177630
 OPT| Scaling factor                                                0.0000000000
 OPT| Step size                                                     0.1252412401
 OPT| Trust radius                                                  0.4724315332
 OPT| Decrease in energy                                                     YES
 OPT| Used time [s]                                                        0.350
 OPT|
 OPT| Maximum step size                                             0.1252412401
 OPT| Convergence limit for maximum step size                       0.0030000000
 OPT| Maximum step size is converged                                          NO
 OPT|
 OPT| RMS step size                                                 0.0190778240
 OPT| Convergence limit for RMS step size                           0.0015000000
 OPT| RMS step size is converged                                              NO
 OPT|
 OPT| Maximum gradient                                              0.0104197075
 OPT| Convergence limit for maximum gradient                        0.0004500000
 OPT| Maximum gradient is converged                                           NO
 OPT|
 OPT| RMS gradient                                                  0.0041612326
 OPT| Convergence limit for RMS gradient                            0.0003000000
 OPT| RMS gradient is converged                                               NO
 OPT|
 OPT| Pressure deviation [bar]                                  14311.5743882992
 OPT| Pressure tolerance [bar]                                    100.0000000000
 OPT| Pressure is converged                                                   NO
 OPT| **************************************************************************
 OPT| Estimated peak process memory after this step [MiB]                    169

 --------------------------
 OPTIMIZATION STEP:      5
 --------------------------

 CELL| Volume [angstrom^3]:                                           225.835349
 CELL| Vector a [angstrom]:       5.376     0.000     0.000   |a| =     5.375991
 CELL| Vector b [angstrom]:      -0.000     8.727     0.000   |b| =     8.726734
 CELL| Vector c [angstrom]:      -0.308     0.000     4.814   |c| =     4.823551
 CELL| Angle (b,c), alpha [degree]:                                    90.000000
 CELL| Angle (a,c), beta  [degree]:                                    93.656959
 CELL| Angle (a,b), gamma [degree]:                                    90.000000
 CELL| Numerically orthorhombic:                                              NO
 CELL| Periodicity                                                           XYZ

 Extrapolation method: ASPC

 Number of electrons:                                                         92
 Number of occupied orbitals:                                                 46
 Number of molecular orbitals:                                                88

 Number of orbital functions:                                                 88
 Number of independent orbital functions:                                     88


 SCF WAVEFUNCTION OPTIMIZATION

  Step     Update method      Time    Convergence         Total energy    Change
  ------------------------------------------------------------------------------
     1 TBLite/Diag 0.40E+00    0.0     0.02230162       -61.1706446497 -6.12E+01
     2 TBLite/Diag 0.40E+00    0.0     0.00145771       -61.1706666061 -2.20E-05
     3 TBLite/Diag 0.40E+00    0.0     0.00025529       -61.1706672787 -6.73E-07
     4 TBLite/Diag 0.40E+00    0.0     0.00007686       -61.1706673008 -2.21E-08
     5 TBLite/Diag 0.40E+00    0.0     0.00003444       -61.1706673141 -1.33E-08
     6 TBLite/Diag 0.40E+00    0.0     0.00000605       -61.1706673147 -6.53E-10
     7 TBLite/Diag 0.40E+00    0.0     0.00000274       -61.1706673148 -2.87E-11
     8 TBLite/Diag 0.40E+00    0.0     0.00000020       -61.1706673148 -1.21E-13
     9 TBLite/Diag 0.40E+00    0.0     2.7916E-09       -61.1706673148  5.68E-14
    10 TBLite/Diag 0.40E+00    0.0     2.2337E-09       -61.1706673148 -7.11E-15
    11 TBLite/Diag 0.40E+00    0.0     3.2642E-11       -61.1706673148 -2.13E-14

  *** SCF run converged in    11 steps ***


  Core Hamiltonian energy:                                    -61.95283450676725
  Repulsive potential energy:                                   0.49787318752554
  Electrostatic energy:                                         0.33587914722213
  Self-consistent dispersion energy:                            0.00000000000000
  Non-self consistent dispersion energy:                       -0.05158514274401
  Correction for halogen bonding:                               0.00000000000000
  Electronic entropic energy:                                  -0.00000000000000
  Fermi energy:                                                -0.29654525558100

  Total energy:                                               -61.17066731476360
  Total energy (extrapolated to T->0):                        -61.17066731476360

 ENERGY| Total FORCE_EVAL ( QS ) energy [hartree]            -61.170667314763598

 OPT| **************************************************************************
 OPT| Step number                                                              5
 OPT| Optimization method                                                   BFGS
 OPT| Total energy [hartree]                                      -61.1706673148
 OPT| Internal pressure [bar]                                   16223.9000953251
 OPT| Effective energy change [hartree]                            -0.0015001207
 OPT| Predicted energy change [hartree]                            -0.0010918087
 OPT| Scaling factor                                                0.0000000000
 OPT| Step size                                                     0.0927650393
 OPT| Trust radius                                                  0.4724315332
 OPT| Decrease in energy                                                     YES
 OPT| Used time [s]                                                        0.359
 OPT|
 OPT| Maximum step size                                             0.0927650393
 OPT| Convergence limit for maximum step size                       0.0030000000
 OPT| Maximum step size is converged                                          NO
 OPT|
 OPT| RMS step size                                                 0.0162680985
 OPT| Convergence limit for RMS step size                           0.0015000000
 OPT| RMS step size is converged                                              NO
 OPT|
 OPT| Maximum gradient                                              0.0128952104
 OPT| Convergence limit for maximum gradient                        0.0004500000
 OPT| Maximum gradient is converged                                           NO
 OPT|
 OPT| RMS gradient                                                  0.0034943288
 OPT| Convergence limit for RMS gradient                            0.0003000000
 OPT| RMS gradient is converged                                               NO
 OPT|
 OPT| Pressure deviation [bar]                                  16223.9000953251
 OPT| Pressure tolerance [bar]                                    100.0000000000
 OPT| Pressure is converged                                                   NO
 OPT| **************************************************************************
 OPT| Estimated peak process memory after this step [MiB]                    169

 --------------------------
 OPTIMIZATION STEP:      6
 --------------------------

 CELL| Volume [angstrom^3]:                                           223.236584
 CELL| Vector a [angstrom]:       5.362     0.000     0.000   |a| =     5.362296
 CELL| Vector b [angstrom]:      -0.000     8.721     0.000   |b| =     8.721111
 CELL| Vector c [angstrom]:      -0.328     0.000     4.774   |c| =     4.784831
 CELL| Angle (b,c), alpha [degree]:                                    90.000000
 CELL| Angle (a,c), beta  [degree]:                                    93.932701
 CELL| Angle (a,b), gamma [degree]:                                    90.000000
 CELL| Numerically orthorhombic:                                              NO
 CELL| Periodicity                                                           XYZ

 Extrapolation method: ASPC

 Number of electrons:                                                         92
 Number of occupied orbitals:                                                 46
 Number of molecular orbitals:                                                88

 Number of orbital functions:                                                 88
 Number of independent orbital functions:                                     88


 SCF WAVEFUNCTION OPTIMIZATION

  Step     Update method      Time    Convergence         Total energy    Change
  ------------------------------------------------------------------------------
     1 TBLite/Diag 0.40E+00    0.0     0.02367522       -61.1719849476 -6.12E+01
     2 TBLite/Diag 0.40E+00    0.0     0.00278221       -61.1720415695 -5.66E-05
     3 TBLite/Diag 0.40E+00    0.0     0.00043436       -61.1720435478 -1.98E-06
     4 TBLite/Diag 0.40E+00    0.0     0.00010781       -61.1720435488 -1.07E-09
     5 TBLite/Diag 0.40E+00    0.0     0.00005345       -61.1720435858 -3.69E-08
     6 TBLite/Diag 0.40E+00    0.0     0.00000723       -61.1720435859 -1.47E-10
     7 TBLite/Diag 0.40E+00    0.0     0.00000134       -61.1720435859 -6.77E-12
     8 TBLite/Diag 0.40E+00    0.0     0.00000003       -61.1720435859 -2.13E-14
     9 TBLite/Diag 0.40E+00    0.0     8.3838E-09       -61.1720435859 -2.13E-14
    10 TBLite/Diag 0.40E+00    0.0     2.2112E-10       -61.1720435859  7.11E-15

  *** SCF run converged in    10 steps ***


  Core Hamiltonian energy:                                    -61.93945218500957
  Repulsive potential energy:                                   0.48464163095692
  Electrostatic energy:                                         0.33496190468837
  Self-consistent dispersion energy:                            0.00000000000000
  Non-self consistent dispersion energy:                       -0.05219493654421
  Correction for halogen bonding:                               0.00000000000000
  Electronic entropic energy:                                  -0.00000000000000
  Fermi energy:                                                -0.29839335602046

  Total energy:                                               -61.17204358590850
  Total energy (extrapolated to T->0):                        -61.17204358590850

 ENERGY| Total FORCE_EVAL ( QS ) energy [hartree]            -61.172043585908497

 OPT| **************************************************************************
 OPT| Step number                                                              6
 OPT| Optimization method                                                   BFGS
 OPT| Total energy [hartree]                                      -61.1720435859
 OPT| Internal pressure [bar]                                    8686.4486004086
 OPT| Effective energy change [hartree]                            -0.0013762711
 OPT| Predicted energy change [hartree]                            -0.0010844640
 OPT| Scaling factor                                                0.0000000000
 OPT| Step size                                                     0.0759014047
 OPT| Trust radius                                                  0.4724315332
 OPT| Decrease in energy                                                     YES
 OPT| Used time [s]                                                        0.357
 OPT|
 OPT| Maximum step size                                             0.0759014047
 OPT| Convergence limit for maximum step size                       0.0030000000
 OPT| Maximum step size is converged                                          NO
 OPT|
 OPT| RMS step size                                                 0.0168254353
 OPT| Convergence limit for RMS step size                           0.0015000000
 OPT| RMS step size is converged                                              NO
 OPT|
 OPT| Maximum gradient                                              0.0124712838
 OPT| Convergence limit for maximum gradient                        0.0004500000
 OPT| Maximum gradient is converged                                           NO
 OPT|
 OPT| RMS gradient                                                  0.0025107508
 OPT| Convergence limit for RMS gradient                            0.0003000000
 OPT| RMS gradient is converged                                               NO
 OPT|
 OPT| Pressure deviation [bar]                                   8686.4486004086
 OPT| Pressure tolerance [bar]                                    100.0000000000
 OPT| Pressure is converged                                                   NO
 OPT| **************************************************************************
 OPT| Estimated peak process memory after this step [MiB]                    169

 --------------------------
 OPTIMIZATION STEP:      7
 --------------------------

 CELL| Volume [angstrom^3]:                                           221.949688
 CELL| Vector a [angstrom]:       5.357     0.000     0.000   |a| =     5.356633
 CELL| Vector b [angstrom]:      -0.000     8.718     0.000   |b| =     8.717578
 CELL| Vector c [angstrom]:      -0.350     0.000     4.753   |c| =     4.765836
 CELL| Angle (b,c), alpha [degree]:                                    90.000000
 CELL| Angle (a,c), beta  [degree]:                                    94.208006
 CELL| Angle (a,b), gamma [degree]:                                    90.000000
 CELL| Numerically orthorhombic:                                              NO
 CELL| Periodicity                                                           XYZ

 Extrapolation method: ASPC

 Number of electrons:                                                         92
 Number of occupied orbitals:                                                 46
 Number of molecular orbitals:                                                88

 Number of orbital functions:                                                 88
 Number of independent orbital functions:                                     88


 SCF WAVEFUNCTION OPTIMIZATION

  Step     Update method      Time    Convergence         Total energy    Change
  ------------------------------------------------------------------------------
     1 TBLite/Diag 0.40E+00    0.0     0.01423697       -61.1728750212 -6.12E+01
     2 TBLite/Diag 0.40E+00    0.0     0.00149679       -61.1728904623 -1.54E-05
     3 TBLite/Diag 0.40E+00    0.0     0.00022148       -61.1728908786 -4.16E-07
     4 TBLite/Diag 0.40E+00    0.0     0.00007573       -61.1728908899 -1.13E-08
     5 TBLite/Diag 0.40E+00    0.0     0.00003712       -61.1728909097 -1.98E-08
     6 TBLite/Diag 0.40E+00    0.0     0.00001210       -61.1728909101 -4.53E-10
     7 TBLite/Diag 0.40E+00    0.0     0.00000095       -61.1728909101 -5.84E-12
     8 TBLite/Diag 0.40E+00    0.0     0.00000011       -61.1728909101  2.84E-14
     9 TBLite/Diag 0.40E+00    0.0     1.5728E-09       -61.1728909101  0.00E+00
    10 TBLite/Diag 0.40E+00    0.0     7.0674E-10       -61.1728909101  1.42E-14

  *** SCF run converged in    10 steps ***


  Core Hamiltonian energy:                                    -61.92902332647038
  Repulsive potential energy:                                   0.47456833173674
  Electrostatic energy:                                         0.33406839610133
  Self-consistent dispersion energy:                            0.00000000000000
  Non-self consistent dispersion energy:                       -0.05250431148341
  Correction for halogen bonding:                               0.00000000000000
  Electronic entropic energy:                                  -0.00000000000000
  Fermi energy:                                                -0.29921276279905

  Total energy:                                               -61.17289091011573
  Total energy (extrapolated to T->0):                        -61.17289091011573

 ENERGY| Total FORCE_EVAL ( QS ) energy [hartree]            -61.172890910115726

 OPT| **************************************************************************
 OPT| Step number                                                              7
 OPT| Optimization method                                                   BFGS
 OPT| Total energy [hartree]                                      -61.1728909101
 OPT| Internal pressure [bar]                                     576.4386945151
 OPT| Effective energy change [hartree]                            -0.0008473242
 OPT| Predicted energy change [hartree]                            -0.0006136896
 OPT| Scaling factor                                                0.0000000000
 OPT| Step size                                                     0.0407032137
 OPT| Trust radius                                                  0.4724315332
 OPT| Decrease in energy                                                     YES
 OPT| Used time [s]                                                        0.358
 OPT|
 OPT| Maximum step size                                             0.0407032137
 OPT| Convergence limit for maximum step size                       0.0030000000
 OPT| Maximum step size is converged                                          NO
 OPT|
 OPT| RMS step size                                                 0.0118561691
 OPT| Convergence limit for RMS step size                           0.0015000000
 OPT| RMS step size is converged                                              NO
 OPT|
 OPT| Maximum gradient                                              0.0102445027
 OPT| Convergence limit for maximum gradient                        0.0004500000
 OPT| Maximum gradient is converged                                           NO
 OPT|
 OPT| RMS gradient                                                  0.0022902483
 OPT| Convergence limit for RMS gradient                            0.0003000000
 OPT| RMS gradient is converged                                               NO
 OPT|
 OPT| Pressure deviation [bar]                                    576.4386945151
 OPT| Pressure tolerance [bar]                                    100.0000000000
 OPT| Pressure is converged                                                   NO
 OPT| **************************************************************************
 OPT| Estimated peak process memory after this step [MiB]                    169

 --------------------------
 OPTIMIZATION STEP:      8
 --------------------------

 CELL| Volume [angstrom^3]:                                           220.892335
 CELL| Vector a [angstrom]:       5.352     0.000     0.000   |a| =     5.351757
 CELL| Vector b [angstrom]:      -0.000     8.713     0.000   |b| =     8.713484
 CELL| Vector c [angstrom]:      -0.376    -0.000     4.737   |c| =     4.751815
 CELL| Angle (b,c), alpha [degree]:                                    90.000000
 CELL| Angle (a,c), beta  [degree]:                                    94.543754
 CELL| Angle (a,b), gamma [degree]:                                    90.000000
 CELL| Numerically orthorhombic:                                              NO
 CELL| Periodicity                                                           XYZ

 Extrapolation method: ASPC

 Number of electrons:                                                         92
 Number of occupied orbitals:                                                 46
 Number of molecular orbitals:                                                88

 Number of orbital functions:                                                 88
 Number of independent orbital functions:                                     88


 SCF WAVEFUNCTION OPTIMIZATION

  Step     Update method      Time    Convergence         Total energy    Change
  ------------------------------------------------------------------------------
     1 TBLite/Diag 0.40E+00    0.0     0.01144197       -61.1736366091 -6.12E+01
     2 TBLite/Diag 0.40E+00    0.0     0.00035097       -61.1736387104 -2.10E-06
     3 TBLite/Diag 0.40E+00    0.0     0.00008683       -61.1736387808 -7.05E-08
     4 TBLite/Diag 0.40E+00    0.0     0.00004726       -61.1736387826 -1.74E-09
     5 TBLite/Diag 0.40E+00    0.0     0.00001555       -61.1736387845 -1.87E-09
     6 TBLite/Diag 0.40E+00    0.0     0.00000555       -61.1736387846 -1.18E-10
     7 TBLite/Diag 0.40E+00    0.0     0.00000122       -61.1736387846 -2.21E-11
     8 TBLite/Diag 0.40E+00    0.0     0.00000022       -61.1736387846 -2.42E-13
     9 TBLite/Diag 0.40E+00    0.0     1.8521E-10       -61.1736387846  0.00E+00

  *** SCF run converged in     9 steps ***


  Core Hamiltonian energy:                                    -61.92169888189129
  Repulsive potential energy:                                   0.46748041475357
  Electrostatic energy:                                         0.33334194065956
  Self-consistent dispersion energy:                            0.00000000000000
  Non-self consistent dispersion energy:                       -0.05276225811769
  Correction for halogen bonding:                               0.00000000000000
  Electronic entropic energy:                                  -0.00000000000000
  Fermi energy:                                                -0.29934185027128

  Total energy:                                               -61.17363878459584
  Total energy (extrapolated to T->0):                        -61.17363878459584

 ENERGY| Total FORCE_EVAL ( QS ) energy [hartree]            -61.173638784595845

 OPT| **************************************************************************
 OPT| Step number                                                              8
 OPT| Optimization method                                                   BFGS
 OPT| Total energy [hartree]                                      -61.1736387846
 OPT| Internal pressure [bar]                                   -5791.3658876779
 OPT| Effective energy change [hartree]                            -0.0007478745
 OPT| Predicted energy change [hartree]                            -0.0005267702
 OPT| Scaling factor                                                0.0000000000
 OPT| Step size                                                     0.0505220764
 OPT| Trust radius                                                  0.4724315332
 OPT| Decrease in energy                                                     YES
 OPT| Used time [s]                                                        0.354
 OPT|
 OPT| Maximum step size                                             0.0505220764
 OPT| Convergence limit for maximum step size                       0.0030000000
 OPT| Maximum step size is converged                                          NO
 OPT|
 OPT| RMS step size                                                 0.0117209803
 OPT| Convergence limit for RMS step size                           0.0015000000
 OPT| RMS step size is converged                                              NO
 OPT|
 OPT| Maximum gradient                                              0.0071930388
 OPT| Convergence limit for maximum gradient                        0.0004500000
 OPT| Maximum gradient is converged                                           NO
 OPT|
 OPT| RMS gradient                                                  0.0021659885
 OPT| Convergence limit for RMS gradient                            0.0003000000
 OPT| RMS gradient is converged                                               NO
 OPT|
 OPT| Pressure deviation [bar]                                  -5791.3658876779
 OPT| Pressure tolerance [bar]                                    100.0000000000
 OPT| Pressure is converged                                                   NO
 OPT| **************************************************************************
 OPT| Estimated peak process memory after this step [MiB]                    169

 --------------------------
 OPTIMIZATION STEP:      9
 --------------------------

 CELL| Volume [angstrom^3]:                                           219.945273
 CELL| Vector a [angstrom]:       5.346     0.000     0.000   |a| =     5.345639
 CELL| Vector b [angstrom]:      -0.000     8.709     0.000   |b| =     8.709023
 CELL| Vector c [angstrom]:      -0.404    -0.000     4.724   |c| =     4.741660
 CELL| Angle (b,c), alpha [degree]:                                    90.000000
 CELL| Angle (a,c), beta  [degree]:                                    94.891877
 CELL| Angle (a,b), gamma [degree]:                                    90.000000
 CELL| Numerically orthorhombic:                                              NO
 CELL| Periodicity                                                           XYZ

 Extrapolation method: ASPC

 Number of electrons:                                                         92
 Number of occupied orbitals:                                                 46
 Number of molecular orbitals:                                                88

 Number of orbital functions:                                                 88
 Number of independent orbital functions:                                     88


 SCF WAVEFUNCTION OPTIMIZATION

  Step     Update method      Time    Convergence         Total energy    Change
  ------------------------------------------------------------------------------
     1 TBLite/Diag 0.40E+00    0.0     0.00976416       -61.1742508814 -6.12E+01
     2 TBLite/Diag 0.40E+00    0.0     0.00063016       -61.1742543009 -3.42E-06
     3 TBLite/Diag 0.40E+00    0.0     0.00015879       -61.1742545573 -2.56E-07
     4 TBLite/Diag 0.40E+00    0.0     0.00005459       -61.1742545771 -1.98E-08
     5 TBLite/Diag 0.40E+00    0.0     0.00001318       -61.1742545799 -2.78E-09
     6 TBLite/Diag 0.40E+00    0.0     0.00000538       -61.1742545801 -1.95E-10
     7 TBLite/Diag 0.40E+00    0.0     0.00000082       -61.1742545801 -5.50E-12
     8 TBLite/Diag 0.40E+00    0.0     0.00000020       -61.1742545801 -7.11E-15
     9 TBLite/Diag 0.40E+00    0.0     3.6398E-09       -61.1742545801 -9.95E-14
    10 TBLite/Diag 0.40E+00    0.0     7.4563E-10       -61.1742545801  4.26E-14

  *** SCF run converged in    10 steps ***


  Core Hamiltonian energy:                                    -61.91925964712375
  Repulsive potential energy:                                   0.46490764094930
  Electrostatic energy:                                         0.33309277389391
  Self-consistent dispersion energy:                            0.00000000000000
  Non-self consistent dispersion energy:                       -0.05299534784103
  Correction for halogen bonding:                               0.00000000000000
  Electronic entropic energy:                                  -0.00000000000000
  Fermi energy:                                                -0.29898005800352

  Total energy:                                               -61.17425458012157
  Total energy (extrapolated to T->0):                        -61.17425458012157

 ENERGY| Total FORCE_EVAL ( QS ) energy [hartree]            -61.174254580121570

 OPT| **************************************************************************
 OPT| Step number                                                              9
 OPT| Optimization method                                                   BFGS
 OPT| Total energy [hartree]                                      -61.1742545801
 OPT| Internal pressure [bar]                                   -8387.0057653632
 OPT| Effective energy change [hartree]                            -0.0006157955
 OPT| Predicted energy change [hartree]                            -0.0004268202
 OPT| Scaling factor                                                0.0000000000
 OPT| Step size                                                     0.0527380197
 OPT| Trust radius                                                  0.4724315332
 OPT| Decrease in energy                                                     YES
 OPT| Used time [s]                                                        0.359
 OPT|
 OPT| Maximum step size                                             0.0527380197
 OPT| Convergence limit for maximum step size                       0.0030000000
 OPT| Maximum step size is converged                                          NO
 OPT|
 OPT| RMS step size                                                 0.0105799081
 OPT| Convergence limit for RMS step size                           0.0015000000
 OPT| RMS step size is converged                                              NO
 OPT|
 OPT| Maximum gradient                                              0.0072876440
 OPT| Convergence limit for maximum gradient                        0.0004500000
 OPT| Maximum gradient is converged                                           NO
 OPT|
 OPT| RMS gradient                                                  0.0018771803
 OPT| Convergence limit for RMS gradient                            0.0003000000
 OPT| RMS gradient is converged                                               NO
 OPT|
 OPT| Pressure deviation [bar]                                  -8387.0057653632
 OPT| Pressure tolerance [bar]                                    100.0000000000
 OPT| Pressure is converged                                                   NO
 OPT| **************************************************************************
 OPT| Estimated peak process memory after this step [MiB]                    169

 --------------------------
 OPTIMIZATION STEP:     10
 --------------------------

 CELL| Volume [angstrom^3]:                                           219.069959
 CELL| Vector a [angstrom]:       5.337     0.000     0.000   |a| =     5.337083
 CELL| Vector b [angstrom]:      -0.000     8.705     0.000   |b| =     8.704900
 CELL| Vector c [angstrom]:      -0.430    -0.000     4.715   |c| =     4.734912
 CELL| Angle (b,c), alpha [degree]:                                    90.000000
 CELL| Angle (a,c), beta  [degree]:                                    95.208248
 CELL| Angle (a,b), gamma [degree]:                                    90.000000
 CELL| Numerically orthorhombic:                                              NO
 CELL| Periodicity                                                           XYZ

 Extrapolation method: ASPC

 Number of electrons:                                                         92
 Number of occupied orbitals:                                                 46
 Number of molecular orbitals:                                                88

 Number of orbital functions:                                                 88
 Number of independent orbital functions:                                     88


 SCF WAVEFUNCTION OPTIMIZATION

  Step     Update method      Time    Convergence         Total energy    Change
  ------------------------------------------------------------------------------
     1 TBLite/Diag 0.40E+00    0.0     0.00711192       -61.1747445223 -6.12E+01
     2 TBLite/Diag 0.40E+00    0.0     0.00100547       -61.1747506291 -6.11E-06
     3 TBLite/Diag 0.40E+00    0.0     0.00019725       -61.1747510004 -3.71E-07
     4 TBLite/Diag 0.40E+00    0.0     0.00004668       -61.1747510157 -1.53E-08
     5 TBLite/Diag 0.40E+00    0.0     0.00001244       -61.1747510182 -2.54E-09
     6 TBLite/Diag 0.40E+00    0.0     0.00000518       -61.1747510183 -1.37E-10
     7 TBLite/Diag 0.40E+00    0.0     0.00000031       -61.1747510183 -1.42E-12
     8 TBLite/Diag 0.40E+00    0.0     0.00000012       -61.1747510183  2.13E-14
     9 TBLite/Diag 0.40E+00    0.0     4.9181E-09       -61.1747510183 -1.42E-14
    10 TBLite/Diag 0.40E+00    0.0     1.0732E-09       -61.1747510183 -5.68E-14
    11 TBLite/Diag 0.40E+00    0.0     3.5676E-12       -61.1747510183  2.13E-14

  *** SCF run converged in    11 steps ***


  Core Hamiltonian energy:                                    -61.92107244798133
  Repulsive potential energy:                                   0.46615020257594
  Electrostatic energy:                                         0.33338380229572
  Self-consistent dispersion energy:                            0.00000000000000
  Non-self consistent dispersion energy:                       -0.05321257522527
  Correction for halogen bonding:                               0.00000000000000
  Electronic entropic energy:                                  -0.00000000000000
  Fermi energy:                                                -0.29848731378050

  Total energy:                                               -61.17475101833493
  Total energy (extrapolated to T->0):                        -61.17475101833493

 ENERGY| Total FORCE_EVAL ( QS ) energy [hartree]            -61.174751018334931

 OPT| **************************************************************************
 OPT| Step number                                                             10
 OPT| Optimization method                                                   BFGS
 OPT| Total energy [hartree]                                      -61.1747510183
 OPT| Internal pressure [bar]                                   -7698.2728347312
 OPT| Effective energy change [hartree]                            -0.0004964382
 OPT| Predicted energy change [hartree]                            -0.0003446025
 OPT| Scaling factor                                                0.0000000000
 OPT| Step size                                                     0.0481270680
 OPT| Trust radius                                                  0.4724315332
 OPT| Decrease in energy                                                     YES
 OPT| Used time [s]                                                        0.364
 OPT|
 OPT| Maximum step size                                             0.0481270680
 OPT| Convergence limit for maximum step size                       0.0030000000
 OPT| Maximum step size is converged                                          NO
 OPT|
 OPT| RMS step size                                                 0.0089172408
 OPT| Convergence limit for RMS step size                           0.0015000000
 OPT| RMS step size is converged                                              NO
 OPT|
 OPT| Maximum gradient                                              0.0082235170
 OPT| Convergence limit for maximum gradient                        0.0004500000
 OPT| Maximum gradient is converged                                           NO
 OPT|
 OPT| RMS gradient                                                  0.0016439044
 OPT| Convergence limit for RMS gradient                            0.0003000000
 OPT| RMS gradient is converged                                               NO
 OPT|
 OPT| Pressure deviation [bar]                                  -7698.2728347312
 OPT| Pressure tolerance [bar]                                    100.0000000000
 OPT| Pressure is converged                                                   NO
 OPT| **************************************************************************
 OPT| Estimated peak process memory after this step [MiB]                    169

 --------------------------
 OPTIMIZATION STEP:     11
 --------------------------

 CELL| Volume [angstrom^3]:                                           218.057047
 CELL| Vector a [angstrom]:       5.324     0.000     0.000   |a| =     5.324146
 CELL| Vector b [angstrom]:      -0.000     8.701     0.000   |b| =     8.701202
 CELL| Vector c [angstrom]:      -0.452    -0.000     4.707   |c| =     4.728658
 CELL| Angle (b,c), alpha [degree]:                                    90.000000
 CELL| Angle (a,c), beta  [degree]:                                    95.490418
 CELL| Angle (a,b), gamma [degree]:                                    90.000000
 CELL| Numerically orthorhombic:                                              NO
 CELL| Periodicity                                                           XYZ

 Extrapolation method: ASPC

 Number of electrons:                                                         92
 Number of occupied orbitals:                                                 46
 Number of molecular orbitals:                                                88

 Number of orbital functions:                                                 88
 Number of independent orbital functions:                                     88


 SCF WAVEFUNCTION OPTIMIZATION

  Step     Update method      Time    Convergence         Total energy    Change
  ------------------------------------------------------------------------------
     1 TBLite/Diag 0.40E+00    0.0     0.00641224       -61.1751724762 -6.12E+01
     2 TBLite/Diag 0.40E+00    0.0     0.00081717       -61.1751765260 -4.05E-06
     3 TBLite/Diag 0.40E+00    0.0     0.00016463       -61.1751767441 -2.18E-07
     4 TBLite/Diag 0.40E+00    0.0     0.00005481       -61.1751767613 -1.71E-08
     5 TBLite/Diag 0.40E+00    0.0     0.00001310       -61.1751767650 -3.69E-09
     6 TBLite/Diag 0.40E+00    0.0     0.00000343       -61.1751767651 -1.90E-10
     7 TBLite/Diag 0.40E+00    0.0     0.00000172       -61.1751767652 -1.14E-11
     8 TBLite/Diag 0.40E+00    0.0     0.00000012       -61.1751767652 -2.13E-14
     9 TBLite/Diag 0.40E+00    0.0     5.0342E-10       -61.1751767652 -1.28E-13

  *** SCF run converged in     9 steps ***


  Core Hamiltonian energy:                                    -61.92502091666274
  Repulsive potential energy:                                   0.46928221426894
  Electrostatic energy:                                         0.33402651694864
  Self-consistent dispersion energy:                            0.00000000000000
  Non-self consistent dispersion energy:                       -0.05346457970781
  Correction for halogen bonding:                               0.00000000000000
  Electronic entropic energy:                                  -0.00000000000000
  Fermi energy:                                                -0.29811998525774

  Total energy:                                               -61.17517676515297
  Total energy (extrapolated to T->0):                        -61.17517676515297

 ENERGY| Total FORCE_EVAL ( QS ) energy [hartree]            -61.175176765152969

 OPT| **************************************************************************
 OPT| Step number                                                             11
 OPT| Optimization method                                                   BFGS
 OPT| Total energy [hartree]                                      -61.1751767652
 OPT| Internal pressure [bar]                                   -5205.9956688752
 OPT| Effective energy change [hartree]                            -0.0004257468
 OPT| Predicted energy change [hartree]                            -0.0002919955
 OPT| Scaling factor                                                0.0000000000
 OPT| Step size                                                     0.0427428633
 OPT| Trust radius                                                  0.4724315332
 OPT| Decrease in energy                                                     YES
 OPT| Used time [s]                                                        0.357
 OPT|
 OPT| Maximum step size                                             0.0427428633
 OPT| Convergence limit for maximum step size                       0.0030000000
 OPT| Maximum step size is converged                                          NO
 OPT|
 OPT| RMS step size                                                 0.0082009424
 OPT| Convergence limit for RMS step size                           0.0015000000
 OPT| RMS step size is converged                                              NO
 OPT|
 OPT| Maximum gradient                                              0.0079833692
 OPT| Convergence limit for maximum gradient                        0.0004500000
 OPT| Maximum gradient is converged                                           NO
 OPT|
 OPT| RMS gradient                                                  0.0016276591
 OPT| Convergence limit for RMS gradient                            0.0003000000
 OPT| RMS gradient is converged                                               NO
 OPT|
 OPT| Pressure deviation [bar]                                  -5205.9956688752
 OPT| Pressure tolerance [bar]                                    100.0000000000
 OPT| Pressure is converged                                                   NO
 OPT| **************************************************************************
 OPT| Estimated peak process memory after this step [MiB]                    169

 --------------------------
 OPTIMIZATION STEP:     12
 --------------------------

 CELL| Volume [angstrom^3]:                                           216.554982
 CELL| Vector a [angstrom]:       5.303     0.000     0.000   |a| =     5.303475
 CELL| Vector b [angstrom]:       0.000     8.697     0.000   |b| =     8.697272
 CELL| Vector c [angstrom]:      -0.476    -0.000     4.695   |c| =     4.718932
 CELL| Angle (b,c), alpha [degree]:                                    90.000000
 CELL| Angle (a,c), beta  [degree]:                                    95.787183
 CELL| Angle (a,b), gamma [degree]:                                    90.000000
 CELL| Numerically orthorhombic:                                              NO
 CELL| Periodicity                                                           XYZ

 Extrapolation method: ASPC

 Number of electrons:                                                         92
 Number of occupied orbitals:                                                 46
 Number of molecular orbitals:                                                88

 Number of orbital functions:                                                 88
 Number of independent orbital functions:                                     88


 SCF WAVEFUNCTION OPTIMIZATION

  Step     Update method      Time    Convergence         Total energy    Change
  ------------------------------------------------------------------------------
     1 TBLite/Diag 0.40E+00    0.0     0.00682161       -61.1755970693 -6.12E+01
     2 TBLite/Diag 0.40E+00    0.0     0.00043578       -61.1755996454 -2.58E-06
     3 TBLite/Diag 0.40E+00    0.0     0.00011131       -61.1755997620 -1.17E-07
     4 TBLite/Diag 0.40E+00    0.0     0.00005449       -61.1755997698 -7.79E-09
     5 TBLite/Diag 0.40E+00    0.0     0.00002236       -61.1755997777 -7.96E-09
     6 TBLite/Diag 0.40E+00    0.0     0.00000640       -61.1755997779 -2.16E-10
     7 TBLite/Diag 0.40E+00    0.0     0.00000080       -61.1755997780 -2.15E-12
     8 TBLite/Diag 0.40E+00    0.0     0.00000018       -61.1755997780 -1.49E-13
     9 TBLite/Diag 0.40E+00    0.0     6.5117E-09       -61.1755997780  2.84E-14
    10 TBLite/Diag 0.40E+00    0.0     1.2986E-10       -61.1755997780 -9.95E-14

  *** SCF run converged in    10 steps ***


  Core Hamiltonian energy:                                    -61.92899357992202
  Repulsive potential energy:                                   0.47242523243079
  Electrostatic energy:                                         0.33480753332629
  Self-consistent dispersion energy:                            0.00000000000000
  Non-self consistent dispersion energy:                       -0.05383896378608
  Correction for halogen bonding:                               0.00000000000000
  Electronic entropic energy:                                  -0.00000000000000
  Fermi energy:                                                -0.29793392357898

  Total energy:                                               -61.17559977795103
  Total energy (extrapolated to T->0):                        -61.17559977795103

 ENERGY| Total FORCE_EVAL ( QS ) energy [hartree]            -61.175599777951028

 OPT| **************************************************************************
 OPT| Step number                                                             12
 OPT| Optimization method                                                   BFGS
 OPT| Total energy [hartree]                                      -61.1755997780
 OPT| Internal pressure [bar]                                   -2304.1546266470
 OPT| Effective energy change [hartree]                            -0.0004230128
 OPT| Predicted energy change [hartree]                            -0.0002877952
 OPT| Scaling factor                                                0.0000000000
[...]
 CELL| Numerically orthorhombic:                                              NO
 CELL| Periodicity                                                           XYZ

 Extrapolation method: ASPC

 Number of electrons:                                                         92
 Number of occupied orbitals:                                                 46
 Number of molecular orbitals:                                                88

 Number of orbital functions:                                                 88
 Number of independent orbital functions:                                     88


 SCF WAVEFUNCTION OPTIMIZATION

  Step     Update method      Time    Convergence         Total energy    Change
  ------------------------------------------------------------------------------
     1 TBLite/Diag 0.40E+00    0.0     0.00070130       -61.1891297637 -6.12E+01
     2 TBLite/Diag 0.40E+00    0.0     0.00001170       -61.1891297649 -1.17E-09
     3 TBLite/Diag 0.40E+00    0.0     0.00000332       -61.1891297650 -1.19E-10
     4 TBLite/Diag 0.40E+00    0.0     0.00000235       -61.1891297650 -1.23E-11
     5 TBLite/Diag 0.40E+00    0.0     0.00000021       -61.1891297650 -2.20E-13
     6 TBLite/Diag 0.40E+00    0.0     0.00000005       -61.1891297650 -5.68E-14
     7 TBLite/Diag 0.40E+00    0.0     2.9654E-09       -61.1891297650  7.82E-14
     8 TBLite/Diag 0.40E+00    0.0     2.3175E-09       -61.1891297650 -7.11E-15
     9 TBLite/Diag 0.40E+00    0.0     1.3949E-10       -61.1891297650  3.55E-14

  *** SCF run converged in     9 steps ***


  Core Hamiltonian energy:                                    -61.93680267940545
  Repulsive potential energy:                                   0.47007986149048
  Electrostatic energy:                                         0.33560022680402
  Self-consistent dispersion energy:                            0.00000000000000
  Non-self consistent dispersion energy:                       -0.05800717389668
  Correction for halogen bonding:                               0.00000000000000
  Electronic entropic energy:                                  -0.00000000000000
  Fermi energy:                                                -0.29303237119185

  Total energy:                                               -61.18912976500764
  Total energy (extrapolated to T->0):                        -61.18912976500764

 ENERGY| Total FORCE_EVAL ( QS ) energy [hartree]            -61.189129765007635

 OPT| **************************************************************************
 OPT| Step number                                                             80
 OPT| Optimization method                                                   BFGS
 OPT| Total energy [hartree]                                      -61.1891297650
 OPT| Internal pressure [bar]                                      49.6441321847
 OPT| Effective energy change [hartree]                            -0.0000006380
 OPT| Predicted energy change [hartree]                            -0.0000006015
 OPT| Scaling factor                                                0.2669902665
 OPT| Step size                                                     0.0015594108
 OPT| Trust radius                                                  0.4724315332
 OPT| Decrease in energy                                                     YES
 OPT| Used time [s]                                                        0.201
 OPT|
 OPT| Maximum step size                                             0.0015594108
 OPT| Convergence limit for maximum step size                       0.0030000000
 OPT| Maximum step size is converged                                         YES
 OPT|
 OPT| RMS step size                                                 0.0006105858
 OPT| Convergence limit for RMS step size                           0.0015000000
 OPT| RMS step size is converged                                             YES
 OPT|
 OPT| Maximum gradient                                              0.0001654241
 OPT| Convergence limit for maximum gradient                        0.0004500000
 OPT| Maximum gradient is converged                                          YES
 OPT|
 OPT| RMS gradient                                                  0.0000523421
 OPT| Convergence limit for RMS gradient                            0.0003000000
 OPT| RMS gradient is converged                                              YES
 OPT|
 OPT| Pressure deviation [bar]                                     49.6441321847
 OPT| Pressure tolerance [bar]                                    100.0000000000
 OPT| Pressure is converged                                                  YES
 OPT| **************************************************************************
 OPT| Estimated peak process memory after this step [MiB]                    169

 *******************************************************************************
 ***                    GEOMETRY OPTIMIZATION COMPLETED                      ***
 *******************************************************************************

 write_final_structure: Optimization converged, writing XYZ file gladly:
  succinic_acid_GFN1_gamma_cell_opt-FINAL-1_80.xyz

 write_final_structure: Optimization converged, writing CIF file gladly:
  succinic_acid_GFN1_gamma_cell_opt-FINAL-1_80.cif

 write_final_structure: Done!

                    Reevaluating energy at the minimum

 CELL| Volume [angstrom^3]:                                           200.920748
 CELL| Vector a [angstrom]:       4.848     0.000     0.000   |a| =     4.847762
 CELL| Vector b [angstrom]:      -0.000     8.867     0.000   |b| =     8.867240
 CELL| Vector c [angstrom]:      -0.819     0.000     4.674   |c| =     4.745218
 CELL| Angle (b,c), alpha [degree]:                                    90.000000
 CELL| Angle (a,c), beta  [degree]:                                    99.934366
 CELL| Angle (a,b), gamma [degree]:                                    90.000000
 CELL| Numerically orthorhombic:                                              NO
 CELL| Periodicity                                                           XYZ

 Extrapolation method: ASPC

 Number of electrons:                                                         92
 Number of occupied orbitals:                                                 46
 Number of molecular orbitals:                                                88

 Number of orbital functions:                                                 88
 Number of independent orbital functions:                                     88


 SCF WAVEFUNCTION OPTIMIZATION

  Step     Update method      Time    Convergence         Total energy    Change
  ------------------------------------------------------------------------------
     1 TBLite/Diag 0.40E+00    0.0     6.1359E-11       -61.1891297650 -6.12E+01

  *** SCF run converged in     1 steps ***


  Core Hamiltonian energy:                                    -61.93680267940805
  Repulsive potential energy:                                   0.47007986149048
  Electrostatic energy:                                         0.33560022680662
  Self-consistent dispersion energy:                            0.00000000000000
  Non-self consistent dispersion energy:                       -0.05800717389668
  Correction for halogen bonding:                               0.00000000000000
  Electronic entropic energy:                                  -0.00000000000000
  Fermi energy:                                                -0.29303237119149

  Total energy:                                               -61.18912976500764
  Total energy (extrapolated to T->0):                        -61.18912976500764

 ENERGY| Total FORCE_EVAL ( QS ) energy [hartree]            -61.189129765007635

 -------------------------------------------------------------------------------
 -                                                                             -
 -                                DBCSR STATISTICS                             -
 -                                                                             -
 -------------------------------------------------------------------------------
 COUNTER                                    TOTAL       BLAS       SMM       ACC
 flops     2 x    24 x     2             10920960       0.0%    100.0%      0.0%     
 flops     2 x    24 x     4             29122560       0.0%    100.0%      0.0%     
 flops     4 x    24 x     2             29122560       0.0%    100.0%      0.0%     
 flops     2 x    32 x     2             29122560       0.0%    100.0%      0.0%     
 flops     2 x     2 x    88             51452544       0.0%    100.0%      0.0%     
 flops     4 x    24 x     4             77660160       0.0%    100.0%      0.0%     
 flops     2 x    32 x     4             77660160       0.0%    100.0%      0.0%     
 flops     4 x    32 x     2             77660160       0.0%    100.0%      0.0%     
 flops     2 x     4 x    88            126652416       0.0%    100.0%      0.0%     
 flops     4 x     2 x    88            126652416       0.0%    100.0%      0.0%     
 flops     4 x    32 x     4            207093760       0.0%    100.0%      0.0%     
 flops     4 x     4 x    88            358848512       0.0%    100.0%      0.0%     
 flops inhomo. stacks                           0       0.0%      0.0%      0.0%
 flops total                         1.201969E+09       0.0%    100.0%      0.0%
 flops max/rank                      1.201969E+09       0.0%    100.0%      0.0%
 matmuls inhomo. stacks                         0       0.0%      0.0%      0.0%
 matmuls total                            1309462       0.0%    100.0%      0.0%
 number of processed stacks                  6908       0.0%    100.0%      0.0%
 average stack size                                     0.0     189.6       0.0
 marketing flops                     1.205927E+09
 -------------------------------------------------------------------------------
 # multiplications                           1332
 max memory usage/rank              13.673259E+09
 # max total images/rank                        1
 # max 3D layers                                1
 # MPI messages exchanged                       0
 -------------------------------------------------------------------------------
 -                                                                             -
 -                      DBCSR MESSAGE PASSING PERFORMANCE                      -
 -                                                                             -
 -------------------------------------------------------------------------------
 ROUTINE             CALLS      AVE VOLUME [Bytes]
 MP_Bcast               13                     12.
 MP_Allreduce         5913                      8.
 MP_Alltoall         41887                  41004.
 MP_ISend             5328                   3756.
 MP_IRecv             5328                   3756.
 -------------------------------------------------------------------------------

 -------------------------------------------------------------------------------
 -                                                                             -
 -                          OFFLOAD MEMPOOL STATISTICS                         -
 -                                                                             -
 -------------------------------------------------------------------------------
 Memory consumption                Number of allocations  Used [MiB]  Size [MiB]
 Device                                                1           0           0
 Host                                                  1           0           0
 -------------------------------------------------------------------------------

 MEMORY| Estimated peak process memory [MiB]                                 169

 -------------------------------------------------------------------------------
 -                                                                             -
 -                         MESSAGE PASSING PERFORMANCE                         -
 -                                                                             -
 -------------------------------------------------------------------------------

 ROUTINE             CALLS      AVE VOLUME [Bytes]
 MP_Group               81
 MP_Bcast             1872                    355.
 MP_Allreduce        15592                    195.
 MP_Sync              1017
 MP_comm_split         936
 -------------------------------------------------------------------------------


 -------------------------------------------------------------------------------
 -                                                                             -
 -                           R E F E R E N C E S                               -
 -                                                                             -
 -------------------------------------------------------------------------------
 
 CP2K version 2026.1 (Development Version), the CP2K developers group (2026).
 CP2K is freely available from https://www.cp2k.org/ .
 
 M. Iannuzzi, J. Wilhelm, F. Stein, A. Bussy, H. Elgabarty, D. Golze, A. Hehn, 
 M. Graml, S. Marek, B. Sertcan Gökmen, C. Schran, H. Forbert, R. Z. 
 Khaliullin, A. Kozhevnikov, M. Taillefumier, R. Meli, V. V. Rybkin, M. Brehm, 
 R. Schade, O. Schütt, J. V. Pototschnig, H. Mirhosseini, A. Knüpfer, D. Marx, 
 M. Krack, J. Hutter, T. D. Kühne.
 J. Phys. Chem. B 130, 1237-1310 (2026).
 The CP2K Program Package Made Simple.
 https://doi.org/10.1021/acs.jpcb.5c05851

 A. Katbashev, M. Stahn, T. Rose, V. Alizadeh, M. Friede, C. Plett, P. 
 Steinbach, S. Ehlert.
 J. Phys. Chem. A 129, 2667-2682 (2025).
 Overview on Building Blocks and Applications of Efficient and Robust Extended 
 Tight Binding.
 https://doi.org/10.1021/acs.jpca.4c08263

 T. D. Kühne, M. Iannuzzi, M. Del Ben, V. V. Rybkin, P. Seewald, F. Stein, T. 
 Laino, R. Z. Khaliullin, O. Schütt, F. Schiffmann, D. Golze, J. Wilhelm, S. 
 Chulkov, M. H. Bani-Hashemian, V. Weber, U. Borstnik, M. Taillefumier, A. S. 
 Jakobovits, A. Lazzaro, H. Pabst, T. Müller, R. Schade, M. Guidon, S. 
 Andermatt, N. Holmberg, G. K. Schenter, A. Hehn, A. Bussy, F. Belleflamme, G. 
 Tabacchi, A. Glöß, M. Lass, I. Bethune, C. J. Mundy, C. Plessl, M. Watkins, 
 J. VandeVondele, M. Krack, J. Hutter.
 J. Chem. Phys. 152, 194103 (2020).
 CP2K: An electronic structure and molecular dynamics software package - 
 Quickstep: Efficient and accurate electronic structure calculations.
 https://doi.org/10.1063/5.0007045

 P. Pracht, E. Caldeweyher, S. Ehlert, S. Grimme.
 ChemRxiv, (2019).
 A Robust Non-Self-Consistent Tight-Binding Quantum Chemistry Method for large 
 Molecules.
 https://doi.org/10.26434/chemrxiv.8326202.v1

 S. Grimme, C. Bannwarth, P. Shushkov.
 J. Chem. Theory Comput. 13, 1989 (2017).
 A Robust and Accurate Tight-Binding Quantum Chemical Method for Structures, 
 Vibrational Frequencies, and Noncovalent Interactions of Large Molecular 
 Systems Parametrized for All spd-Block Elements (Z = 1-86).
 https://doi.org/10.1021/acs.jctc.7b00118

 O. Schuett, P. Messmer, J. Hutter, J. VandeVondele.
 Electronic Structure Calculations on Graphics Processing Units, 173-190 (2016).
 GPU-Accelerated Sparse Matrix-Matrix Multiplication for Linear Scaling Density 
 Functional Theory.
 https://doi.org/10.1002/9781118670712.ch8

 A. Heinecke, G. Henry, M. Hutchinson, H. Pabst.
 Proceedings of Intl. Supercomputing Conference, 981-991 (2016).
 LIBXSMM: Accelerating Small Matrix Multiplications by Runtime Code Generation.
 https://doi.org/10.1109/SC.2016.83

 U. Borstnik, J. VandeVondele, V. Weber, J. Hutter.
 Parallel Comput. 40, 47-58 (2014).
 Sparse matrix multiplication: The distributed block-compressed sparse row 
 library.
 https://doi.org/10.1016/j.parco.2014.03.012

 T. D. Kühne, M. Krack, F. R. Mohamed, M. Parrinello.
 Phys. Rev. Lett. 98, 066401 (2007).
 Efficient and accurate Car-Parrinello-like approach to Born-Oppenheimer 
 molecular dynamics.
 https://doi.org/10.1103/PhysRevLett.98.066401

 M. Frigo, S. G. Johnson.
 Proc. IEEE 93, 216-231 (2005).
 The design and implementation of FFTW3.
 https://doi.org/10.1109/JPROC.2004.840301

 J. Kolafa.
 J. Comput. Chem. 25, 335-342 (2004).
 Time-reversible always stable predictor-corrector method for molecular dynamics 
 of polarizable molecules.
 https://doi.org/10.1002/jcc.10385

 N. D. Mermin.
 Phys. Rev. 137, A1441-A1443 (1965).
 Thermal Properties of the Inhomogeneous Electron Gas.
 https://doi.org/10.1103/PhysRev.137.A1441


 -------------------------------------------------------------------------------
 -                                                                             -
 -                                T I M I N G                                  -
 -                                                                             -
 -------------------------------------------------------------------------------
 SUBROUTINE                       CALLS  ASD         SELF TIME        TOTAL TIME
                                MAXIMUM       AVERAGE  MAXIMUM  AVERAGE  MAXIMUM
 CP2K                                 1  1.0    0.002    0.002   24.276   24.276
 cp_cell_opt                          1  2.0    0.000    0.000   24.269   24.269
 geoopt_bfgs                          1  3.0    0.010    0.010   24.269   24.269
 cp_eval_at                          82  4.0    0.009    0.009   24.127   24.127
 qs_forces                           81  5.0    0.005    0.005   24.072   24.072
 build_tblite_matrices              163  7.0   11.157   11.157   11.268   11.268
 rebuild_ks_matrix                  856  9.7    0.001    0.001    9.646    9.646
 build_tblite_ks_matrix             856 10.7    9.636    9.636    9.645    9.645
 qs_ks_update_qs_env_forces          81  6.0    0.000    0.000    9.481    9.481
 qs_energies                         82  6.0    0.002    0.002    7.855    7.855
 qs_energies_init_hamiltonians       82  7.0    0.000    0.000    4.675    4.675
 scf_env_do_scf                      82  7.0    0.001    0.001    2.512    2.512
 scf_env_do_scf_inner_loop          775  8.0    0.060    0.060    2.506    2.506
 qs_scf_new_mos                     775  9.0    0.004    0.004    2.136    2.136
 eigensolver                        775 10.0    0.015    0.015    0.775    0.775
 cp_dbcsr_plus_fm_fm_t              937 10.8    0.006    0.006    0.773    0.773
 cp_fm_syevd                        936 10.6    0.002    0.002    0.729    0.729
 calculate_dm_sparse                856 10.0    0.004    0.004    0.716    0.716
 dbcsr_multiply_generic            1332 12.0    0.028    0.028    0.692    0.692
 cp_fm_syevd_base                   936 11.6    0.664    0.664    0.664    0.664
 dbcsr_complete_redistribute       4214 12.2    0.440    0.440    0.601    0.601
 copy_dbcsr_to_fm                  1945 10.6    0.012    0.012    0.582    0.582
 init_scf_run                        82  7.0    0.001    0.001    0.558    0.558
 scf_env_initial_rho_setup           82  8.0    0.001    0.001    0.522    0.522
 wfi_extrapolate                     82  9.0    0.003    0.003    0.521    0.521
 -------------------------------------------------------------------------------

 The number of warnings for this run is : 0
 
 -------------------------------------------------------------------------------
  **** **** ******  **  PROGRAM ENDED AT                 2026-05-23 22:47:26.547
 ***** ** ***  *** **   PROGRAM RAN ON                                spark-c86c
 **    ****   ******    PROGRAM RAN BY                                  kuehne88
 ***** **    ** ** **   PROGRAM PROCESS ID                               2266671
  **** **  *******  **  PROGRAM STOPPED IN /home/kuehne88/periodic-gfn2-benchmar
                                           ks/X23b/runs/cellopt_gamma/GFN1/succi
                                           nic_acid_GFN1_gamma_cellopt
