 DBCSR| CPU Multiplication driver                                           BLAS (U)
 DBCSR| Multrec recursion limit                                              512 (U)
 DBCSR| Multiplication stack size                                           1000 (D)
 DBCSR| Maximum elements for images                                    UNLIMITED (U)
 DBCSR| Multiplicative factor virtual images                                   1 (U)
 DBCSR| Use multiplication densification                                       T (D)
 DBCSR| Multiplication size stacks                                             3 (U)
 DBCSR| Use memory pool for CPU allocation                                     F (U)
 DBCSR| Number of 3D layers                                               SINGLE (U)
 DBCSR| Use MPI memory allocation                                              F (U)
 DBCSR| Use RMA algorithm                                                      F (U)
 DBCSR| Use Communication thread                                               T (U)
 DBCSR| Communication thread load                                             87 (D)
 DBCSR| MPI: My process id                                                     0
 DBCSR| MPI: Number of processes                                               1
 DBCSR| OMP: Current number of threads                                         1
 DBCSR| OMP: Max number of threads                                             1
 DBCSR| Split modifier for TAS multiplication algorithm                  1.0E+00 (U)


  **** **** ******  **  PROGRAM STARTED AT               2026-07-21 18:03:09.857
 ***** ** ***  *** **   PROGRAM STARTED ON                                 terok
 **    ****   ******    PROGRAM STARTED BY                              kuehne88
 ***** **    ** ** **   PROGRAM PROCESS ID                               1681562
  **** **  *******  **  PROGRAM STARTED IN /home/kuehne88/work/h2o-molecular-lim
                                           it-fix-20260721/stress/raw/H2O_stress
                                           _L80

 CP2K| version string:                 CP2K version 2026.2 (Development Version)
 CP2K| source code revision number:                                    8520b2e59
 CP2K| cp2kflags: omp parallel scalapack spglib s_dftd3 mctc-lib tblite tblite_g
 CP2K|            xtb
 CP2K| is freely available from                            https://www.cp2k.org/
 CP2K| Program compiled at                                   2026-07-18 23:48:15
 CP2K| Program compiled on                                                 terok
 CP2K| Program compiled for                                               x86_64
 CP2K| Data directory path                            /usr/local/share/cp2k/data
 CP2K| Input file name        /home/kuehne88/work/h2o-molecular-limit-fix-202607

 GLOBAL| Force Environment number                                              1
 GLOBAL| Basis set file name                                           BASIS_SET
 GLOBAL| Potential file name                                           POTENTIAL
 GLOBAL| MM Potential file name                                     MM_POTENTIAL
 GLOBAL| Coordinate file name                                      __STD_INPUT__
 GLOBAL| Method name                                                        CP2K
 GLOBAL| Project name                                             H2O_stress_L80
 GLOBAL| Run type                                                          DEBUG
 GLOBAL| FFT library                                                       FFTW3
 GLOBAL| Diagonalization library                                       ScaLAPACK
 GLOBAL| Cholesky decomposition library                                ScaLAPACK
 GLOBAL| DGEMM library                                                      BLAS
 GLOBAL| Direct generalized diagonalization requested                          F
 GLOBAL| Orthonormality check for eigenvectors                          DISABLED
 GLOBAL| Matrix multiplication library                                 ScaLAPACK
 GLOBAL| All-to-all communication in single precision                          F
 GLOBAL| FFTs using library dependent lengths                                  F
 GLOBAL| Grid backend                                                       AUTO
 GLOBAL| Global print level                                               MEDIUM
 GLOBAL| MPI I/O enabled                                                       T
 GLOBAL| Total number of message passing processes                             1
 GLOBAL| Number of distributed systems (nodes)                                 1
 GLOBAL| Number of threads for this process                                    1
 GLOBAL| This output is from process                                           0
 GLOBAL| OpenMP stack size per thread (OMP_STACKSIZE)                    default
 GLOBAL| CPU model name                                       AMD EPYC Processor
 GLOBAL| CPUID                                                              1002

 MEMORY| system memory details [Kb]
 MEMORY|                        rank 0           min           max       average
 MEMORY| MemTotal            528104804     528104804     528104804     528104804
 MEMORY| MemFree             507981972     507981972     507981972     507981972
 MEMORY| Buffers                    20            20            20            20
 MEMORY| Cached               15191712      15191712      15191712      15191712
 MEMORY| Slab                  2492992       2492992       2492992       2492992
 MEMORY| SReclaimable          1120056       1120056       1120056       1120056
 MEMORY| MemLikelyFree       524293760     524293760     524293760     524293760


 *** WARNING in environment.F:1098 :: FFT library FFTW3 is not available. ***
 *** Trying FFT library FFTSG.                                            ***


 *** Fundamental physical constants (SI units) ***

 *** Literature: B. J. Mohr and B. N. Taylor,
 ***             CODATA recommended values of the fundamental physical
 ***             constants: 2006, Web Version 5.1
 ***             http://physics.nist.gov/constants

 Speed of light in vacuum [m/s]                             2.99792458000000E+08
 Magnetic constant or permeability of vacuum [N/A**2]       1.25663706143592E-06
 Electric constant or permittivity of vacuum [F/m]          8.85418781762039E-12
 Planck constant (h) [J*s]                                  6.62606896000000E-34
 Planck constant (h-bar) [J*s]                              1.05457162825177E-34
 Elementary charge [C]                                      1.60217648700000E-19
 Electron mass [kg]                                         9.10938215000000E-31
 Electron g factor [ ]                                     -2.00231930436220E+00
 Proton mass [kg]                                           1.67262163700000E-27
 Fine-structure constant                                    7.29735253760000E-03
 Rydberg constant [1/m]                                     1.09737315685270E+07
 Avogadro constant [1/mol]                                  6.02214179000000E+23
 Boltzmann constant [J/K]                                   1.38065040000000E-23
 Atomic mass unit [kg]                                      1.66053878200000E-27
 Bohr radius [m]                                            5.29177208590000E-11

 *** Conversion factors ***

 [u] -> [a.u.]                                              1.82288848426455E+03
 [Angstrom] -> [Bohr] = [a.u.]                              1.88972613288564E+00
 [a.u.] = [Bohr] -> [Angstrom]                              5.29177208590000E-01
 [a.u.] -> [s]                                              2.41888432650478E-17
 [a.u.] -> [fs]                                             2.41888432650478E-02
 [a.u.] -> [J]                                              4.35974393937059E-18
 [a.u.] -> [N]                                              8.23872205491840E-08
 [a.u.] -> [K]                                              3.15774647902944E+05
 [a.u.] -> [kJ/mol]                                         2.62549961709828E+03
 [a.u.] -> [kcal/mol]                                       6.27509468713739E+02
 [a.u.] -> [Pa]                                             2.94210107994716E+13
 [a.u.] -> [bar]                                            2.94210107994716E+08
 [a.u.] -> [atm]                                            2.90362800883016E+08
 [a.u.] -> [eV]                                             2.72113838565563E+01
 [a.u.] -> [Hz]                                             6.57968392072181E+15
 [a.u.] -> [1/cm] (wave numbers)                            2.19474631370540E+05
 [a.u./Bohr**2] -> [1/cm]                                   5.14048714338585E+03
 

 CELL| Volume [angstrom^3]:                                        512000.000000
 CELL| Vector a [angstrom]:      80.000     0.000     0.000   |a| =    80.000000
 CELL| Vector b [angstrom]:       0.000    80.000     0.000   |b| =    80.000000
 CELL| Vector c [angstrom]:       0.000     0.000    80.000   |c| =    80.000000
 CELL| Angle (b,c), alpha [degree]:                                    90.000000
 CELL| Angle (a,c), beta  [degree]:                                    90.000000
 CELL| Angle (a,b), gamma [degree]:                                    90.000000
 CELL| Numerically orthorhombic:                                             YES
 CELL| Periodicity                                                           XYZ

 CELL_REF| Volume [angstrom^3]:                                    512000.000000
 CELL_REF| Vector a [angstrom    80.000     0.000     0.000   |a| =    80.000000
 CELL_REF| Vector b [angstrom     0.000    80.000     0.000   |b| =    80.000000
 CELL_REF| Vector c [angstrom     0.000     0.000    80.000   |c| =    80.000000
 CELL_REF| Angle (b,c), alpha [degree]:                                90.000000
 CELL_REF| Angle (a,c), beta  [degree]:                                90.000000
 CELL_REF| Angle (a,b), gamma [degree]:                                90.000000
 CELL_REF| Numerically orthorhombic:                                         YES
 CELL_REF| Periodicity                                                       XYZ

 GENERATE|  Preliminary Number of Bonds generated:                             0
 GENERATE|  Achieved consistency in connectivity generation.


                  #####   #####        #     #   #     #       #          
                 #     # #     #      #    ##### #     #   # #####  ####  
                 #     # #           #       #   ###   #       #   #    # 
                 #     #  #####     #        #   #  #  #   #   #   ###### 
                 #   # #       #   #         #   #   # #   #   #   #      
                 #    #  #     #  #          #   #  #  # # #   #    #   # 
                  #### #  #####  #           #   ###   ##  #   #     ###  

                                     g-xTB   
                                 Version 0.0                       
                            Johann V. Pototschnig                  

                tblite provider: SAVE
                tblite source revision: 15915c9435644eb257178ca8f8bf7220c38b1a84
                g-xTB support: enabled

 xTB| Parameter file                                             xTB1_parameters
 xTB| Basis expansion STO-NG                                                   6
 xTB| Basis expansion STO-NG for Hydrogen                                      4
 xTB| Repulsive pair potential accuracy                               0.1000E-09
 xTB| Repulsive enhancement factor                                      0.000000
 xTB| Halogen interaction potential                                            T
 xTB| Halogen interaction potential cutoff radius                         20.000
 xTB| Nonbonded interactions                                                   F
 xTB| vdW potential type:                                              DFTD3(BJ)
 xTB| D3 Dispersion: Parameter                                         dftd3.dat
 xTB| Huckel constants ks kp kd                        1.850     2.250     2.000
 xTB| Huckel constants ksp k2sh                                  2.080     2.850
 xTB| Mataga-Nishimoto exponent                                            2.000
 xTB| Repulsion potential exponent                                         1.500
 xTB| Coordination number scaling kcn(s) kcn(p) kc     0.006    -0.003    -0.005
 xTB| Electronegativity scaling                                           -0.007
 xTB| Halogen potential scaling kxr kx2                          1.300     0.440
 xTB| SCC mixer:                                                       TBLITE
 xTB| tblite accuracy:                                                 1.000E-01
 xTB| tblite SCC mixer damping:                                            0.400
 xTB| tblite SCC mixer iterations:                                           300
 xTB| tblite SCC mixer memory:                                               300
 xTB| tblite SCC mixer solver:                                         GVD
 xTB| tblite SCC mixer omega0:                                         1.000E-02
 xTB| tblite SCC mixer min weight:                                     1.000E+00
 xTB| tblite SCC mixer max weight:                                     1.000E+05
 xTB| tblite SCC mixer weight factor:                                  1.000E-02




 ATOMIC KIND INFORMATION

  1. Atomic kind: H                                     Number of atoms:       2

     Orbital Basis Set                                                 H _STO-8G

       Number of orbital shell sets:                                           1
       Number of orbital shells:                                               1
       Number of primitive Cartesian functions:                                8
       Number of Cartesian basis functions:                                    1
       Number of spherical basis functions:                                    1
       Norm type:                                                              3

       Normalised Cartesian orbitals:

                        Set   Shell   Orbital            Exponent    Coefficient

                          1       1    1s              337.005012       0.037374
                                                        53.310531       0.063272
                                                        12.208253       0.115774
                                                         3.418827       0.175156
                                                         1.108790       0.218995
                                                         0.478718       0.126311
                                                         0.212137       0.088533
                                                         0.069058       0.001978

     AE Potential information for                                       Hydrogen

       Description:                                       Bare Coulomb Potential
                                                              Full atomic charge

       Gaussian exponent of the core charge distribution:              12.500000
       Electronic configuration (s p d ...):                       1   0   0   0

  2. Atomic kind: O                                     Number of atoms:       1

     Orbital Basis Set                                                 O _STO-6G

       Number of orbital shell sets:                                           2
       Number of orbital shells:                                               2
       Number of primitive Cartesian functions:                               12
       Number of Cartesian basis functions:                                    4
       Number of spherical basis functions:                                    4
       Norm type:                                                              3

       Normalised Cartesian orbitals:

                        Set   Shell   Orbital            Exponent    Coefficient

                          1       1    1s                3.483595      -1.312778
                                                         2.859866       1.114640
                                                         0.740681       0.294469
                                                         0.344927       0.081374
                                                         0.261979       0.039450
                                                         0.094616       0.012404

                          2       1    2px              37.641471       1.473846
                                                         9.713089       1.793230
                                                         3.137177       1.302657
                                                         1.121381       0.632971
                                                         0.398078       0.183037
                                                         0.123048       0.019201
                          2       1    2py              37.641471       1.473846
                                                         9.713089       1.793230
                                                         3.137177       1.302657
                                                         1.121381       0.632971
                                                         0.398078       0.183037
                                                         0.123048       0.019201
                          2       1    2pz              37.641471       1.473846
                                                         9.713089       1.793230
                                                         3.137177       1.302657
                                                         1.121381       0.632971
                                                         0.398078       0.183037
                                                         0.123048       0.019201

     AE Potential information for                                         Oxygen

       Description:                                       Bare Coulomb Potential
                                                             Valence charge only

       Gaussian exponent of the core charge distribution:               3.753049
       Electronic configuration (s p d ...):                       2   4   0   0


 MOLECULE KIND INFORMATION


 All atoms are their own molecule, skipping detailed information


 TOTAL NUMBERS AND MAXIMUM NUMBERS

  Total number of            - Atomic kinds:                                   2
                             - Atoms:                                          3
                             - Shell sets:                                     4
                             - Shells:                                         4
                             - Primitive Cartesian functions:                 28
                             - Cartesian basis functions:                      6
                             - Spherical basis functions:                      6

  Maximum angular momentum of the orbital basis functions:                     1


 MODULE QUICKSTEP: ATOMIC COORDINATES IN ANGSTROM

   Atom Kind Element         X             Y             Z       Z(eff)     Mass
      1    1 H     1     -0.012165      0.000000     -0.932352   1.0000   1.0079
      2    1 H     1      0.875098      0.000000      0.321998   1.0000   1.0079
      3    2 O     8     -0.054364      0.000000      0.038451   6.0000  15.9994



 SCF PARAMETERS         Density guess:                                     MOPAC
                        --------------------------------------------------------
                        max_scf:                                             300
                        max_scf_history:                                       0
                        max_diis:                                              4
                        --------------------------------------------------------
                        eps_scf:                                        1.00E-10
                        eps_scf_history:                                0.00E+00
                        eps_diis:                                       1.00E-01
                        eps_eigval:                                     1.00E-05
                        --------------------------------------------------------
                        level_shift [a.u.]:                             0.000000
                        added MOs                                         2    0
                        --------------------------------------------------------
                        Mixing method:                           DIRECT_P_MIXING
                        --------------------------------------------------------
                        No outer SCF

 PW_GRID| Information for grid number                                          1
 PW_GRID| Cutoff [a.u.]                                                      1.0
 PW_GRID| spherical cutoff:                                                   NO
 PW_GRID|   Bounds   1            -36      35                Points:          72
 PW_GRID|   Bounds   2            -36      35                Points:          72
 PW_GRID|   Bounds   3            -36      35                Points:          72
 PW_GRID| Volume element (a.u.^3)   9.257         Volume (a.u.^3)   3455147.3065
 PW_GRID| Grid span                                                    FULLSPACE

 POISSON| Solver                                                        PERIODIC
 POISSON| Periodicity                                                        XYZ

 RS_GRID| Information for grid number                                          1
 RS_GRID|   Bounds   1            -36      35                Points:          72
 RS_GRID|   Bounds   2            -36      35                Points:          72
 RS_GRID|   Bounds   3            -36      35                Points:          72

 Extrapolation method: initial_guess

 Number of electrons:                                                          8
 Number of occupied orbitals:                                                  4
 Number of molecular orbitals:                                                 6

 Number of orbital functions:                                                  6
 Number of independent orbital functions:                                      6


 SCF WAVEFUNCTION OPTIMIZATION

  Step     Update method      Time    Convergence         Total energy    Change
  ------------------------------------------------------------------------------
     1 GXTB-Raw    0.10E+01    0.0     0.73255846       -76.4105049197 -7.64E+01
     2 GXTB-Simple 0.20E+00    0.0     0.05394987       -76.4238252108 -1.33E-02
     3 GXTB-Simple 0.20E+00    0.0     0.03724891       -76.4305256460 -6.70E-03
     4 GXTB-FDIIS  0.10E+01    0.0     0.07301870       -76.4373351918 -6.81E-03
     5 GXTB-FDIIS  0.10E+01    0.0     0.00610111       -76.4373849490 -4.98E-05
     6 GXTB-FDIIS  0.10E+01    0.0     0.00107402       -76.4373854912 -5.42E-07
     7 GXTB-FDIIS  0.10E+01    0.0     0.00005978       -76.4373854931 -1.87E-09
     8 GXTB-FDIIS  0.10E+01    0.0     0.00000380       -76.4373854931 -8.84E-12
     9 GXTB-FDIIS  0.10E+01    0.0     0.00000007       -76.4373854931 -1.42E-14
    10 GXTB-FDIIS  0.10E+01    0.0     0.00000022       -76.4373854931 -2.84E-14
    11 GXTB-FDIIS  0.10E+01    0.0     8.5152E-11       -76.4373854931  0.00E+00

  *** SCF run converged in    11 steps ***


  Core Hamiltonian energy:                                     -6.22697033470311
  Repulsive potential energy:                                   0.31827254577067
  Electrostatic energy:                                         0.14234031713436
  Self-consistent dispersion energy:                           -0.00004482578498
  Non-self consistent dispersion energy:                        0.00000029898137
  Correction for halogen bonding:                               0.00000000000000

  Total energy:                                               -76.43738549312393


 MULLIKEN POPULATION ANALYSIS

  # Atom   Element   Kind        Atomic population                    Net charge
       1     H          1                 0.685484                      0.314516
       2     H          1                 0.685486                      0.314514
       3     O          2                 6.629029                     -0.629029
 # Total charge                           8.000000                     -0.000000


 tblite reference CLI check
 Executable: tblite
 Method:     gxtb
 Guess:      auto
 Solver:     gvd
 Spin-pol.:  F
 Grad file:  H2O_stress_L80_cli.grad
 JSON file:  H2O_stress_L80_cli.json
 Log file:   H2O_stress_L80_cli.log
 Energy CP2K/CLI/absdiff:   -7.643738549312E+01   -7.643738549326E+01    1.366800006508E-10
 Gradient diff sum/max:    1.323110623252E-07    3.688530752187E-08
 Virial diff sum/max:    1.151710811854E-07    5.547586106290E-08

 ENERGY| Total FORCE_EVAL ( QS ) energy [hartree]            -76.437385493123926

 -------------------------------------------------------------------------------
 ----                             MULTIGRID INFO                            ----
 -------------------------------------------------------------------------------
 total grid count     :           420              cutoff [a.u.]            1.00

 PW_GRID| Information for grid number                                          2
 PW_GRID| Cutoff [a.u.]                                                      1.0
 PW_GRID| spherical cutoff:                                                   NO
 PW_GRID|   Bounds   1            -36      35                Points:          72
 PW_GRID|   Bounds   2            -36      35                Points:          72
 PW_GRID|   Bounds   3            -36      35                Points:          72
 PW_GRID| Volume element (a.u.^3)   9.257         Volume (a.u.^3)   3455149.5920
 PW_GRID| Grid span                                                    FULLSPACE

 POISSON| Solver                                                        PERIODIC
 POISSON| Periodicity                                                        XYZ

 RS_GRID| Information for grid number                                          2
 RS_GRID|   Bounds   1            -36      35                Points:          72
 RS_GRID|   Bounds   2            -36      35                Points:          72
 RS_GRID|   Bounds   3            -36      35                Points:          72

 Parameters for the always stable predictor-corrector (ASPC) method:

  ASPC order: 0

  B(1) =   1.000000

 Extrapolation method: ASPC

 Number of electrons:                                                          8
 Number of occupied orbitals:                                                  4
 Number of molecular orbitals:                                                 6

 Number of orbital functions:                                                  6
 Number of independent orbital functions:                                      6


 SCF WAVEFUNCTION OPTIMIZATION

  Step     Update method      Time    Convergence         Total energy    Change
  ------------------------------------------------------------------------------
     1 GXTB-Raw    0.10E+01    0.0     0.00000023       -76.4373854827 -7.64E+01
     2 GXTB-Simple 0.20E+00    0.0     0.00000005       -76.4373854827  0.00E+00
     3 GXTB-Simple 0.20E+00    0.0     0.00000004       -76.4373854827  0.00E+00
     4 GXTB-FDIIS  0.10E+01    0.0     0.00000018       -76.4373854827 -1.42E-14
     5 GXTB-FDIIS  0.10E+01    0.0     6.9826E-09       -76.4373854827  0.00E+00
     6 GXTB-FDIIS  0.10E+01    0.0     4.9004E-09       -76.4373854827  0.00E+00
     7 GXTB-FDIIS  0.10E+01    0.0     1.4834E-10       -76.4373854827  0.00E+00
     8 GXTB-FDIIS  0.10E+01    0.0     1.6569E-11       -76.4373854827  0.00E+00

  *** SCF run converged in     8 steps ***


  Core Hamiltonian energy:                                     -6.22696991707856
  Repulsive potential energy:                                   0.31827214790321
  Electrostatic energy:                                         0.14234031886965
  Self-consistent dispersion energy:                           -0.00004482582027
  Non-self consistent dispersion energy:                        0.00000029898192
  Correction for halogen bonding:                               0.00000000000000

  Total energy:                                               -76.43738548266705


 MULLIKEN POPULATION ANALYSIS

  # Atom   Element   Kind        Atomic population                    Net charge
       1     H          1                 0.685484                      0.314516
       2     H          1                 0.685486                      0.314514
       3     O          2                 6.629029                     -0.629029
 # Total charge                           8.000000                      0.000000


 tblite reference CLI check
 Executable: tblite
 Method:     gxtb
 Guess:      auto
 Solver:     gvd
 Spin-pol.:  F
 Grad file:  H2O_stress_L80_cli.grad
 JSON file:  H2O_stress_L80_cli.json
 Log file:   H2O_stress_L80_cli.log
 Energy CP2K/CLI/absdiff:   -7.643738548267E+01   -7.643738548280E+01    1.366800006508E-10
 Gradient diff sum/max:    1.220945210668E-06    4.427690675924E-07
 Virial diff sum/max:    3.214826395923E-02    1.580887085856E-02
 tblite reference CLI deviation exceeded ERROR_LIMIT =   1.0000E-05

 ENERGY| Total FORCE_EVAL ( QS ) energy [hartree]            -76.437385482667054

 -------------------------------------------------------------------------------
 ----                             MULTIGRID INFO                            ----
 -------------------------------------------------------------------------------
 total grid count     :           420              cutoff [a.u.]            1.00

 PW_GRID| Information for grid number                                          3
 PW_GRID| Cutoff [a.u.]                                                      1.0
 PW_GRID| spherical cutoff:                                                   NO
 PW_GRID|   Bounds   1            -36      35                Points:          72
 PW_GRID|   Bounds   2            -36      35                Points:          72
 PW_GRID|   Bounds   3            -36      35                Points:          72
 PW_GRID| Volume element (a.u.^3)   9.257         Volume (a.u.^3)   3455145.0211
 PW_GRID| Grid span                                                    FULLSPACE

 POISSON| Solver                                                        PERIODIC
 POISSON| Periodicity                                                        XYZ

 RS_GRID| Information for grid number                                          3
 RS_GRID|   Bounds   1            -36      35                Points:          72
 RS_GRID|   Bounds   2            -36      35                Points:          72
 RS_GRID|   Bounds   3            -36      35                Points:          72

 Parameters for the always stable predictor-corrector (ASPC) method:

  ASPC order: 0

  B(1) =   2.000000
  B(2) =  -1.000000

 Extrapolation method: ASPC

 Number of electrons:                                                          8
 Number of occupied orbitals:                                                  4
 Number of molecular orbitals:                                                 6

 Number of orbital functions:                                                  6
 Number of independent orbital functions:                                      6


 SCF WAVEFUNCTION OPTIMIZATION

  Step     Update method      Time    Convergence         Total energy    Change
  ------------------------------------------------------------------------------
     1 GXTB-Raw    0.10E+01    0.0     0.00000046       -76.4373855036 -7.64E+01
     2 GXTB-Simple 0.20E+00    0.0     0.00000009       -76.4373855036 -1.42E-14
     3 GXTB-Simple 0.20E+00    0.0     0.00000008       -76.4373855036 -2.84E-14
     4 GXTB-FDIIS  0.10E+01    0.0     0.00000036       -76.4373855036 -4.26E-14
     5 GXTB-FDIIS  0.10E+01    0.0     0.00000001       -76.4373855036  0.00E+00
     6 GXTB-FDIIS  0.10E+01    0.0     9.8009E-09       -76.4373855036  0.00E+00
     7 GXTB-FDIIS  0.10E+01    0.0     2.9667E-10       -76.4373855036  0.00E+00
     8 GXTB-FDIIS  0.10E+01    0.0     3.3138E-11       -76.4373855036  0.00E+00

  *** SCF run converged in     8 steps ***


  Core Hamiltonian energy:                                     -6.22697075233523
  Repulsive potential energy:                                   0.31827294363896
  Electrostatic energy:                                         0.14234031540336
  Self-consistent dispersion energy:                           -0.00004482574969
  Non-self consistent dispersion energy:                        0.00000029898082
  Correction for halogen bonding:                               0.00000000000000

  Total energy:                                               -76.43738550358024


 MULLIKEN POPULATION ANALYSIS

  # Atom   Element   Kind        Atomic population                    Net charge
       1     H          1                 0.685484                      0.314516
       2     H          1                 0.685486                      0.314514
       3     O          2                 6.629029                     -0.629029
 # Total charge                           8.000000                      0.000000


 tblite reference CLI check
 Executable: tblite
 Method:     gxtb
 Guess:      auto
 Solver:     gvd
 Spin-pol.:  F
 Grad file:  H2O_stress_L80_cli.grad
 JSON file:  H2O_stress_L80_cli.json
 Log file:   H2O_stress_L80_cli.log
 Energy CP2K/CLI/absdiff:   -7.643738550358E+01   -7.643738550372E+01    1.366800006508E-10
 Gradient diff sum/max:    1.313868643131E-06    5.131229261473E-07
 Virial diff sum/max:    3.214742207728E-02    1.580718889454E-02
 tblite reference CLI deviation exceeded ERROR_LIMIT =   1.0000E-05

 ENERGY| Total FORCE_EVAL ( QS ) energy [hartree]            -76.437385503580245

 -------------------------------------------------------------------------------
 ----                             MULTIGRID INFO                            ----
 -------------------------------------------------------------------------------
 total grid count     :           420              cutoff [a.u.]            1.00

 PW_GRID| Information for grid number                                          4
 PW_GRID| Cutoff [a.u.]                                                      1.0
 PW_GRID| spherical cutoff:                                                   NO
 PW_GRID|   Bounds   1            -36      35                Points:          72
 PW_GRID|   Bounds   2            -36      35                Points:          72
 PW_GRID|   Bounds   3            -36      35                Points:          72
 PW_GRID| Volume element (a.u.^3)   9.257         Volume (a.u.^3)   3455147.3065
 PW_GRID| Grid span                                                    FULLSPACE

 POISSON| Solver                                                        PERIODIC
 POISSON| Periodicity                                                        XYZ

 RS_GRID| Information for grid number                                          4
 RS_GRID|   Bounds   1            -36      35                Points:          72
 RS_GRID|   Bounds   2            -36      35                Points:          72
 RS_GRID|   Bounds   3            -36      35                Points:          72

 Parameters for the always stable predictor-corrector (ASPC) method:

  ASPC order: 1

  B(1) =   2.500000
  B(2) =  -2.000000
  B(3) =   0.500000

 Extrapolation method: ASPC

 Number of electrons:                                                          8
 Number of occupied orbitals:                                                  4
 Number of molecular orbitals:                                                 6

 Number of orbital functions:                                                  6
 Number of independent orbital functions:                                      6


 SCF WAVEFUNCTION OPTIMIZATION

  Step     Update method      Time    Convergence         Total energy    Change
  ------------------------------------------------------------------------------
     1 GXTB-Raw    0.10E+01    0.0     0.00000023       -76.4373854931 -7.64E+01
     2 GXTB-Simple 0.20E+00    0.0     0.00000005       -76.4373854931 -2.84E-14
     3 GXTB-Simple 0.20E+00    0.0     0.00000004       -76.4373854931  0.00E+00
     4 GXTB-FDIIS  0.10E+01    0.0     0.00000018       -76.4373854931 -1.42E-14
     5 GXTB-FDIIS  0.10E+01    0.0     6.9828E-09       -76.4373854931  1.42E-14
     6 GXTB-FDIIS  0.10E+01    0.0     4.9005E-09       -76.4373854931 -1.42E-14
     7 GXTB-FDIIS  0.10E+01    0.0     1.4834E-10       -76.4373854931  1.42E-14
     8 GXTB-FDIIS  0.10E+01    0.0     1.6569E-11       -76.4373854931 -1.42E-14

  *** SCF run converged in     8 steps ***


  Core Hamiltonian energy:                                     -6.22697033470673
  Repulsive potential energy:                                   0.31827254577064
  Electrostatic energy:                                         0.14234031713649
  Self-consistent dispersion energy:                           -0.00004482578498
  Non-self consistent dispersion energy:                        0.00000029898137
  Correction for halogen bonding:                               0.00000000000000

  Total energy:                                               -76.43738549312393


 MULLIKEN POPULATION ANALYSIS

  # Atom   Element   Kind        Atomic population                    Net charge
       1     H          1                 0.685484                      0.314516
       2     H          1                 0.685486                      0.314514
       3     O          2                 6.629029                     -0.629029
 # Total charge                           8.000000                      0.000000


 tblite reference CLI check
 Executable: tblite
 Method:     gxtb
 Guess:      auto
 Solver:     gvd
 Spin-pol.:  F
 Grad file:  H2O_stress_L80_cli.grad
 JSON file:  H2O_stress_L80_cli.json
 Log file:   H2O_stress_L80_cli.log
 Energy CP2K/CLI/absdiff:   -7.643738549312E+01   -7.643738549326E+01    1.366800006508E-10
 Gradient diff sum/max:    1.323114407027E-07    3.688530733799E-08
 Virial diff sum/max:    3.214784301967E-02    1.580802987740E-02
 tblite reference CLI deviation exceeded ERROR_LIMIT =   1.0000E-05

 ENERGY| Total FORCE_EVAL ( QS ) energy [hartree]            -76.437385493123926

 -------------------------------------------------------------------------------
 ----                             MULTIGRID INFO                            ----
 -------------------------------------------------------------------------------
 total grid count     :           420              cutoff [a.u.]            1.00

 PW_GRID| Information for grid number                                          5
 PW_GRID| Cutoff [a.u.]                                                      1.0
 PW_GRID| spherical cutoff:                                                   NO
 PW_GRID|   Bounds   1            -36      35                Points:          72
 PW_GRID|   Bounds   2            -36      35                Points:          72
 PW_GRID|   Bounds   3            -36      35                Points:          72
 PW_GRID| Volume element (a.u.^3)   9.257         Volume (a.u.^3)   3455147.3065
 PW_GRID| Grid span                                                    FULLSPACE

 POISSON| Solver                                                        PERIODIC
 POISSON| Periodicity                                                        XYZ

 RS_GRID| Information for grid number                                          5
 RS_GRID|   Bounds   1            -36      35                Points:          72
 RS_GRID|   Bounds   2            -36      35                Points:          72
 RS_GRID|   Bounds   3            -36      35                Points:          72

 Parameters for the always stable predictor-corrector (ASPC) method:

  ASPC order: 2

  B(1) =   2.800000
  B(2) =  -2.800000
  B(3) =   1.200000
  B(4) =  -0.200000

 Extrapolation method: ASPC

 Number of electrons:                                                          8
 Number of occupied orbitals:                                                  4
 Number of molecular orbitals:                                                 6

 Number of orbital functions:                                                  6
 Number of independent orbital functions:                                      6


 SCF WAVEFUNCTION OPTIMIZATION

  Step     Update method      Time    Convergence         Total energy    Change
  ------------------------------------------------------------------------------
     1 GXTB-Raw    0.10E+01    0.0     3.3121E-13       -76.4373854931 -7.64E+01

  *** SCF run converged in     1 steps ***


  Core Hamiltonian energy:                                     -6.22697033470674
  Repulsive potential energy:                                   0.31827254577064
  Electrostatic energy:                                         0.14234031713650
  Self-consistent dispersion energy:                           -0.00004482578498
  Non-self consistent dispersion energy:                        0.00000029898137
  Correction for halogen bonding:                               0.00000000000000

  Total energy:                                               -76.43738549312393


 MULLIKEN POPULATION ANALYSIS

  # Atom   Element   Kind        Atomic population                    Net charge
       1     H          1                 0.685484                      0.314516
       2     H          1                 0.685486                      0.314514
       3     O          2                 6.629029                     -0.629029
 # Total charge                           8.000000                     -0.000000


 tblite reference CLI check
 Executable: tblite
 Method:     gxtb
 Guess:      auto
 Solver:     gvd
 Spin-pol.:  F
 Grad file:  H2O_stress_L80_cli.grad
 JSON file:  H2O_stress_L80_cli.json
 Log file:   H2O_stress_L80_cli.log
 Energy CP2K/CLI/absdiff:   -7.643738549312E+01   -7.643738549326E+01    1.366800006508E-10
 Gradient diff sum/max:    1.323114409234E-07    3.688530733799E-08
 Virial diff sum/max:    3.214784301967E-02    1.580802987740E-02
 tblite reference CLI deviation exceeded ERROR_LIMIT =   1.0000E-05

 ENERGY| Total FORCE_EVAL ( QS ) energy [hartree]            -76.437385493123926

 -------------------------------------------------------------------------------
 ----                             MULTIGRID INFO                            ----
 -------------------------------------------------------------------------------
 total grid count     :           420              cutoff [a.u.]            1.00

 PW_GRID| Information for grid number                                          6
 PW_GRID| Cutoff [a.u.]                                                      1.0
 PW_GRID| spherical cutoff:                                                   NO
 PW_GRID|   Bounds   1            -36      35                Points:          72
 PW_GRID|   Bounds   2            -36      35                Points:          72
 PW_GRID|   Bounds   3            -36      35                Points:          72
 PW_GRID| Volume element (a.u.^3)   9.257         Volume (a.u.^3)   3455147.3065
 PW_GRID| Grid span                                                    FULLSPACE

 POISSON| Solver                                                        PERIODIC
 POISSON| Periodicity                                                        XYZ

 RS_GRID| Information for grid number                                          6
 RS_GRID|   Bounds   1            -36      35                Points:          72
 RS_GRID|   Bounds   2            -36      35                Points:          72
 RS_GRID|   Bounds   3            -36      35                Points:          72

 Parameters for the always stable predictor-corrector (ASPC) method:

  ASPC order: 3

  B(1) =   3.000000
  B(2) =  -3.428571
  B(3) =   1.928571
  B(4) =  -0.571429
  B(5) =   0.071429

 Extrapolation method: ASPC

 Number of electrons:                                                          8
 Number of occupied orbitals:                                                  4
 Number of molecular orbitals:                                                 6

 Number of orbital functions:                                                  6
 Number of independent orbital functions:                                      6


 SCF WAVEFUNCTION OPTIMIZATION

  Step     Update method      Time    Convergence         Total energy    Change
  ------------------------------------------------------------------------------
     1 GXTB-Raw    0.10E+01    0.0     0.00000010       -76.4373854934 -7.64E+01
     2 GXTB-Simple 0.20E+00    0.0     0.00000004       -76.4373854934  0.00E+00
     3 GXTB-Simple 0.20E+00    0.0     0.00000003       -76.4373854934  0.00E+00
     4 GXTB-FDIIS  0.10E+01    0.0     0.00000015       -76.4373854934 -1.42E-14
     5 GXTB-FDIIS  0.10E+01    0.0     5.7464E-09       -76.4373854934  0.00E+00
     6 GXTB-FDIIS  0.10E+01    0.0     8.7526E-10       -76.4373854934  0.00E+00
     7 GXTB-FDIIS  0.10E+01    0.0     1.1330E-10       -76.4373854934  0.00E+00
     8 GXTB-FDIIS  0.10E+01    0.0     1.0855E-11       -76.4373854934  0.00E+00

  *** SCF run converged in     8 steps ***


  Core Hamiltonian energy:                                     -6.22697026854605
  Repulsive potential energy:                                   0.31827243859967
  Electrostatic energy:                                         0.14234033117976
  Self-consistent dispersion energy:                           -0.00004482580660
  Non-self consistent dispersion energy:                        0.00000029898086
  Correction for halogen bonding:                               0.00000000000000

  Total energy:                                               -76.43738549342025


 MULLIKEN POPULATION ANALYSIS

  # Atom   Element   Kind        Atomic population                    Net charge
       1     H          1                 0.685484                      0.314516
       2     H          1                 0.685486                      0.314514
       3     O          2                 6.629029                     -0.629029
 # Total charge                           8.000000                      0.000000


 tblite reference CLI check
 Executable: tblite
 Method:     gxtb
 Guess:      auto
 Solver:     gvd
 Spin-pol.:  F
 Grad file:  H2O_stress_L80_cli.grad
 JSON file:  H2O_stress_L80_cli.json
 Log file:   H2O_stress_L80_cli.log
 Energy CP2K/CLI/absdiff:   -7.643738549342E+01   -7.643738549356E+01    1.366942115055E-10
 Gradient diff sum/max:    4.882544385002E-07    1.308013392112E-07
 Virial diff sum/max:    3.214776099675E-02    1.580827635075E-02
 tblite reference CLI deviation exceeded ERROR_LIMIT =   1.0000E-05

 ENERGY| Total FORCE_EVAL ( QS ) energy [hartree]            -76.437385493420251

 -------------------------------------------------------------------------------
 ----                             MULTIGRID INFO                            ----
 -------------------------------------------------------------------------------
 total grid count     :           420              cutoff [a.u.]            1.00

 PW_GRID| Information for grid number                                          7
 PW_GRID| Cutoff [a.u.]                                                      1.0
 PW_GRID| spherical cutoff:                                                   NO
 PW_GRID|   Bounds   1            -36      35                Points:          72
 PW_GRID|   Bounds   2            -36      35                Points:          72
 PW_GRID|   Bounds   3            -36      35                Points:          72
 PW_GRID| Volume element (a.u.^3)   9.257         Volume (a.u.^3)   3455147.3065
 PW_GRID| Grid span                                                    FULLSPACE

 POISSON| Solver                                                        PERIODIC
 POISSON| Periodicity                                                        XYZ

 RS_GRID| Information for grid number                                          7
 RS_GRID|   Bounds   1            -36      35                Points:          72
 RS_GRID|   Bounds   2            -36      35                Points:          72
 RS_GRID|   Bounds   3            -36      35                Points:          72

 Parameters for the always stable predictor-corrector (ASPC) method:

  ASPC order: 3

  B(1) =   3.000000
  B(2) =  -3.428571
  B(3) =   1.928571
  B(4) =  -0.571429
  B(5) =   0.071429

 Extrapolation method: ASPC

 Number of electrons:                                                          8
 Number of occupied orbitals:                                                  4
 Number of molecular orbitals:                                                 6

 Number of orbital functions:                                                  6
 Number of independent orbital functions:                                      6


 SCF WAVEFUNCTION OPTIMIZATION

  Step     Update method      Time    Convergence         Total energy    Change
  ------------------------------------------------------------------------------
     1 GXTB-Raw    0.10E+01    0.0     0.00000020       -76.4373854928 -7.64E+01
     2 GXTB-Simple 0.20E+00    0.0     0.00000007       -76.4373854928 -1.42E-14
     3 GXTB-Simple 0.20E+00    0.0     0.00000006       -76.4373854928 -1.42E-14
     4 GXTB-FDIIS  0.10E+01    0.0     0.00000029       -76.4373854928 -4.26E-14
     5 GXTB-FDIIS  0.10E+01    0.0     0.00000001       -76.4373854928  0.00E+00
     6 GXTB-FDIIS  0.10E+01    0.0     1.7505E-09       -76.4373854928  1.42E-14
     7 GXTB-FDIIS  0.10E+01    0.0     2.2660E-10       -76.4373854928 -1.42E-14
     8 GXTB-FDIIS  0.10E+01    0.0     2.1713E-11       -76.4373854928  0.00E+00

  *** SCF run converged in     8 steps ***


  Core Hamiltonian energy:                                     -6.22697040086715
  Repulsive potential energy:                                   0.31827265294143
  Electrostatic energy:                                         0.14234030309329
  Self-consistent dispersion energy:                           -0.00004482576336
  Non-self consistent dispersion energy:                        0.00000029898188
  Correction for halogen bonding:                               0.00000000000000

  Total energy:                                               -76.43738549282747


 MULLIKEN POPULATION ANALYSIS

  # Atom   Element   Kind        Atomic population                    Net charge
       1     H          1                 0.685484                      0.314516
       2     H          1                 0.685486                      0.314514
       3     O          2                 6.629029                     -0.629029
 # Total charge                           8.000000                     -0.000000


 tblite reference CLI check
 Executable: tblite
 Method:     gxtb
 Guess:      auto
 Solver:     gvd
 Spin-pol.:  F
 Grad file:  H2O_stress_L80_cli.grad
 JSON file:  H2O_stress_L80_cli.json
 Log file:   H2O_stress_L80_cli.log
 Energy CP2K/CLI/absdiff:   -7.643738549283E+01   -7.643738549296E+01    1.366800006508E-10
 Gradient diff sum/max:    5.546299807788E-07    1.731637961667E-07
 Virial diff sum/max:    3.214792504079E-02    1.580778340405E-02
 tblite reference CLI deviation exceeded ERROR_LIMIT =   1.0000E-05

 ENERGY| Total FORCE_EVAL ( QS ) energy [hartree]            -76.437385492827474

 -------------------------------------------------------------------------------
 ----                             MULTIGRID INFO                            ----
 -------------------------------------------------------------------------------
 total grid count     :           420              cutoff [a.u.]            1.00

 PW_GRID| Information for grid number                                          8
 PW_GRID| Cutoff [a.u.]                                                      1.0
 PW_GRID| spherical cutoff:                                                   NO
 PW_GRID|   Bounds   1            -36      35                Points:          72
 PW_GRID|   Bounds   2            -36      35                Points:          72
 PW_GRID|   Bounds   3            -36      35                Points:          72
 PW_GRID| Volume element (a.u.^3)   9.257         Volume (a.u.^3)   3455147.3065
 PW_GRID| Grid span                                                    FULLSPACE

 POISSON| Solver                                                        PERIODIC
 POISSON| Periodicity                                                        XYZ

 RS_GRID| Information for grid number                                          8
 RS_GRID|   Bounds   1            -36      35                Points:          72
 RS_GRID|   Bounds   2            -36      35                Points:          72
 RS_GRID|   Bounds   3            -36      35                Points:          72

 Parameters for the always stable predictor-corrector (ASPC) method:

  ASPC order: 3

  B(1) =   3.000000
  B(2) =  -3.428571
  B(3) =   1.928571
  B(4) =  -0.571429
  B(5) =   0.071429

 Extrapolation method: ASPC

 Number of electrons:                                                          8
 Number of occupied orbitals:                                                  4
 Number of molecular orbitals:                                                 6

 Number of orbital functions:                                                  6
 Number of independent orbital functions:                                      6


 SCF WAVEFUNCTION OPTIMIZATION

  Step     Update method      Time    Convergence         Total energy    Change
  ------------------------------------------------------------------------------
     1 GXTB-Raw    0.10E+01    0.0     0.00000015       -76.4373854931 -7.64E+01
     2 GXTB-Simple 0.20E+00    0.0     0.00000006       -76.4373854931 -1.42E-14
     3 GXTB-Simple 0.20E+00    0.0     0.00000005       -76.4373854931 -1.42E-14
     4 GXTB-FDIIS  0.10E+01    0.0     0.00000025       -76.4373854931 -2.84E-14
     5 GXTB-FDIIS  0.10E+01    0.0     0.00000001       -76.4373854931  1.42E-14
     6 GXTB-FDIIS  0.10E+01    0.0     9.5012E-10       -76.4373854931  0.00E+00
     7 GXTB-FDIIS  0.10E+01    0.0     1.0153E-10       -76.4373854931 -1.42E-14
     8 GXTB-FDIIS  0.10E+01    0.0     3.3352E-11       -76.4373854931  1.42E-14

  *** SCF run converged in     8 steps ***


  Core Hamiltonian energy:                                     -6.22697033470653
  Repulsive potential energy:                                   0.31827254577052
  Electrostatic energy:                                         0.14234031713603
  Self-consistent dispersion energy:                           -0.00004482578498
  Non-self consistent dispersion energy:                        0.00000029898137
  Correction for halogen bonding:                               0.00000000000000

  Total energy:                                               -76.43738549312391


 MULLIKEN POPULATION ANALYSIS

  # Atom   Element   Kind        Atomic population                    Net charge
       1     H          1                 0.685484                      0.314516
       2     H          1                 0.685486                      0.314514
       3     O          2                 6.629029                     -0.629029
 # Total charge                           8.000000                      0.000000


 tblite reference CLI check
 Executable: tblite
 Method:     gxtb
 Guess:      auto
 Solver:     gvd
 Spin-pol.:  F
 Grad file:  H2O_stress_L80_cli.grad
 JSON file:  H2O_stress_L80_cli.json
 Log file:   H2O_stress_L80_cli.log
 Energy CP2K/CLI/absdiff:   -7.643738549312E+01   -7.643738549326E+01    1.366942115055E-10
 Gradient diff sum/max:    1.477968973485E-07    3.688514911560E-08
 Virial diff sum/max:    3.214786452346E-02    1.580802987767E-02
 tblite reference CLI deviation exceeded ERROR_LIMIT =   1.0000E-05

 ENERGY| Total FORCE_EVAL ( QS ) energy [hartree]            -76.437385493123912

 -------------------------------------------------------------------------------
 ----                             MULTIGRID INFO                            ----
 -------------------------------------------------------------------------------
 total grid count     :           420              cutoff [a.u.]            1.00

 PW_GRID| Information for grid number                                          9
 PW_GRID| Cutoff [a.u.]                                                      1.0
 PW_GRID| spherical cutoff:                                                   NO
 PW_GRID|   Bounds   1            -36      35                Points:          72
 PW_GRID|   Bounds   2            -36      35                Points:          72
 PW_GRID|   Bounds   3            -36      35                Points:          72
 PW_GRID| Volume element (a.u.^3)   9.257         Volume (a.u.^3)   3455147.3065
 PW_GRID| Grid span                                                    FULLSPACE

 POISSON| Solver                                                        PERIODIC
 POISSON| Periodicity                                                        XYZ

 RS_GRID| Information for grid number                                          9
 RS_GRID|   Bounds   1            -36      35                Points:          72
 RS_GRID|   Bounds   2            -36      35                Points:          72
 RS_GRID|   Bounds   3            -36      35                Points:          72

 Parameters for the always stable predictor-corrector (ASPC) method:

  ASPC order: 3

  B(1) =   3.000000
  B(2) =  -3.428571
  B(3) =   1.928571
  B(4) =  -0.571429
  B(5) =   0.071429

 Extrapolation method: ASPC

 Number of electrons:                                                          8
 Number of occupied orbitals:                                                  4
 Number of molecular orbitals:                                                 6

 Number of orbital functions:                                                  6
 Number of independent orbital functions:                                      6


 SCF WAVEFUNCTION OPTIMIZATION

  Step     Update method      Time    Convergence         Total energy    Change
  ------------------------------------------------------------------------------
     1 GXTB-Raw    0.10E+01    0.0     0.00000029       -76.4373854931 -7.64E+01
     2 GXTB-Simple 0.20E+00    0.0     0.00000012       -76.4373854931 -2.84E-14
     3 GXTB-Simple 0.20E+00    0.0     0.00000010       -76.4373854931 -2.84E-14
     4 GXTB-FDIIS  0.10E+01    0.0     0.00000051       -76.4373854931 -5.68E-14
     5 GXTB-FDIIS  0.10E+01    0.0     0.00000002       -76.4373854931  1.42E-14
     6 GXTB-FDIIS  0.10E+01    0.0     4.6170E-10       -76.4373854931 -1.42E-14
     7 GXTB-FDIIS  0.10E+01    0.0     5.4179E-14       -76.4373854931  1.42E-14

  *** SCF run converged in     7 steps ***


  Core Hamiltonian energy:                                     -6.22697033470660
  Repulsive potential energy:                                   0.31827254577051
  Electrostatic energy:                                         0.14234031713649
  Self-consistent dispersion energy:                           -0.00004482578498
  Non-self consistent dispersion energy:                        0.00000029898137
  Correction for halogen bonding:                               0.00000000000000

  Total energy:                                               -76.43738549312391


 MULLIKEN POPULATION ANALYSIS

  # Atom   Element   Kind        Atomic population                    Net charge
       1     H          1                 0.685484                      0.314516
       2     H          1                 0.685486                      0.314514
       3     O          2                 6.629029                     -0.629029
 # Total charge                           8.000000                      0.000000


 tblite reference CLI check
 Executable: tblite
 Method:     gxtb
 Guess:      auto
 Solver:     gvd
 Spin-pol.:  F
 Grad file:  H2O_stress_L80_cli.grad
 JSON file:  H2O_stress_L80_cli.json
 Log file:   H2O_stress_L80_cli.log
 Energy CP2K/CLI/absdiff:   -7.643738549312E+01   -7.643738549326E+01    1.366942115055E-10
 Gradient diff sum/max:    1.477968971277E-07    3.688514911560E-08
 Virial diff sum/max:    3.214786452346E-02    1.580802987767E-02
 tblite reference CLI deviation exceeded ERROR_LIMIT =   1.0000E-05

 ENERGY| Total FORCE_EVAL ( QS ) energy [hartree]            -76.437385493123912

 -------------------------------------------------------------------------------
 ----                             MULTIGRID INFO                            ----
 -------------------------------------------------------------------------------
 total grid count     :           420              cutoff [a.u.]            1.00

 PW_GRID| Information for grid number                                         10
 PW_GRID| Cutoff [a.u.]                                                      1.0
 PW_GRID| spherical cutoff:                                                   NO
 PW_GRID|   Bounds   1            -36      35                Points:          72
 PW_GRID|   Bounds   2            -36      35                Points:          72
 PW_GRID|   Bounds   3            -36      35                Points:          72
 PW_GRID| Volume element (a.u.^3)   9.257         Volume (a.u.^3)   3455149.5920
 PW_GRID| Grid span                                                    FULLSPACE

 POISSON| Solver                                                        PERIODIC
 POISSON| Periodicity                                                        XYZ

 RS_GRID| Information for grid number                                         10
 RS_GRID|   Bounds   1            -36      35                Points:          72
 RS_GRID|   Bounds   2            -36      35                Points:          72
 RS_GRID|   Bounds   3            -36      35                Points:          72

 Parameters for the always stable predictor-corrector (ASPC) method:

  ASPC order: 3

  B(1) =   3.000000
  B(2) =  -3.428571
  B(3) =   1.928571
  B(4) =  -0.571429
  B(5) =   0.071429

 Extrapolation method: ASPC

 Number of electrons:                                                          8
 Number of occupied orbitals:                                                  4
 Number of molecular orbitals:                                                 6

 Number of orbital functions:                                                  6
 Number of independent orbital functions:                                      6


 SCF WAVEFUNCTION OPTIMIZATION

  Step     Update method      Time    Convergence         Total energy    Change
  ------------------------------------------------------------------------------
     1 GXTB-Raw    0.10E+01    0.0     0.00000015       -76.4373854931 -7.64E+01
     2 GXTB-Simple 0.20E+00    0.0     0.00000006       -76.4373854931 -1.42E-14
     3 GXTB-Simple 0.20E+00    0.0     0.00000005       -76.4373854931  0.00E+00
     4 GXTB-FDIIS  0.10E+01    0.0     0.00000026       -76.4373854931 -1.42E-14
     5 GXTB-FDIIS  0.10E+01    0.0     9.9707E-09       -76.4373854931  0.00E+00
     6 GXTB-FDIIS  0.10E+01    0.0     2.3085E-10       -76.4373854931  0.00E+00
     7 GXTB-FDIIS  0.10E+01    0.0     3.0198E-14       -76.4373854931  0.00E+00

  *** SCF run converged in     7 steps ***


  Core Hamiltonian energy:                                     -6.22697033470701
  Repulsive potential energy:                                   0.31827254577064
  Electrostatic energy:                                         0.14234031713662
  Self-consistent dispersion energy:                           -0.00004482578498
  Non-self consistent dispersion energy:                        0.00000029898137
  Correction for halogen bonding:                               0.00000000000000

  Total energy:                                               -76.43738549312405


 MULLIKEN POPULATION ANALYSIS

  # Atom   Element   Kind        Atomic population                    Net charge
       1     H          1                 0.685484                      0.314516
       2     H          1                 0.685486                      0.314514
       3     O          2                 6.629029                     -0.629029
 # Total charge                           8.000000                      0.000000


 tblite reference CLI check
 Executable: tblite
 Method:     gxtb
 Guess:      auto
 Solver:     gvd
 Spin-pol.:  F
 Grad file:  H2O_stress_L80_cli.grad
 JSON file:  H2O_stress_L80_cli.json
 Log file:   H2O_stress_L80_cli.log
 Energy CP2K/CLI/absdiff:   -7.643738549312E+01   -7.643738549326E+01    1.366800006508E-10
 Gradient diff sum/max:    1.323115026085E-07    3.688547677884E-08
 Virial diff sum/max:    3.214784301697E-02    1.580802987700E-02
 tblite reference CLI deviation exceeded ERROR_LIMIT =   1.0000E-05

 ENERGY| Total FORCE_EVAL ( QS ) energy [hartree]            -76.437385493124054

 -------------------------------------------------------------------------------
 ----                             MULTIGRID INFO                            ----
 -------------------------------------------------------------------------------
 total grid count     :           420              cutoff [a.u.]            1.00

 PW_GRID| Information for grid number                                         11
 PW_GRID| Cutoff [a.u.]                                                      1.0
 PW_GRID| spherical cutoff:                                                   NO
 PW_GRID|   Bounds   1            -36      35                Points:          72
 PW_GRID|   Bounds   2            -36      35                Points:          72
 PW_GRID|   Bounds   3            -36      35                Points:          72
 PW_GRID| Volume element (a.u.^3)   9.257         Volume (a.u.^3)   3455145.0211
 PW_GRID| Grid span                                                    FULLSPACE

 POISSON| Solver                                                        PERIODIC
 POISSON| Periodicity                                                        XYZ

 RS_GRID| Information for grid number                                         11
 RS_GRID|   Bounds   1            -36      35                Points:          72
 RS_GRID|   Bounds   2            -36      35                Points:          72
 RS_GRID|   Bounds   3            -36      35                Points:          72

 Parameters for the always stable predictor-corrector (ASPC) method:

  ASPC order: 3

  B(1) =   3.000000
  B(2) =  -3.428571
  B(3) =   1.928571
  B(4) =  -0.571429
  B(5) =   0.071429

 Extrapolation method: ASPC

 Number of electrons:                                                          8
 Number of occupied orbitals:                                                  4
 Number of molecular orbitals:                                                 6

 Number of orbital functions:                                                  6
 Number of independent orbital functions:                                      6


 SCF WAVEFUNCTION OPTIMIZATION

  Step     Update method      Time    Convergence         Total energy    Change
  ------------------------------------------------------------------------------
     1 GXTB-Raw    0.10E+01    0.0     1.4004E-12       -76.4373854931 -7.64E+01

  *** SCF run converged in     1 steps ***


  Core Hamiltonian energy:                                     -6.22697033470630
  Repulsive potential energy:                                   0.31827254577065
  Electrostatic energy:                                         0.14234031713611
  Self-consistent dispersion energy:                           -0.00004482578498
  Non-self consistent dispersion energy:                        0.00000029898137
  Correction for halogen bonding:                               0.00000000000000

  Total energy:                                               -76.43738549312378


 MULLIKEN POPULATION ANALYSIS

  # Atom   Element   Kind        Atomic population                    Net charge
       1     H          1                 0.685484                      0.314516
       2     H          1                 0.685486                      0.314514
       3     O          2                 6.629029                     -0.629029
 # Total charge                           8.000000                     -0.000000


 tblite reference CLI check
 Executable: tblite
 Method:     gxtb
 Guess:      auto
 Solver:     gvd
 Spin-pol.:  F
 Grad file:  H2O_stress_L80_cli.grad
 JSON file:  H2O_stress_L80_cli.json
 Log file:   H2O_stress_L80_cli.log
 Energy CP2K/CLI/absdiff:   -7.643738549312E+01   -7.643738549326E+01    1.366800006508E-10
 Gradient diff sum/max:    1.323105869157E-07    3.688512744023E-08
 Virial diff sum/max:    3.214784301988E-02    1.580802987781E-02
 tblite reference CLI deviation exceeded ERROR_LIMIT =   1.0000E-05

 ENERGY| Total FORCE_EVAL ( QS ) energy [hartree]            -76.437385493123784

 -------------------------------------------------------------------------------
 ----                             MULTIGRID INFO                            ----
 -------------------------------------------------------------------------------
 total grid count     :           420              cutoff [a.u.]            1.00

 PW_GRID| Information for grid number                                         12
 PW_GRID| Cutoff [a.u.]                                                      1.0
 PW_GRID| spherical cutoff:                                                   NO
 PW_GRID|   Bounds   1            -36      35                Points:          72
 PW_GRID|   Bounds   2            -36      35                Points:          72
 PW_GRID|   Bounds   3            -36      35                Points:          72
 PW_GRID| Volume element (a.u.^3)   9.257         Volume (a.u.^3)   3455147.3065
 PW_GRID| Grid span                                                    FULLSPACE

 POISSON| Solver                                                        PERIODIC
 POISSON| Periodicity                                                        XYZ

 RS_GRID| Information for grid number                                         12
 RS_GRID|   Bounds   1            -36      35                Points:          72
 RS_GRID|   Bounds   2            -36      35                Points:          72
 RS_GRID|   Bounds   3            -36      35                Points:          72

 Parameters for the always stable predictor-corrector (ASPC) method:

  ASPC order: 3

  B(1) =   3.000000
  B(2) =  -3.428571
  B(3) =   1.928571
  B(4) =  -0.571429
  B(5) =   0.071429

 Extrapolation method: ASPC

 Number of electrons:                                                          8
 Number of occupied orbitals:                                                  4
 Number of molecular orbitals:                                                 6

 Number of orbital functions:                                                  6
 Number of independent orbital functions:                                      6


 SCF WAVEFUNCTION OPTIMIZATION

  Step     Update method      Time    Convergence         Total energy    Change
  ------------------------------------------------------------------------------
     1 GXTB-Raw    0.10E+01    0.0     0.00000015       -76.4373854931 -7.64E+01
     2 GXTB-Simple 0.20E+00    0.0     0.00000006       -76.4373854931 -1.42E-14
     3 GXTB-Simple 0.20E+00    0.0     0.00000005       -76.4373854931  0.00E+00
     4 GXTB-FDIIS  0.10E+01    0.0     0.00000027       -76.4373854931 -1.42E-14
     5 GXTB-FDIIS  0.10E+01    0.0     0.00000001       -76.4373854931 -1.42E-14
     6 GXTB-FDIIS  0.10E+01    0.0     1.9228E-10       -76.4373854931  1.42E-14
     7 GXTB-FDIIS  0.10E+01    0.0     7.8604E-14       -76.4373854931 -1.42E-14

  *** SCF run converged in     7 steps ***


  Core Hamiltonian energy:                                     -6.22697033470659
  Repulsive potential energy:                                   0.31827254577048
  Electrostatic energy:                                         0.14234031713650
  Self-consistent dispersion energy:                           -0.00004482578498
  Non-self consistent dispersion energy:                        0.00000029898137
  Correction for halogen bonding:                               0.00000000000000

  Total energy:                                               -76.43738549312393


 MULLIKEN POPULATION ANALYSIS

  # Atom   Element   Kind        Atomic population                    Net charge
       1     H          1                 0.685484                      0.314516
       2     H          1                 0.685486                      0.314514
       3     O          2                 6.629029                     -0.629029
 # Total charge                           8.000000                     -0.000000


 tblite reference CLI check
 Executable: tblite
 Method:     gxtb
 Guess:      auto
 Solver:     gvd
 Spin-pol.:  F
 Grad file:  H2O_stress_L80_cli.grad
 JSON file:  H2O_stress_L80_cli.json
 Log file:   H2O_stress_L80_cli.log
 Energy CP2K/CLI/absdiff:   -7.643738549312E+01   -7.643738549326E+01    1.366657897961E-10
 Gradient diff sum/max:    1.433985297720E-07    3.688529841804E-08
 Virial diff sum/max:    3.214786404181E-02    1.580802987742E-02
 tblite reference CLI deviation exceeded ERROR_LIMIT =   1.0000E-05

 ENERGY| Total FORCE_EVAL ( QS ) energy [hartree]            -76.437385493123926

 -------------------------------------------------------------------------------
 ----                             MULTIGRID INFO                            ----
 -------------------------------------------------------------------------------
 total grid count     :           420              cutoff [a.u.]            1.00

 PW_GRID| Information for grid number                                         13
 PW_GRID| Cutoff [a.u.]                                                      1.0
 PW_GRID| spherical cutoff:                                                   NO
 PW_GRID|   Bounds   1            -36      35                Points:          72
 PW_GRID|   Bounds   2            -36      35                Points:          72
 PW_GRID|   Bounds   3            -36      35                Points:          72
 PW_GRID| Volume element (a.u.^3)   9.257         Volume (a.u.^3)   3455147.3065
 PW_GRID| Grid span                                                    FULLSPACE

 POISSON| Solver                                                        PERIODIC
 POISSON| Periodicity                                                        XYZ

 RS_GRID| Information for grid number                                         13
 RS_GRID|   Bounds   1            -36      35                Points:          72
 RS_GRID|   Bounds   2            -36      35                Points:          72
 RS_GRID|   Bounds   3            -36      35                Points:          72

 Parameters for the always stable predictor-corrector (ASPC) method:

  ASPC order: 3

  B(1) =   3.000000
  B(2) =  -3.428571
  B(3) =   1.928571
  B(4) =  -0.571429
  B(5) =   0.071429

 Extrapolation method: ASPC

 Number of electrons:                                                          8
 Number of occupied orbitals:                                                  4
 Number of molecular orbitals:                                                 6

 Number of orbital functions:                                                  6
 Number of independent orbital functions:                                      6


 SCF WAVEFUNCTION OPTIMIZATION

  Step     Update method      Time    Convergence         Total energy    Change
  ------------------------------------------------------------------------------
     1 GXTB-Raw    0.10E+01    0.0     0.00000030       -76.4373854931 -7.64E+01
     2 GXTB-Simple 0.20E+00    0.0     0.00000012       -76.4373854931 -2.84E-14
     3 GXTB-Simple 0.20E+00    0.0     0.00000010       -76.4373854931 -2.84E-14
     4 GXTB-FDIIS  0.10E+01    0.0     0.00000054       -76.4373854931 -5.68E-14
     5 GXTB-FDIIS  0.10E+01    0.0     0.00000002       -76.4373854931 -1.42E-14
     6 GXTB-FDIIS  0.10E+01    0.0     3.8456E-10       -76.4373854931  1.42E-14
     7 GXTB-FDIIS  0.10E+01    0.0     1.5543E-14       -76.4373854931  0.00E+00

  *** SCF run converged in     7 steps ***


  Core Hamiltonian energy:                                     -6.22697033470659
  Repulsive potential energy:                                   0.31827254577048
  Electrostatic energy:                                         0.14234031713650
  Self-consistent dispersion energy:                           -0.00004482578498
  Non-self consistent dispersion energy:                        0.00000029898137
  Correction for halogen bonding:                               0.00000000000000

  Total energy:                                               -76.43738549312391


 MULLIKEN POPULATION ANALYSIS

  # Atom   Element   Kind        Atomic population                    Net charge
       1     H          1                 0.685484                      0.314516
       2     H          1                 0.685486                      0.314514
       3     O          2                 6.629029                     -0.629029
 # Total charge                           8.000000                      0.000000


 tblite reference CLI check
 Executable: tblite
 Method:     gxtb
 Guess:      auto
 Solver:     gvd
 Spin-pol.:  F
 Grad file:  H2O_stress_L80_cli.grad
 JSON file:  H2O_stress_L80_cli.json
 Log file:   H2O_stress_L80_cli.log
 Energy CP2K/CLI/absdiff:   -7.643738549312E+01   -7.643738549326E+01    1.366800006508E-10
 Gradient diff sum/max:    1.433985298490E-07    3.688529841804E-08
 Virial diff sum/max:    3.214786404181E-02    1.580802987742E-02
 tblite reference CLI deviation exceeded ERROR_LIMIT =   1.0000E-05

 ENERGY| Total FORCE_EVAL ( QS ) energy [hartree]            -76.437385493123912

 -------------------------------------------------------------------------------
 ----                             MULTIGRID INFO                            ----
 -------------------------------------------------------------------------------
 total grid count     :           420              cutoff [a.u.]            1.00

 PW_GRID| Information for grid number                                         14
 PW_GRID| Cutoff [a.u.]                                                      1.0
 PW_GRID| spherical cutoff:                                                   NO
 PW_GRID|   Bounds   1            -36      35                Points:          72
 PW_GRID|   Bounds   2            -36      35                Points:          72
 PW_GRID|   Bounds   3            -36      35                Points:          72
 PW_GRID| Volume element (a.u.^3)   9.257         Volume (a.u.^3)   3455147.3065
 PW_GRID| Grid span                                                    FULLSPACE

 POISSON| Solver                                                        PERIODIC
 POISSON| Periodicity                                                        XYZ

 RS_GRID| Information for grid number                                         14
 RS_GRID|   Bounds   1            -36      35                Points:          72
 RS_GRID|   Bounds   2            -36      35                Points:          72
 RS_GRID|   Bounds   3            -36      35                Points:          72

[...]
  ------------------------------------------------------------------------------
     1 GXTB-Raw    0.10E+01    0.0     0.00000060       -76.4373855033 -7.64E+01
     2 GXTB-Simple 0.20E+00    0.0     0.00000009       -76.4373855033 -2.84E-14
     3 GXTB-Simple 0.20E+00    0.0     0.00000008       -76.4373855033 -1.42E-14
     4 GXTB-FDIIS  0.10E+01    0.0     0.00000035       -76.4373855033 -4.26E-14
     5 GXTB-FDIIS  0.10E+01    0.0     0.00000001       -76.4373855033  0.00E+00
     6 GXTB-FDIIS  0.10E+01    0.0     8.7704E-09       -76.4373855033  0.00E+00
     7 GXTB-FDIIS  0.10E+01    0.0     2.8032E-10       -76.4373855033  0.00E+00
     8 GXTB-FDIIS  0.10E+01    0.0     4.4445E-11       -76.4373855033 -1.42E-14

  *** SCF run converged in     8 steps ***


  Core Hamiltonian energy:                                     -6.22697079907569
  Repulsive potential energy:                                   0.31827301938505
  Electrostatic energy:                                         0.14234030548425
  Self-consistent dispersion energy:                           -0.00004482573442
  Non-self consistent dispersion energy:                        0.00000029898118
  Correction for halogen bonding:                               0.00000000000000

  Total energy:                                               -76.43738550333903


 MULLIKEN POPULATION ANALYSIS

  # Atom   Element   Kind        Atomic population                    Net charge
       1     H          1                 0.685484                      0.314516
       2     H          1                 0.685486                      0.314514
       3     O          2                 6.629029                     -0.629029
 # Total charge                           8.000000                     -0.000000


 tblite reference CLI check
 Executable: tblite
 Method:     gxtb
 Guess:      auto
 Solver:     gvd
 Spin-pol.:  F
 Grad file:  H2O_stress_L80_cli.grad
 JSON file:  H2O_stress_L80_cli.json
 Log file:   H2O_stress_L80_cli.log
 Energy CP2K/CLI/absdiff:   -7.643738550334E+01   -7.643738550348E+01    1.366657897961E-10
 Gradient diff sum/max:    1.305023693067E-06    5.801425742250E-07
 Virial diff sum/max:    3.214681477892E-02    1.580795637929E-02
 tblite reference CLI deviation exceeded ERROR_LIMIT =   1.0000E-05

 ENERGY| Total FORCE_EVAL ( QS ) energy [hartree]            -76.437385503339030

 -------------------------------------------------------------------------------
 ----                             MULTIGRID INFO                            ----
 -------------------------------------------------------------------------------
 total grid count     :           420              cutoff [a.u.]            1.00

 PW_GRID| Information for grid number                                         20
 PW_GRID| Cutoff [a.u.]                                                      1.0
 PW_GRID| spherical cutoff:                                                   NO
 PW_GRID|   Bounds   1            -36      35                Points:          72
 PW_GRID|   Bounds   2            -36      35                Points:          72
 PW_GRID|   Bounds   3            -36      35                Points:          72
 PW_GRID| Volume element (a.u.^3)   9.257         Volume (a.u.^3)   3455147.3065
 PW_GRID| Grid span                                                    FULLSPACE

 POISSON| Solver                                                        PERIODIC
 POISSON| Periodicity                                                        XYZ

 RS_GRID| Information for grid number                                         20
 RS_GRID|   Bounds   1            -36      35                Points:          72
 RS_GRID|   Bounds   2            -36      35                Points:          72
 RS_GRID|   Bounds   3            -36      35                Points:          72

 Parameters for the always stable predictor-corrector (ASPC) method:

  ASPC order: 3

  B(1) =   3.000000
  B(2) =  -3.428571
  B(3) =   1.928571
  B(4) =  -0.571429
  B(5) =   0.071429

 Extrapolation method: ASPC

 Number of electrons:                                                          8
 Number of occupied orbitals:                                                  4
 Number of molecular orbitals:                                                 6

 Number of orbital functions:                                                  6
 Number of independent orbital functions:                                      6


 SCF WAVEFUNCTION OPTIMIZATION

  Step     Update method      Time    Convergence         Total energy    Change
  ------------------------------------------------------------------------------
     1 GXTB-Raw    0.10E+01    0.0     0.00000030       -76.4373854931 -7.64E+01
     2 GXTB-Simple 0.20E+00    0.0     0.00000005       -76.4373854931  0.00E+00
     3 GXTB-Simple 0.20E+00    0.0     0.00000004       -76.4373854931 -1.42E-14
     4 GXTB-FDIIS  0.10E+01    0.0     0.00000018       -76.4373854931  0.00E+00
     5 GXTB-FDIIS  0.10E+01    0.0     5.7612E-09       -76.4373854931 -1.42E-14
     6 GXTB-FDIIS  0.10E+01    0.0     4.3852E-09       -76.4373854931  1.42E-14
     7 GXTB-FDIIS  0.10E+01    0.0     1.4016E-10       -76.4373854931 -1.42E-14
     8 GXTB-FDIIS  0.10E+01    0.0     2.2223E-11       -76.4373854931  1.42E-14

  *** SCF run converged in     8 steps ***


  Core Hamiltonian energy:                                     -6.22697033470673
  Repulsive potential energy:                                   0.31827254577064
  Electrostatic energy:                                         0.14234031713649
  Self-consistent dispersion energy:                           -0.00004482578498
  Non-self consistent dispersion energy:                        0.00000029898137
  Correction for halogen bonding:                               0.00000000000000

  Total energy:                                               -76.43738549312391


 MULLIKEN POPULATION ANALYSIS

  # Atom   Element   Kind        Atomic population                    Net charge
       1     H          1                 0.685484                      0.314516
       2     H          1                 0.685486                      0.314514
       3     O          2                 6.629029                     -0.629029
 # Total charge                           8.000000                     -0.000000


 tblite reference CLI check
 Executable: tblite
 Method:     gxtb
 Guess:      auto
 Solver:     gvd
 Spin-pol.:  F
 Grad file:  H2O_stress_L80_cli.grad
 JSON file:  H2O_stress_L80_cli.json
 Log file:   H2O_stress_L80_cli.log
 Energy CP2K/CLI/absdiff:   -7.643738549312E+01   -7.643738549326E+01    1.366942115055E-10
 Gradient diff sum/max:    1.323110623252E-07    3.688530752187E-08
 Virial diff sum/max:    3.214784301841E-02    1.580802987740E-02
 tblite reference CLI deviation exceeded ERROR_LIMIT =   1.0000E-05

 ENERGY| Total FORCE_EVAL ( QS ) energy [hartree]            -76.437385493123912
 DEBUG| Numerical pv_virial [a.u.]
 DEBUG|                  -0.015808081557      0.000000000000      0.000448074764
 DEBUG|                   0.000000000000      0.000000204095      0.000000010742
 DEBUG|                   0.000448074764      0.000000010742     -0.015443513930

 DEBUG| Analytical pv_virial [a.u.]
 DEBUG|                  -0.015808083052      0.000000000000      0.000448078566
 DEBUG|                   0.000000000000      0.000000197776     -0.000000000000
 DEBUG|                   0.000448078566     -0.000000000000     -0.015443507188

 DEBUG| Difference pv_virial [a.u.]
 DEBUG|                   0.000000001495     -0.000000000000     -0.000000003802
 DEBUG|                  -0.000000000000      0.000000006319      0.000000010742
 DEBUG|                  -0.000000003802      0.000000010742     -0.000000006742
 DEBUG| Sum of differences                                        0.000000043644

 DEBUG| Relative error pv_virial
 DEBUG| Threshold value for error check [a.u.]                    1.00000000E-05
 DEBUG|                          -0.00 %                 - %             -0.00 %
 DEBUG|                              - %                 - %                 - %
 DEBUG|                          -0.00 %                 - %              0.00 %
 DEBUG| Maximum accepted error                                            0.20 %

 -------------------------------------------------------------------------------
 -                                                                             -
 -                                DBCSR STATISTICS                             -
 -                                                                             -
 -------------------------------------------------------------------------------
 COUNTER                                    TOTAL       BLAS       SMM       ACC
 flops     1 x     6 x     1                 3168     100.0%      0.0%      0.0%     
 flops     1 x     1 x     6                 5652     100.0%      0.0%      0.0%     
 flops     4 x     6 x     1                 6336     100.0%      0.0%      0.0%     
 flops     1 x     6 x     4                 6336     100.0%      0.0%      0.0%     
 flops     4 x     1 x     6                 7536     100.0%      0.0%      0.0%     
 flops     1 x     4 x     6                 7536     100.0%      0.0%      0.0%     
 flops     4 x     6 x     4                12672     100.0%      0.0%      0.0%     
 flops     4 x     4 x     6                30144     100.0%      0.0%      0.0%     
 flops inhomo. stacks                           0       0.0%      0.0%      0.0%
 flops total                        79.380000E+03     100.0%      0.0%      0.0%
 flops max/rank                     79.380000E+03     100.0%      0.0%      0.0%
 matmuls inhomo. stacks                         0       0.0%      0.0%      0.0%
 matmuls total                               1536     100.0%      0.0%      0.0%
 number of processed stacks                   892     100.0%      0.0%      0.0%
 average stack size                                     1.7       0.0       0.0
 marketing flops                    73.728000E+03
 -------------------------------------------------------------------------------
 # multiplications                            223
 max memory usage/rank               9.942700E+09
 # max total images/rank                        1
 # max 3D layers                                1
 # MPI messages exchanged                       0
 -------------------------------------------------------------------------------
 -                                                                             -
 -                      DBCSR MESSAGE PASSING PERFORMANCE                      -
 -                                                                             -
 -------------------------------------------------------------------------------
 ROUTINE             CALLS      AVE VOLUME [Bytes]
 MP_Bcast                9                     12.
 MP_Allreduce         1018                      9.
 MP_Alltoall          5782                    293.
 MP_ISend              892                     78.
 MP_IRecv              892                     78.
 -------------------------------------------------------------------------------

 -------------------------------------------------------------------------------
 -                                                                             -
 -                          OFFLOAD MEMPOOL STATISTICS                         -
 -                                                                             -
 -------------------------------------------------------------------------------
 Memory consumption                Number of allocations  Used [MiB]  Size [MiB]
 Host                                                  1           3           0
 -------------------------------------------------------------------------------

 MEMORY| Estimated peak process memory [MiB]                                 164

 -------------------------------------------------------------------------------
 ----                             MULTIGRID INFO                            ----
 -------------------------------------------------------------------------------
 total grid count     :           420              cutoff [a.u.]            1.00

 -------------------------------------------------------------------------------
 -                                                                             -
 -                         MESSAGE PASSING PERFORMANCE                         -
 -                                                                             -
 -------------------------------------------------------------------------------

 ROUTINE             CALLS      AVE VOLUME [Bytes]
 MP_Group               20
 MP_Bcast              274                     26.
 MP_Allreduce         4498                     50.
 MP_Sync               157
 MP_comm_split         137
 -------------------------------------------------------------------------------


 -------------------------------------------------------------------------------
 -                                                                             -
 -                           R E F E R E N C E S                               -
 -                                                                             -
 -------------------------------------------------------------------------------
 
 CP2K version 2026.2 (Development Version), the CP2K developers group (2026).
 CP2K is freely available from https://www.cp2k.org/ .
 
 M. Iannuzzi, J. Wilhelm, F. Stein, A. Bussy, H. Elgabarty, D. Golze, A. Hehn, 
 M. Graml, S. Marek, B. Sertcan Gökmen, C. Schran, H. Forbert, R. Z. 
 Khaliullin, A. Kozhevnikov, M. Taillefumier, R. Meli, V. V. Rybkin, M. Brehm, 
 R. Schade, O. Schütt, J. V. Pototschnig, H. Mirhosseini, A. Knüpfer, D. Marx, 
 M. Krack, J. Hutter, T. D. Kühne.
 J. Phys. Chem. B 130, 1237-1310 (2026).
 The CP2K Program Package Made Simple.
 https://doi.org/10.1021/acs.jpcb.5c05851

 A. Katbashev, M. Stahn, T. Rose, V. Alizadeh, M. Friede, C. Plett, P. 
 Steinbach, S. Ehlert.
 J. Phys. Chem. A 129, 2667-2682 (2025).
 Overview on Building Blocks and Applications of Efficient and Robust Extended 
 Tight Binding.
 https://doi.org/10.1021/acs.jpca.4c08263

 T. D. Kühne, M. Iannuzzi, M. Del Ben, V. V. Rybkin, P. Seewald, F. Stein, T. 
 Laino, R. Z. Khaliullin, O. Schütt, F. Schiffmann, D. Golze, J. Wilhelm, S. 
 Chulkov, M. H. Bani-Hashemian, V. Weber, U. Borstnik, M. Taillefumier, A. S. 
 Jakobovits, A. Lazzaro, H. Pabst, T. Müller, R. Schade, M. Guidon, S. 
 Andermatt, N. Holmberg, G. K. Schenter, A. Hehn, A. Bussy, F. Belleflamme, G. 
 Tabacchi, A. Glöß, M. Lass, I. Bethune, C. J. Mundy, C. Plessl, M. Watkins, 
 J. VandeVondele, M. Krack, J. Hutter.
 J. Chem. Phys. 152, 194103 (2020).
 CP2K: An electronic structure and molecular dynamics software package - 
 Quickstep: Efficient and accurate electronic structure calculations.
 https://doi.org/10.1063/5.0007045

 P. Pracht, E. Caldeweyher, S. Ehlert, S. Grimme.
 ChemRxiv, (2019).
 A Robust Non-Self-Consistent Tight-Binding Quantum Chemistry Method for large 
 Molecules.
 https://doi.org/10.26434/chemrxiv.8326202.v1

 S. Grimme, C. Bannwarth, P. Shushkov.
 J. Chem. Theory Comput. 13, 1989 (2017).
 A Robust and Accurate Tight-Binding Quantum Chemical Method for Structures, 
 Vibrational Frequencies, and Noncovalent Interactions of Large Molecular 
 Systems Parametrized for All spd-Block Elements (Z = 1-86).
 https://doi.org/10.1021/acs.jctc.7b00118

 O. Schuett, P. Messmer, J. Hutter, J. VandeVondele.
 Electronic Structure Calculations on Graphics Processing Units, 173-190 (2016).
 GPU-Accelerated Sparse Matrix-Matrix Multiplication for Linear Scaling Density 
 Functional Theory.
 https://doi.org/10.1002/9781118670712.ch8

 U. Borstnik, J. VandeVondele, V. Weber, J. Hutter.
 Parallel Comput. 40, 47-58 (2014).
 Sparse matrix multiplication: The distributed block-compressed sparse row 
 library.
 https://doi.org/10.1016/j.parco.2014.03.012

 T. D. Kühne, M. Krack, F. R. Mohamed, M. Parrinello.
 Phys. Rev. Lett. 98, 066401 (2007).
 Efficient and accurate Car-Parrinello-like approach to Born-Oppenheimer 
 molecular dynamics.
 https://doi.org/10.1103/PhysRevLett.98.066401

 M. Frigo, S. G. Johnson.
 Proc. IEEE 93, 216-231 (2005).
 The design and implementation of FFTW3.
 https://doi.org/10.1109/JPROC.2004.840301

 J. Kolafa.
 J. Comput. Chem. 25, 335-342 (2004).
 Time-reversible always stable predictor-corrector method for molecular dynamics 
 of polarizable molecules.
 https://doi.org/10.1002/jcc.10385


 -------------------------------------------------------------------------------
 -                                                                             -
 -                                T I M I N G                                  -
 -                                                                             -
 -------------------------------------------------------------------------------
 SUBROUTINE                       CALLS  ASD         SELF TIME        TOTAL TIME
                                MAXIMUM       AVERAGE  MAXIMUM  AVERAGE  MAXIMUM
 CP2K                                 1  1.0    0.009    0.009    2.095    2.095
 qs_energies                         20  2.0    0.002    0.002    1.956    1.956
 qs_env_rebuild_pw_env               22  3.1    0.001    0.001    1.237    1.237
 pw_env_rebuild                      20  4.0    0.004    0.004    1.236    1.236
 pw_grid_setup                       20  5.0    0.000    0.000    1.224    1.224
 pw_grid_setup_internal              20  6.0    0.035    0.035    1.223    1.223
 pw_grid_sort                        20  7.0    0.781    0.781    1.027    1.027
 tb_reference_cli_compare            20  3.0    0.448    0.448    0.448    0.448
 sort_shells                         20  8.1    0.246    0.246    0.246    0.246
 scf_env_do_scf                      20  3.0    0.001    0.001    0.202    0.202
 scf_env_do_scf_inner_loop          137  4.1    0.023    0.023    0.201    0.201
 pw_grid_assign                      20  7.0    0.160    0.160    0.160    0.160
 qs_scf_new_mos                     137  5.1    0.003    0.003    0.140    0.140
 calculate_dm_sparse                156  6.1    0.001    0.001    0.098    0.098
 cp_dbcsr_plus_fm_fm_t              157  7.1    0.001    0.001    0.098    0.098
 dbcsr_multiply_generic             223  8.0    0.006    0.006    0.095    0.095
 qs_energies_init_hamiltonians       20  3.0    0.000    0.000    0.086    0.086
 qs_init_subsys                       1  2.0    0.002    0.002    0.084    0.084
 qs_env_setup                         1  3.0    0.000    0.000    0.080    0.080
 init_scf_run                        20  3.0    0.000    0.000    0.071    0.071
 build_tblite_matrices               21  4.0    0.060    0.060    0.070    0.070
 scf_env_initial_rho_setup           20  4.0    0.000    0.000    0.061    0.061
 wfi_extrapolate                     20  5.0    0.002    0.002    0.060    0.060
 qs_forces                            1  2.0    0.000    0.000    0.051    0.051
 make_m2s                           446  9.0    0.003    0.003    0.049    0.049
 -------------------------------------------------------------------------------

 The number of warnings for this run is : 1
 
 -------------------------------------------------------------------------------
  **** **** ******  **  PROGRAM ENDED AT                 2026-07-21 18:03:14.143
 ***** ** ***  *** **   PROGRAM RAN ON                                     terok
 **    ****   ******    PROGRAM RAN BY                                  kuehne88
 ***** **    ** ** **   PROGRAM PROCESS ID                               1681562
  **** **  *******  **  PROGRAM STOPPED IN /home/kuehne88/work/h2o-molecular-lim
                                           it-fix-20260721/stress/raw/H2O_stress
                                           _L80
