 DBCSR| CPU Multiplication driver                                           XSMM (U)
 DBCSR| Multrec recursion limit                                              512 (U)
 DBCSR| Multiplication stack size                                           1000 (D)
 DBCSR| Maximum elements for images                                    UNLIMITED (U)
 DBCSR| Multiplicative factor virtual images                                   1 (U)
 DBCSR| Use multiplication densification                                       T (D)
 DBCSR| Multiplication size stacks                                             3 (U)
 DBCSR| Use memory pool for CPU allocation                                     F (U)
 DBCSR| Number of 3D layers                                               SINGLE (U)
 DBCSR| Use MPI memory allocation                                              F (U)
 DBCSR| Use RMA algorithm                                                      F (U)
 DBCSR| Use Communication thread                                               T (U)
 DBCSR| Communication thread load                                             87 (D)
 DBCSR| MPI: My process id                                                     0
 DBCSR| MPI: Number of processes                                               1
 DBCSR| OMP: Current number of threads                                         1
 DBCSR| OMP: Max number of threads                                             1
 DBCSR| Split modifier for TAS multiplication algorithm                  1.0E+00 (U)


  **** **** ******  **  PROGRAM STARTED AT               2026-05-23 22:46:19.975
 ***** ** ***  *** **   PROGRAM STARTED ON                            spark-c86c
 **    ****   ******    PROGRAM STARTED BY                              kuehne88
 ***** **    ** ** **   PROGRAM PROCESS ID                               2227532
  **** **  *******  **  PROGRAM STARTED IN /home/kuehne88/periodic-gfn2-benchmar
                                           ks/X23b/runs/molecule_geoopt/GFN2/nap
                                           hthalene_GFN2_mol_geoopt

 CP2K| version string:                 CP2K version 2026.1 (Development Version)
 CP2K| source code revision number:                                   0622d442e4
 CP2K| cp2kflags: omp fftw3 libxc parallel scalapack mpi_f08 xsmm spglib libdftd
 CP2K|            4 dftd4_v3 mctc-lib tblite
 CP2K| is freely available from                            https://www.cp2k.org/
 CP2K| Program compiled at                                   2026-05-23 22:05:08
 CP2K| Program compiled on                                            spark-c86c
 CP2K| Program compiled for                                              aarch64
 CP2K| Data directory path    /home/kuehne88/cp2k-master-tblite-20260523/install
 CP2K| Input file name                           naphthalene_GFN2_mol_geoopt.inp

 GLOBAL| Force Environment number                                              1
 GLOBAL| Basis set file name                                           BASIS_SET
 GLOBAL| Potential file name                                           POTENTIAL
 GLOBAL| MM Potential file name                                     MM_POTENTIAL
 GLOBAL| Coordinate file name                                      __STD_INPUT__
 GLOBAL| Method name                                                        CP2K
 GLOBAL| Project name                                naphthalene_GFN2_mol_geoopt
 GLOBAL| Run type                                                        GEO_OPT
 GLOBAL| FFT library                                                       FFTW3
 GLOBAL| Diagonalization library                                       ScaLAPACK
 GLOBAL| Cholesky decomposition library                                ScaLAPACK
 GLOBAL| DGEMM library                                                      BLAS
 GLOBAL| Direct generalized diagonalization requested                          F
 GLOBAL| Orthonormality check for eigenvectors                          DISABLED
 GLOBAL| Matrix multiplication library                                 ScaLAPACK
 GLOBAL| All-to-all communication in single precision                          F
 GLOBAL| FFTs using library dependent lengths                                  F
 GLOBAL| Grid backend                                                       AUTO
 GLOBAL| Global print level                                                  LOW
 GLOBAL| MPI I/O enabled                                                       T
 GLOBAL| Total number of message passing processes                             1
 GLOBAL| Number of distributed systems (nodes)                                 1
 GLOBAL| Number of threads for this process                                    1
 GLOBAL| This output is from process                                           0
 GLOBAL| OpenMP stack size per thread (OMP_STACKSIZE)                    default
 GLOBAL| CPU model name                                                  UNKNOWN
 GLOBAL| CPUID                                                              2200
 GLOBAL| Compiled for CPUID                                                 2000

 *** HINT in environment.F:970 :: The compiler target flags (arm_arch64)   ***
 *** used to build this binary cannot exploit all extensions of this CPU   ***
 *** model (arm_sve256). Consider compiler target flags as part of FCFLAGS ***
 *** and CFLAGS (ARCH file).                                               ***


 MEMORY| system memory details [Kb]
 MEMORY|                        rank 0           min           max       average
 MEMORY| MemTotal            125508532     125508532     125508532     125508532
 MEMORY| MemFree             105874496     105874496     105874496     105874496
 MEMORY| Buffers                866132        866132        866132        866132
 MEMORY| Cached               13217064      13217064      13217064      13217064
 MEMORY| Slab                  1564704       1564704       1564704       1564704
 MEMORY| SReclaimable           888664        888664        888664        888664
 MEMORY| MemLikelyFree       120846356     120846356     120846356     120846356


 GENERATE|  Preliminary Number of Bonds generated:                             0
 GENERATE|  Achieved consistency in connectivity generation.


                  #####   #####        #     #   #     #       #          
                 #     # #     #      #    ##### #     #   # #####  ####  
                 #     # #           #       #   ###   #       #   #    # 
                 #     #  #####     #        #   #  #  #   #   #   ###### 
                 #   # #       #   #         #   #   # #   #   #   #      
                 #    #  #     #  #          #   #  #  # # #   #    #   # 
                  #### #  #####  #           #   ###   ##  #   #     ###  

                                   GFN2-xTB  
                                 Version 0.0                       
                            Johann V. Pototschnig                  



 TOTAL NUMBERS AND MAXIMUM NUMBERS

  Total number of            - Atomic kinds:                                   2
                             - Atoms:                                         18
                             - Shell sets:                                    28
                             - Shells:                                        28
                             - Primitive Cartesian functions:                104
                             - Cartesian basis functions:                     48
                             - Spherical basis functions:                     48

  Maximum angular momentum of the orbital basis functions:                     1


 SCF PARAMETERS         Density guess:                                     MOPAC
                        --------------------------------------------------------
                        max_scf:                                             300
                        max_scf_history:                                       0
                        max_diis:                                              4
                        --------------------------------------------------------
                        eps_scf:                                        1.00E-09
                        eps_scf_history:                                0.00E+00
                        eps_diis:                                       1.00E-01
                        eps_eigval:                                     1.00E-05
                        --------------------------------------------------------
                        level_shift [a.u.]:                             0.000000
                        added MOs                                        24    0
                        --------------------------------------------------------
                        Mixing method:                           DIRECT_P_MIXING
                        --------------------------------------------------------
                        Smear method:                                FERMI_DIRAC
                        Electronic temperature [K]:                        300.0
                        Electronic temperature [a.u.]:                  9.50E-04
                        Accuracy threshold:                             1.00E-06
                        --------------------------------------------------------
                        No outer SCF

 BFGS| Use rational function optimization for step estimation:                NO
 BFGS| Use model Hessian for initial guess:                                  YES
 BFGS| Restart Hessian:                                                       NO
 BFGS| Trust radius:                                                       0.472

 *******************************************************************************
 ***                     STARTING GEOMETRY OPTIMIZATION                      ***
 ***                                   BFGS                                  ***
 *******************************************************************************

 Extrapolation method: initial_guess

 Number of electrons:                                                         48
 Number of occupied orbitals:                                                 24
 Number of molecular orbitals:                                                48

 Number of orbital functions:                                                 48
 Number of independent orbital functions:                                     48


 SCF WAVEFUNCTION OPTIMIZATION

  Step     Update method      Time    Convergence         Total energy    Change
  ------------------------------------------------------------------------------
     1 TBLite/Diag 0.40E+00    0.0     0.59517527       -25.4673083587 -2.55E+01
     2 TBLite/Diag 0.40E+00    0.0     0.02876033       -25.4719658017 -4.66E-03
     3 TBLite/Diag 0.40E+00    0.0     0.01603005       -25.4720891605 -1.23E-04
     4 TBLite/Diag 0.40E+00    0.0     0.01702552       -25.4722938528 -2.05E-04
     5 TBLite/Diag 0.40E+00    0.0     0.00809368       -25.4724490917 -1.55E-04
     6 TBLite/Diag 0.40E+00    0.0     0.00174857       -25.4724477268  1.36E-06
     7 TBLite/Diag 0.40E+00    0.0     0.00098393       -25.4724518854 -4.16E-06
     8 TBLite/Diag 0.40E+00    0.0     0.00006686       -25.4724519030 -1.76E-08
     9 TBLite/Diag 0.40E+00    0.0     0.00000508       -25.4724519031 -7.48E-11
    10 TBLite/Diag 0.40E+00    0.0     0.00000118       -25.4724519031 -1.84E-12
    11 TBLite/Diag 0.40E+00    0.0     0.00000074       -25.4724519031 -4.33E-13
    12 TBLite/Diag 0.40E+00    0.0     0.00000023       -25.4724519031 -7.11E-14
    13 TBLite/Diag 0.40E+00    0.0     0.00000005       -25.4724519031  1.42E-14
    14 TBLite/Diag 0.40E+00    0.0     0.00000002       -25.4724519031 -2.49E-14
    15 TBLite/Diag 0.40E+00    0.0     1.9963E-09       -25.4724519031 -3.55E-15
    16 TBLite/Diag 0.40E+00    0.0     4.8178E-10       -25.4724519031  7.11E-15

  *** SCF run converged in    16 steps ***


  Core Hamiltonian energy:                                    -25.95145613784792
  Repulsive potential energy:                                   0.47255790248754
  Electrostatic energy:                                         0.02296231920577
  Self-consistent dispersion energy:                           -0.01655333507336
  Non-self consistent dispersion energy:                        0.00003734814622
  Correction for halogen bonding:                               0.00000000000000
  Electronic entropic energy:                                  -0.00000000000000
  Fermi energy:                                                -0.29170787165362

  Total energy:                                               -25.47245190308175
  Total energy (extrapolated to T->0):                        -25.47245190308175

 ENERGY| Total FORCE_EVAL ( QS ) energy [hartree]            -25.472451903081751

 OPT| **************************************************************************
 OPT| Step number                                                              0
 OPT| Optimization method                                                   BFGS
 OPT| Total energy [hartree]                                      -25.4724519031
 OPT| Used time [s]                                                        0.029
 OPT| **************************************************************************
 OPT| Estimated peak process memory [MiB]                                    163

 --------------------------
 OPTIMIZATION STEP:      1
 --------------------------

 Extrapolation method: ASPC

 Number of electrons:                                                         48
 Number of occupied orbitals:                                                 24
 Number of molecular orbitals:                                                48

 Number of orbital functions:                                                 48
 Number of independent orbital functions:                                     48


 SCF WAVEFUNCTION OPTIMIZATION

  Step     Update method      Time    Convergence         Total energy    Change
  ------------------------------------------------------------------------------
     1 TBLite/Diag 0.40E+00    0.0     0.00987254       -25.4742248570 -2.55E+01
     2 TBLite/Diag 0.40E+00    0.0     0.00091808       -25.4742269323 -2.08E-06
     3 TBLite/Diag 0.40E+00    0.0     0.00105442       -25.4742257102  1.22E-06
     4 TBLite/Diag 0.40E+00    0.0     0.00087255       -25.4742274092 -1.70E-06
     5 TBLite/Diag 0.40E+00    0.0     0.00009901       -25.4742274292 -2.00E-08
     6 TBLite/Diag 0.40E+00    0.0     0.00006913       -25.4742274303 -1.06E-09
     7 TBLite/Diag 0.40E+00    0.0     0.00003393       -25.4742274333 -3.05E-09
     8 TBLite/Diag 0.40E+00    0.0     0.00000645       -25.4742274334 -3.22E-11
     9 TBLite/Diag 0.40E+00    0.0     0.00000188       -25.4742274334 -5.85E-12
    10 TBLite/Diag 0.40E+00    0.0     0.00000037       -25.4742274334 -1.42E-13
    11 TBLite/Diag 0.40E+00    0.0     0.00000009       -25.4742274334  7.11E-15
    12 TBLite/Diag 0.40E+00    0.0     0.00000006       -25.4742274334 -7.11E-15
    13 TBLite/Diag 0.40E+00    0.0     4.2461E-09       -25.4742274334 -2.49E-14
    14 TBLite/Diag 0.40E+00    0.0     8.9346E-10       -25.4742274334  2.13E-14

  *** SCF run converged in    14 steps ***


  Core Hamiltonian energy:                                    -25.97867029719023
  Repulsive potential energy:                                   0.49904681021484
  Electrostatic energy:                                         0.02200961839995
  Self-consistent dispersion energy:                           -0.01665035698332
  Non-self consistent dispersion energy:                        0.00003679218178
  Correction for halogen bonding:                               0.00000000000000
  Electronic entropic energy:                                  -0.00000000000000
  Fermi energy:                                                -0.29057449767610

  Total energy:                                               -25.47422743337698
  Total energy (extrapolated to T->0):                        -25.47422743337698

 ENERGY| Total FORCE_EVAL ( QS ) energy [hartree]            -25.474227433376981

 OPT| **************************************************************************
 OPT| Step number                                                              1
 OPT| Optimization method                                                   BFGS
 OPT| Total energy [hartree]                                      -25.4742274334
 OPT| Effective energy change [hartree]                            -0.0017755303
 OPT| Predicted energy change [hartree]                            -0.0014594827
 OPT| Scaling factor                                                0.0000000000
 OPT| Step size                                                     0.0353158073
 OPT| Trust radius                                                  0.4724315332
 OPT| Decrease in energy                                                     YES
 OPT| Used time [s]                                                        0.026
 OPT|
 OPT| Maximum step size                                             0.0353158073
 OPT| Convergence limit for maximum step size                       0.0030000000
 OPT| Maximum step size is converged                                          NO
 OPT|
 OPT| RMS step size                                                 0.0168611044
 OPT| Convergence limit for RMS step size                           0.0015000000
 OPT| RMS step size is converged                                              NO
 OPT|
 OPT| Maximum gradient                                              0.0024891013
 OPT| Convergence limit for maximum gradient                        0.0004500000
 OPT| Maximum gradient is converged                                           NO
 OPT|
 OPT| RMS gradient                                                  0.0008662211
 OPT| Convergence limit for RMS gradient                            0.0003000000
 OPT| RMS gradient is converged                                               NO
 OPT| **************************************************************************
 OPT| Estimated peak process memory after this step [MiB]                    164

 --------------------------
 OPTIMIZATION STEP:      2
 --------------------------

 Extrapolation method: ASPC

 Number of electrons:                                                         48
 Number of occupied orbitals:                                                 24
 Number of molecular orbitals:                                                48

 Number of orbital functions:                                                 48
 Number of independent orbital functions:                                     48


 SCF WAVEFUNCTION OPTIMIZATION

  Step     Update method      Time    Convergence         Total energy    Change
  ------------------------------------------------------------------------------
     1 TBLite/Diag 0.40E+00    0.0     0.00260124       -25.4743667187 -2.55E+01
     2 TBLite/Diag 0.40E+00    0.0     0.00022373       -25.4743668587 -1.40E-07
     3 TBLite/Diag 0.40E+00    0.0     0.00025599       -25.4743667887  7.00E-08
     4 TBLite/Diag 0.40E+00    0.0     0.00020685       -25.4743668963 -1.08E-07
     5 TBLite/Diag 0.40E+00    0.0     0.00004210       -25.4743668973 -1.01E-09
     6 TBLite/Diag 0.40E+00    0.0     0.00003096       -25.4743668977 -4.15E-10
     7 TBLite/Diag 0.40E+00    0.0     0.00001186       -25.4743668980 -3.10E-10
     8 TBLite/Diag 0.40E+00    0.0     0.00000147       -25.4743668980 -5.19E-13
     9 TBLite/Diag 0.40E+00    0.0     0.00000074       -25.4743668980 -8.78E-13
    10 TBLite/Diag 0.40E+00    0.0     0.00000022       -25.4743668980 -4.97E-14
    11 TBLite/Diag 0.40E+00    0.0     0.00000006       -25.4743668980  7.11E-15
    12 TBLite/Diag 0.40E+00    0.0     0.00000003       -25.4743668980 -3.55E-15
    13 TBLite/Diag 0.40E+00    0.0     7.2868E-09       -25.4743668980 -2.13E-14
    14 TBLite/Diag 0.40E+00    0.0     2.2429E-09       -25.4743668980  2.49E-14
    15 TBLite/Diag 0.40E+00    0.0     1.0249E-09       -25.4743668980 -2.13E-14
    16 TBLite/Diag 0.40E+00    0.0     7.7618E-11       -25.4743668980  3.20E-14

  *** SCF run converged in    16 steps ***


  Core Hamiltonian energy:                                    -25.98646083922904
  Repulsive potential energy:                                   0.50699616282615
  Electrostatic energy:                                         0.02174432097864
  Self-consistent dispersion energy:                           -0.01668346622565
  Non-self consistent dispersion energy:                        0.00003692361534
  Correction for halogen bonding:                               0.00000000000000
  Electronic entropic energy:                                  -0.00000000000000
  Fermi energy:                                                -0.29024188419593

  Total energy:                                               -25.47436689803455
  Total energy (extrapolated to T->0):                        -25.47436689803455

 ENERGY| Total FORCE_EVAL ( QS ) energy [hartree]            -25.474366898034550

 OPT| **************************************************************************
 OPT| Step number                                                              2
 OPT| Optimization method                                                   BFGS
 OPT| Total energy [hartree]                                      -25.4743668980
 OPT| Effective energy change [hartree]                            -0.0001394647
 OPT| Predicted energy change [hartree]                            -0.0001249130
 OPT| Scaling factor                                                0.0000000000
 OPT| Step size                                                     0.0154680966
 OPT| Trust radius                                                  0.4724315332
 OPT| Decrease in energy                                                     YES
 OPT| Used time [s]                                                        0.029
 OPT|
 OPT| Maximum step size                                             0.0154680966
 OPT| Convergence limit for maximum step size                       0.0030000000
 OPT| Maximum step size is converged                                          NO
 OPT|
 OPT| RMS step size                                                 0.0065590494
 OPT| Convergence limit for RMS step size                           0.0015000000
 OPT| RMS step size is converged                                              NO
 OPT|
 OPT| Maximum gradient                                              0.0006213013
 OPT| Convergence limit for maximum gradient                        0.0004500000
 OPT| Maximum gradient is converged                                           NO
 OPT|
 OPT| RMS gradient                                                  0.0002065690
 OPT| Convergence limit for RMS gradient                            0.0003000000
 OPT| RMS gradient is converged                                              YES
 OPT| **************************************************************************
 OPT| Estimated peak process memory after this step [MiB]                    164

 --------------------------
 OPTIMIZATION STEP:      3
 --------------------------

 Extrapolation method: ASPC

 Number of electrons:                                                         48
 Number of occupied orbitals:                                                 24
 Number of molecular orbitals:                                                48

 Number of orbital functions:                                                 48
 Number of independent orbital functions:                                     48


 SCF WAVEFUNCTION OPTIMIZATION

  Step     Update method      Time    Convergence         Total energy    Change
  ------------------------------------------------------------------------------
     1 TBLite/Diag 0.40E+00    0.0     0.00140513       -25.4743818068 -2.55E+01
     2 TBLite/Diag 0.40E+00    0.0     0.00006461       -25.4743818181 -1.13E-08
     3 TBLite/Diag 0.40E+00    0.0     0.00010994       -25.4743817988  1.93E-08
     4 TBLite/Diag 0.40E+00    0.0     0.00008836       -25.4743818252 -2.64E-08
     5 TBLite/Diag 0.40E+00    0.0     0.00001018       -25.4743818252  1.07E-11
     6 TBLite/Diag 0.40E+00    0.0     0.00000660       -25.4743818252 -5.59E-11
     7 TBLite/Diag 0.40E+00    0.0     0.00000123       -25.4743818252 -1.60E-12
     8 TBLite/Diag 0.40E+00    0.0     0.00000040       -25.4743818252 -3.69E-13
     9 TBLite/Diag 0.40E+00    0.0     0.00000014       -25.4743818252 -3.91E-14
    10 TBLite/Diag 0.40E+00    0.0     0.00000005       -25.4743818252 -3.55E-15
    11 TBLite/Diag 0.40E+00    0.0     0.00000002       -25.4743818252  0.00E+00
    12 TBLite/Diag 0.40E+00    0.0     6.3293E-09       -25.4743818252  3.55E-15
    13 TBLite/Diag 0.40E+00    0.0     2.7122E-09       -25.4743818252  7.11E-15
    14 TBLite/Diag 0.40E+00    0.0     5.1632E-10       -25.4743818252 -2.84E-14

  *** SCF run converged in    14 steps ***


  Core Hamiltonian energy:                                    -25.98700242307962
  Repulsive potential energy:                                   0.50753968870996
  Electrostatic energy:                                         0.02173248298997
  Self-consistent dispersion energy:                           -0.01668860705437
  Non-self consistent dispersion energy:                        0.00003703322211
  Correction for halogen bonding:                               0.00000000000000
  Electronic entropic energy:                                  -0.00000000000000
  Fermi energy:                                                -0.29021251108230

  Total energy:                                               -25.47438182521195
  Total energy (extrapolated to T->0):                        -25.47438182521195

 ENERGY| Total FORCE_EVAL ( QS ) energy [hartree]            -25.474381825211953

 OPT| **************************************************************************
 OPT| Step number                                                              3
 OPT| Optimization method                                                   BFGS
 OPT| Total energy [hartree]                                      -25.4743818252
 OPT| Effective energy change [hartree]                            -0.0000149272
 OPT| Predicted energy change [hartree]                            -0.0000107865
 OPT| Scaling factor                                                0.0000000000
 OPT| Step size                                                     0.0068978124
 OPT| Trust radius                                                  0.4724315332
 OPT| Decrease in energy                                                     YES
 OPT| Used time [s]                                                        0.026
 OPT|
 OPT| Maximum step size                                             0.0068978124
 OPT| Convergence limit for maximum step size                       0.0030000000
 OPT| Maximum step size is converged                                          NO
 OPT|
 OPT| RMS step size                                                 0.0023176430
 OPT| Convergence limit for RMS step size                           0.0015000000
 OPT| RMS step size is converged                                              NO
 OPT|
 OPT| Maximum gradient                                              0.0003649058
 OPT| Convergence limit for maximum gradient                        0.0004500000
 OPT| Maximum gradient is converged                                          YES
 OPT|
 OPT| RMS gradient                                                  0.0001454631
 OPT| Convergence limit for RMS gradient                            0.0003000000
 OPT| RMS gradient is converged                                              YES
 OPT| **************************************************************************
 OPT| Estimated peak process memory after this step [MiB]                    164

 --------------------------
 OPTIMIZATION STEP:      4
 --------------------------

 Extrapolation method: ASPC

 Number of electrons:                                                         48
 Number of occupied orbitals:                                                 24
 Number of molecular orbitals:                                                48

 Number of orbital functions:                                                 48
 Number of independent orbital functions:                                     48


 SCF WAVEFUNCTION OPTIMIZATION

  Step     Update method      Time    Convergence         Total energy    Change
  ------------------------------------------------------------------------------
     1 TBLite/Diag 0.40E+00    0.0     0.00123250       -25.4743859617 -2.55E+01
     2 TBLite/Diag 0.40E+00    0.0     0.00011030       -25.4743859737 -1.20E-08
     3 TBLite/Diag 0.40E+00    0.0     0.00018795       -25.4743859027  7.10E-08
     4 TBLite/Diag 0.40E+00    0.0     0.00014790       -25.4743859847 -8.20E-08
     5 TBLite/Diag 0.40E+00    0.0     0.00000822       -25.4743859847 -8.32E-12
     6 TBLite/Diag 0.40E+00    0.0     0.00000594       -25.4743859848 -4.12E-11
     7 TBLite/Diag 0.40E+00    0.0     0.00000097       -25.4743859848 -9.13E-13
     8 TBLite/Diag 0.40E+00    0.0     0.00000051       -25.4743859848 -4.26E-13
     9 TBLite/Diag 0.40E+00    0.0     0.00000010       -25.4743859848 -2.13E-14
    10 TBLite/Diag 0.40E+00    0.0     0.00000005       -25.4743859848 -1.78E-14
    11 TBLite/Diag 0.40E+00    0.0     0.00000002       -25.4743859848  1.78E-14
    12 TBLite/Diag 0.40E+00    0.0     7.2226E-09       -25.4743859848 -1.07E-14
    13 TBLite/Diag 0.40E+00    0.0     2.8323E-09       -25.4743859848  1.42E-14
    14 TBLite/Diag 0.40E+00    0.0     5.6984E-10       -25.4743859848 -1.07E-14

  *** SCF run converged in    14 steps ***


  Core Hamiltonian energy:                                    -25.98678316561676
  Repulsive potential energy:                                   0.50730348757296
  Electrostatic energy:                                         0.02174700262948
  Self-consistent dispersion energy:                           -0.01669040290554
  Non-self consistent dispersion energy:                        0.00003709356750
  Correction for halogen bonding:                               0.00000000000000
  Electronic entropic energy:                                  -0.00000000000000
  Fermi energy:                                                -0.29020686523801

  Total energy:                                               -25.47438598475237
  Total energy (extrapolated to T->0):                        -25.47438598475237

 ENERGY| Total FORCE_EVAL ( QS ) energy [hartree]            -25.474385984752374

 OPT| **************************************************************************
 OPT| Step number                                                              4
 OPT| Optimization method                                                   BFGS
 OPT| Total energy [hartree]                                      -25.4743859848
 OPT| Effective energy change [hartree]                            -0.0000041595
 OPT| Predicted energy change [hartree]                            -0.0000039193
 OPT| Scaling factor                                                0.0000000000
 OPT| Step size                                                     0.0054156724
 OPT| Trust radius                                                  0.4724315332
 OPT| Decrease in energy                                                     YES
 OPT| Used time [s]                                                        0.027
 OPT|
 OPT| Maximum step size                                             0.0054156724
 OPT| Convergence limit for maximum step size                       0.0030000000
 OPT| Maximum step size is converged                                          NO
 OPT|
 OPT| RMS step size                                                 0.0016515106
 OPT| Convergence limit for RMS step size                           0.0015000000
 OPT| RMS step size is converged                                              NO
 OPT|
 OPT| Maximum gradient                                              0.0001511237
 OPT| Convergence limit for maximum gradient                        0.0004500000
 OPT| Maximum gradient is converged                                          YES
 OPT|
 OPT| RMS gradient                                                  0.0000521737
 OPT| Convergence limit for RMS gradient                            0.0003000000
 OPT| RMS gradient is converged                                              YES
 OPT| **************************************************************************
 OPT| Estimated peak process memory after this step [MiB]                    164

 --------------------------
 OPTIMIZATION STEP:      5
 --------------------------

 Extrapolation method: ASPC

 Number of electrons:                                                         48
 Number of occupied orbitals:                                                 24
 Number of molecular orbitals:                                                48

 Number of orbital functions:                                                 48
 Number of independent orbital functions:                                     48


 SCF WAVEFUNCTION OPTIMIZATION

  Step     Update method      Time    Convergence         Total energy    Change
  ------------------------------------------------------------------------------
     1 TBLite/Diag 0.40E+00    0.0     0.00022655       -25.4743861025 -2.55E+01
     2 TBLite/Diag 0.40E+00    0.0     0.00003733       -25.4743861033 -7.69E-10
     3 TBLite/Diag 0.40E+00    0.0     0.00005983       -25.4743860974  5.84E-09
     4 TBLite/Diag 0.40E+00    0.0     0.00004674       -25.4743861041 -6.71E-09
     5 TBLite/Diag 0.40E+00    0.0     0.00000381       -25.4743861041 -3.32E-12
     6 TBLite/Diag 0.40E+00    0.0     0.00000230       -25.4743861041 -4.73E-12
     7 TBLite/Diag 0.40E+00    0.0     0.00000062       -25.4743861041 -7.43E-13
     8 TBLite/Diag 0.40E+00    0.0     0.00000012       -25.4743861041  2.49E-14
     9 TBLite/Diag 0.40E+00    0.0     0.00000007       -25.4743861041 -2.84E-14
    10 TBLite/Diag 0.40E+00    0.0     0.00000003       -25.4743861041  2.13E-14
    11 TBLite/Diag 0.40E+00    0.0     6.0817E-09       -25.4743861041 -1.78E-14
    12 TBLite/Diag 0.40E+00    0.0     1.5525E-09       -25.4743861041  3.55E-15
    13 TBLite/Diag 0.40E+00    0.0     6.8765E-10       -25.4743861041  1.42E-14

  *** SCF run converged in    13 steps ***


  Core Hamiltonian energy:                                    -25.98668750057603
  Repulsive potential energy:                                   0.50720322517985
  Electrostatic energy:                                         0.02175140052800
  Self-consistent dispersion energy:                           -0.01669031848403
  Non-self consistent dispersion energy:                        0.00003708921789
  Correction for halogen bonding:                               0.00000000000000
  Electronic entropic energy:                                  -0.00000000000000
  Fermi energy:                                                -0.29020308697880

  Total energy:                                               -25.47438610413432
  Total energy (extrapolated to T->0):                        -25.47438610413432

 ENERGY| Total FORCE_EVAL ( QS ) energy [hartree]            -25.474386104134318

 OPT| **************************************************************************
 OPT| Step number                                                              5
 OPT| Optimization method                                                   BFGS
 OPT| Total energy [hartree]                                      -25.4743861041
 OPT| Effective energy change [hartree]                            -0.0000001194
 OPT| Predicted energy change [hartree]                            -0.0000001476
 OPT| Scaling factor                                                0.0000000000
 OPT| Step size                                                     0.0005516069
 OPT| Trust radius                                                  0.4724315332
 OPT| Decrease in energy                                                     YES
 OPT| Used time [s]                                                        0.026
 OPT|
 OPT| Maximum step size                                             0.0005516069
 OPT| Convergence limit for maximum step size                       0.0030000000
 OPT| Maximum step size is converged                                         YES
 OPT|
 OPT| RMS step size                                                 0.0001958658
 OPT| Convergence limit for RMS step size                           0.0015000000
 OPT| RMS step size is converged                                             YES
 OPT|
 OPT| Maximum gradient                                              0.0000568218
 OPT| Convergence limit for maximum gradient                        0.0004500000
 OPT| Maximum gradient is converged                                          YES
 OPT|
 OPT| RMS gradient                                                  0.0000210646
 OPT| Convergence limit for RMS gradient                            0.0003000000
 OPT| RMS gradient is converged                                              YES
 OPT| **************************************************************************
 OPT| Estimated peak process memory after this step [MiB]                    164

 *******************************************************************************
 ***                    GEOMETRY OPTIMIZATION COMPLETED                      ***
 *******************************************************************************

 write_final_structure: Optimization converged, writing XYZ file gladly:
  naphthalene_GFN2_mol_geoopt-FINAL-1_5.xyz

 write_final_structure: Optimization converged, writing CIF file gladly:
  naphthalene_GFN2_mol_geoopt-FINAL-1_5.cif

 write_final_structure: Done!

                    Reevaluating energy at the minimum

 Extrapolation method: ASPC

 Number of electrons:                                                         48
 Number of occupied orbitals:                                                 24
 Number of molecular orbitals:                                                48

 Number of orbital functions:                                                 48
 Number of independent orbital functions:                                     48


 SCF WAVEFUNCTION OPTIMIZATION

  Step     Update method      Time    Convergence         Total energy    Change
  ------------------------------------------------------------------------------
     1 TBLite/Diag 0.40E+00    0.0     7.9971E-10       -25.4743861041 -2.55E+01

  *** SCF run converged in     1 steps ***


  Core Hamiltonian energy:                                    -25.98668750057095
  Repulsive potential energy:                                   0.50720322517985
  Electrostatic energy:                                         0.02175140052329
  Self-consistent dispersion energy:                           -0.01669031848440
  Non-self consistent dispersion energy:                        0.00003708921789
  Correction for halogen bonding:                               0.00000000000000
  Electronic entropic energy:                                  -0.00000000000000
  Fermi energy:                                                -0.29020308696409

  Total energy:                                               -25.47438610413432
  Total energy (extrapolated to T->0):                        -25.47438610413432

 ENERGY| Total FORCE_EVAL ( QS ) energy [hartree]            -25.474386104134318

 -------------------------------------------------------------------------------
 -                                                                             -
 -                                DBCSR STATISTICS                             -
 -                                                                             -
 -------------------------------------------------------------------------------
 COUNTER                                    TOTAL       BLAS       SMM       ACC
 flops     1 x    16 x     1                40960       0.0%    100.0%      0.0%     
 flops     1 x    32 x     1                81920       0.0%    100.0%      0.0%     
 flops     1 x    16 x     4               204800       0.0%    100.0%      0.0%     
 flops     4 x    16 x     1               204800       0.0%    100.0%      0.0%     
 flops     1 x     1 x    48               345600       0.0%    100.0%      0.0%     
 flops     1 x    32 x     4               409600       0.0%    100.0%      0.0%     
 flops     4 x    32 x     1               409600       0.0%    100.0%      0.0%     
 flops     4 x    16 x     4              1024000       0.0%    100.0%      0.0%     
 flops     1 x     4 x    48              1536000       0.0%    100.0%      0.0%     
 flops     4 x     1 x    48              1536000       0.0%    100.0%      0.0%     
 flops     4 x    32 x     4              2048000       0.0%    100.0%      0.0%     
 flops     4 x     4 x    48              8448000       0.0%    100.0%      0.0%     
 flops inhomo. stacks                           0       0.0%      0.0%      0.0%
 flops total                        16.289280E+06       0.0%    100.0%      0.0%
 flops max/rank                     16.289280E+06       0.0%    100.0%      0.0%
 matmuls inhomo. stacks                         0       0.0%      0.0%      0.0%
 matmuls total                              30060       0.0%    100.0%      0.0%
 number of processed stacks                   560       0.0%    100.0%      0.0%
 average stack size                                     0.0      53.7       0.0
 marketing flops                    15.482880E+06
 -------------------------------------------------------------------------------
 # multiplications                            120
 max memory usage/rank              13.670818E+09
 # max total images/rank                        1
 # max 3D layers                                1
 # MPI messages exchanged                       0
 -------------------------------------------------------------------------------
 -                                                                             -
 -                      DBCSR MESSAGE PASSING PERFORMANCE                      -
 -                                                                             -
 -------------------------------------------------------------------------------
 ROUTINE             CALLS      AVE VOLUME [Bytes]
 MP_Bcast               13                     12.
 MP_Allreduce          603                      9.
 MP_Alltoall          4132                  13039.
 MP_ISend              480                   1200.
 MP_IRecv              480                   1200.
 -------------------------------------------------------------------------------

 -------------------------------------------------------------------------------
 -                                                                             -
 -                          OFFLOAD MEMPOOL STATISTICS                         -
 -                                                                             -
 -------------------------------------------------------------------------------
 Memory consumption                Number of allocations  Used [MiB]  Size [MiB]
 Device                                                1           0           0
 Host                                                  1           0           0
 -------------------------------------------------------------------------------

 MEMORY| Estimated peak process memory [MiB]                                 164

 -------------------------------------------------------------------------------
 -                                                                             -
 -                         MESSAGE PASSING PERFORMANCE                         -
 -                                                                             -
 -------------------------------------------------------------------------------

 ROUTINE             CALLS      AVE VOLUME [Bytes]
 MP_Group                1
 MP_Bcast              193                    202.
 MP_Allreduce         2871                    144.
 MP_Sync               101
 MP_comm_split         100
 -------------------------------------------------------------------------------


 -------------------------------------------------------------------------------
 -                                                                             -
 -                           R E F E R E N C E S                               -
 -                                                                             -
 -------------------------------------------------------------------------------
 
 CP2K version 2026.1 (Development Version), the CP2K developers group (2026).
 CP2K is freely available from https://www.cp2k.org/ .
 
 M. Iannuzzi, J. Wilhelm, F. Stein, A. Bussy, H. Elgabarty, D. Golze, A. Hehn, 
 M. Graml, S. Marek, B. Sertcan Gökmen, C. Schran, H. Forbert, R. Z. 
 Khaliullin, A. Kozhevnikov, M. Taillefumier, R. Meli, V. V. Rybkin, M. Brehm, 
 R. Schade, O. Schütt, J. V. Pototschnig, H. Mirhosseini, A. Knüpfer, D. Marx, 
 M. Krack, J. Hutter, T. D. Kühne.
 J. Phys. Chem. B 130, 1237-1310 (2026).
 The CP2K Program Package Made Simple.
 https://doi.org/10.1021/acs.jpcb.5c05851

 A. Katbashev, M. Stahn, T. Rose, V. Alizadeh, M. Friede, C. Plett, P. 
 Steinbach, S. Ehlert.
 J. Phys. Chem. A 129, 2667-2682 (2025).
 Overview on Building Blocks and Applications of Efficient and Robust Extended 
 Tight Binding.
 https://doi.org/10.1021/acs.jpca.4c08263

 T. D. Kühne, M. Iannuzzi, M. Del Ben, V. V. Rybkin, P. Seewald, F. Stein, T. 
 Laino, R. Z. Khaliullin, O. Schütt, F. Schiffmann, D. Golze, J. Wilhelm, S. 
 Chulkov, M. H. Bani-Hashemian, V. Weber, U. Borstnik, M. Taillefumier, A. S. 
 Jakobovits, A. Lazzaro, H. Pabst, T. Müller, R. Schade, M. Guidon, S. 
 Andermatt, N. Holmberg, G. K. Schenter, A. Hehn, A. Bussy, F. Belleflamme, G. 
 Tabacchi, A. Glöß, M. Lass, I. Bethune, C. J. Mundy, C. Plessl, M. Watkins, 
 J. VandeVondele, M. Krack, J. Hutter.
 J. Chem. Phys. 152, 194103 (2020).
 CP2K: An electronic structure and molecular dynamics software package - 
 Quickstep: Efficient and accurate electronic structure calculations.
 https://doi.org/10.1063/5.0007045

 P. Pracht, E. Caldeweyher, S. Ehlert, S. Grimme.
 ChemRxiv, (2019).
 A Robust Non-Self-Consistent Tight-Binding Quantum Chemistry Method for large 
 Molecules.
 https://doi.org/10.26434/chemrxiv.8326202.v1

 S. Grimme, C. Bannwarth, P. Shushkov.
 J. Chem. Theory Comput. 13, 1989 (2017).
 A Robust and Accurate Tight-Binding Quantum Chemical Method for Structures, 
 Vibrational Frequencies, and Noncovalent Interactions of Large Molecular 
 Systems Parametrized for All spd-Block Elements (Z = 1-86).
 https://doi.org/10.1021/acs.jctc.7b00118

 O. Schuett, P. Messmer, J. Hutter, J. VandeVondele.
 Electronic Structure Calculations on Graphics Processing Units, 173-190 (2016).
 GPU-Accelerated Sparse Matrix-Matrix Multiplication for Linear Scaling Density 
 Functional Theory.
 https://doi.org/10.1002/9781118670712.ch8

 A. Heinecke, G. Henry, M. Hutchinson, H. Pabst.
 Proceedings of Intl. Supercomputing Conference, 981-991 (2016).
 LIBXSMM: Accelerating Small Matrix Multiplications by Runtime Code Generation.
 https://doi.org/10.1109/SC.2016.83

 U. Borstnik, J. VandeVondele, V. Weber, J. Hutter.
 Parallel Comput. 40, 47-58 (2014).
 Sparse matrix multiplication: The distributed block-compressed sparse row 
 library.
 https://doi.org/10.1016/j.parco.2014.03.012

 T. D. Kühne, M. Krack, F. R. Mohamed, M. Parrinello.
 Phys. Rev. Lett. 98, 066401 (2007).
 Efficient and accurate Car-Parrinello-like approach to Born-Oppenheimer 
 molecular dynamics.
 https://doi.org/10.1103/PhysRevLett.98.066401

 M. Frigo, S. G. Johnson.
 Proc. IEEE 93, 216-231 (2005).
 The design and implementation of FFTW3.
 https://doi.org/10.1109/JPROC.2004.840301

 J. Kolafa.
 J. Comput. Chem. 25, 335-342 (2004).
 Time-reversible always stable predictor-corrector method for molecular dynamics 
 of polarizable molecules.
 https://doi.org/10.1002/jcc.10385

 N. D. Mermin.
 Phys. Rev. 137, A1441-A1443 (1965).
 Thermal Properties of the Inhomogeneous Electron Gas.
 https://doi.org/10.1103/PhysRev.137.A1441


 -------------------------------------------------------------------------------
 -                                                                             -
 -                                T I M I N G                                  -
 -                                                                             -
 -------------------------------------------------------------------------------
 SUBROUTINE                       CALLS  ASD         SELF TIME        TOTAL TIME
                                MAXIMUM       AVERAGE  MAXIMUM  AVERAGE  MAXIMUM
 CP2K                                 1  1.0    0.002    0.002    0.174    0.174
 cp_geo_opt                           1  2.0    0.000    0.000    0.169    0.169
 geoopt_bfgs                          1  3.0    0.001    0.001    0.169    0.169
 cp_eval_at                           7  4.0    0.000    0.000    0.164    0.164
 qs_forces                            6  5.0    0.000    0.000    0.158    0.158
 qs_energies                          7  5.9    0.000    0.000    0.145    0.145
 scf_env_do_scf                       7  6.9    0.000    0.000    0.120    0.120
 scf_env_do_scf_inner_loop           88  8.0    0.015    0.015    0.120    0.120
 qs_scf_new_mos                      88  9.0    0.000    0.000    0.072    0.072
 rebuild_ks_matrix                   94  9.8    0.000    0.000    0.036    0.036
 build_tblite_ks_matrix              94 10.8    0.035    0.035    0.036    0.036
 cp_dbcsr_plus_fm_fm_t              100 10.9    0.000    0.000    0.033    0.033
 calculate_dm_sparse                 94 10.0    0.000    0.000    0.031    0.031
 qs_ks_update_qs_env                 88  9.0    0.000    0.000    0.029    0.029
 dbcsr_multiply_generic             120 11.9    0.001    0.001    0.027    0.027
 copy_dbcsr_to_fm                   196 10.5    0.001    0.001    0.021    0.021
 dbcsr_complete_redistribute        416 12.2    0.012    0.012    0.019    0.019
 build_tblite_matrices               13  7.0    0.008    0.008    0.019    0.019
 eigensolver                         88 10.0    0.001    0.001    0.018    0.018
 cp_fm_syevd                        100 10.7    0.000    0.000    0.017    0.017
 make_m2s                           240 12.9    0.001    0.001    0.014    0.014
 cp_fm_syevd_base                   100 11.7    0.013    0.013    0.013    0.013
 qs_diis_b_step                      81 10.0    0.000    0.000    0.013    0.013
 init_scf_run                         7  6.9    0.000    0.000    0.012    0.012
 scf_env_initial_rho_setup            7  7.9    0.000    0.000    0.010    0.010
 wfi_extrapolate                      7  8.9    0.000    0.000    0.010    0.010
 qs_energies_init_hamiltonians        7  6.9    0.000    0.000    0.010    0.010
 tb_get_multipole                    13  8.0    0.008    0.008    0.010    0.010
 copy_fm_to_dbcsr                   220 11.8    0.000    0.000    0.009    0.009
 qs_ks_update_qs_env_forces           6  6.0    0.000    0.000    0.009    0.009
 multiply_cannon                    120 12.9    0.002    0.002    0.006    0.006
 make_images                        240 13.9    0.002    0.002    0.006    0.006
 cp_dbcsr_sm_fm_multiply             20 10.3    0.000    0.000    0.006    0.006
 dbcsr_finalize                    2208 12.3    0.001    0.001    0.006    0.006
 dbcsr_desymmetrize_deep            196 11.5    0.003    0.003    0.005    0.005
 dbcsr_crop_matrix                  200 13.9    0.000    0.000    0.004    0.004
 dbcsr_create_new                  3163 13.1    0.003    0.003    0.004    0.004
 cp_dbcsr_sm_fm_multiply_core        20 11.3    0.000    0.000    0.004    0.004
 -------------------------------------------------------------------------------

 The number of warnings for this run is : 0
 
 -------------------------------------------------------------------------------
  **** **** ******  **  PROGRAM ENDED AT                 2026-05-23 22:46:20.903
 ***** ** ***  *** **   PROGRAM RAN ON                                spark-c86c
 **    ****   ******    PROGRAM RAN BY                                  kuehne88
 ***** **    ** ** **   PROGRAM PROCESS ID                               2227532
  **** **  *******  **  PROGRAM STOPPED IN /home/kuehne88/periodic-gfn2-benchmar
                                           ks/X23b/runs/molecule_geoopt/GFN2/nap
                                           hthalene_GFN2_mol_geoopt
