 DBCSR| CPU Multiplication driver                                           XSMM (U)
 DBCSR| Multrec recursion limit                                              512 (U)
 DBCSR| Multiplication stack size                                           1000 (D)
 DBCSR| Maximum elements for images                                    UNLIMITED (U)
 DBCSR| Multiplicative factor virtual images                                   1 (U)
 DBCSR| Use multiplication densification                                       T (D)
 DBCSR| Multiplication size stacks                                             3 (U)
 DBCSR| Use memory pool for CPU allocation                                     F (U)
 DBCSR| Number of 3D layers                                               SINGLE (U)
 DBCSR| Use MPI memory allocation                                              F (U)
 DBCSR| Use RMA algorithm                                                      F (U)
 DBCSR| Use Communication thread                                               T (U)
 DBCSR| Communication thread load                                             87 (D)
 DBCSR| MPI: My process id                                                     0
 DBCSR| MPI: Number of processes                                               1
 DBCSR| OMP: Current number of threads                                         1
 DBCSR| OMP: Max number of threads                                             1
 DBCSR| Split modifier for TAS multiplication algorithm                  1.0E+00 (U)


  **** **** ******  **  PROGRAM STARTED AT               2026-05-23 22:48:16.065
 ***** ** ***  *** **   PROGRAM STARTED ON                            spark-c86c
 **    ****   ******    PROGRAM STARTED BY                              kuehne88
 ***** **    ** ** **   PROGRAM PROCESS ID                               2271161
  **** **  *******  **  PROGRAM STARTED IN /home/kuehne88/periodic-gfn2-benchmar
                                           ks/X23b/runs/cellopt_gamma/GFN2/triox
                                           ane_GFN2_gamma_cellopt

 CP2K| version string:                 CP2K version 2026.1 (Development Version)
 CP2K| source code revision number:                                   0622d442e4
 CP2K| cp2kflags: omp fftw3 libxc parallel scalapack mpi_f08 xsmm spglib libdftd
 CP2K|            4 dftd4_v3 mctc-lib tblite
 CP2K| is freely available from                            https://www.cp2k.org/
 CP2K| Program compiled at                                   2026-05-23 22:05:08
 CP2K| Program compiled on                                            spark-c86c
 CP2K| Program compiled for                                              aarch64
 CP2K| Data directory path    /home/kuehne88/cp2k-master-tblite-20260523/install
 CP2K| Input file name                           trioxane_GFN2_gamma_cellopt.inp

 GLOBAL| Force Environment number                                              1
 GLOBAL| Basis set file name                                           BASIS_SET
 GLOBAL| Potential file name                                           POTENTIAL
 GLOBAL| MM Potential file name                                     MM_POTENTIAL
 GLOBAL| Coordinate file name                                      __STD_INPUT__
 GLOBAL| Method name                                                        CP2K
 GLOBAL| Project name                               trioxane_GFN2_gamma_cell_opt
 GLOBAL| Run type                                                       CELL_OPT
 GLOBAL| FFT library                                                       FFTW3
 GLOBAL| Diagonalization library                                       ScaLAPACK
 GLOBAL| Cholesky decomposition library                                ScaLAPACK
 GLOBAL| DGEMM library                                                      BLAS
 GLOBAL| Direct generalized diagonalization requested                          F
 GLOBAL| Orthonormality check for eigenvectors                          DISABLED
 GLOBAL| Matrix multiplication library                                 ScaLAPACK
 GLOBAL| All-to-all communication in single precision                          F
 GLOBAL| FFTs using library dependent lengths                                  F
 GLOBAL| Grid backend                                                       AUTO
 GLOBAL| Global print level                                                  LOW
 GLOBAL| MPI I/O enabled                                                       T
 GLOBAL| Total number of message passing processes                             1
 GLOBAL| Number of distributed systems (nodes)                                 1
 GLOBAL| Number of threads for this process                                    1
 GLOBAL| This output is from process                                           0
 GLOBAL| OpenMP stack size per thread (OMP_STACKSIZE)                    default
 GLOBAL| CPU model name                                                  UNKNOWN
 GLOBAL| CPUID                                                              2200
 GLOBAL| Compiled for CPUID                                                 2000

 *** HINT in environment.F:970 :: The compiler target flags (arm_arch64)   ***
 *** used to build this binary cannot exploit all extensions of this CPU   ***
 *** model (arm_sve256). Consider compiler target flags as part of FCFLAGS ***
 *** and CFLAGS (ARCH file).                                               ***


 MEMORY| system memory details [Kb]
 MEMORY|                        rank 0           min           max       average
 MEMORY| MemTotal            125508532     125508532     125508532     125508532
 MEMORY| MemFree             104346564     104346564     104346564     104346564
 MEMORY| Buffers                868572        868572        868572        868572
 MEMORY| Cached               14100096      14100096      14100096      14100096
 MEMORY| Slab                  1599708       1599708       1599708       1599708
 MEMORY| SReclaimable           921492        921492        921492        921492
 MEMORY| MemLikelyFree       120236724     120236724     120236724     120236724


 GENERATE|  Preliminary Number of Bonds generated:                             0
 GENERATE|  Achieved consistency in connectivity generation.


                  #####   #####        #     #   #     #       #          
                 #     # #     #      #    ##### #     #   # #####  ####  
                 #     # #           #       #   ###   #       #   #    # 
                 #     #  #####     #        #   #  #  #   #   #   ###### 
                 #   # #       #   #         #   #   # #   #   #   #      
                 #    #  #     #  #          #   #  #  # # #   #    #   # 
                  #### #  #####  #           #   ###   ##  #   #     ###  

                                   GFN2-xTB  
                                 Version 0.0                       
                            Johann V. Pototschnig                  



 TOTAL NUMBERS AND MAXIMUM NUMBERS

  Total number of            - Atomic kinds:                                   3
                             - Atoms:                                         72
                             - Shell sets:                                   108
                             - Shells:                                       108
                             - Primitive Cartesian functions:                396
                             - Cartesian basis functions:                    180
                             - Spherical basis functions:                    180

  Maximum angular momentum of the orbital basis functions:                     1


 SCF PARAMETERS         Density guess:                                     MOPAC
                        --------------------------------------------------------
                        max_scf:                                             300
                        max_scf_history:                                       0
                        max_diis:                                              4
                        --------------------------------------------------------
                        eps_scf:                                        1.00E-09
                        eps_scf_history:                                0.00E+00
                        eps_diis:                                       1.00E-01
                        eps_eigval:                                     1.00E-05
                        --------------------------------------------------------
                        level_shift [a.u.]:                             0.000000
                        added MOs                                        72    0
                        --------------------------------------------------------
                        Mixing method:                           DIRECT_P_MIXING
                        --------------------------------------------------------
                        Smear method:                                FERMI_DIRAC
                        Electronic temperature [K]:                        300.0
                        Electronic temperature [a.u.]:                  9.50E-04
                        Accuracy threshold:                             1.00E-06
                        --------------------------------------------------------
                        No outer SCF

 CELL_OPT| Pressure tolerance [bar]:                                       100.0
 CELL_OPT| Keep volume of cell:                                               NO
 CELL_OPT| Keep angles between the cell vectors:                              NO
 CELL_OPT| Keep cell symmetry:                                                NO
 CELL_OPT| Constraint:                                                      NONE

 BFGS| Use rational function optimization for step estimation:                NO
 BFGS| Use model Hessian for initial guess:                                   NO
 BFGS| Restart Hessian:                                                       NO
 BFGS| Trust radius:                                                       0.472

 *******************************************************************************
 ***                     STARTING   CELL   OPTIMIZATION                      ***
 ***                                   BFGS                                  ***
 *******************************************************************************

 CELL| Volume [angstrom^3]:                                           616.544469
 CELL| Vector a [angstrom]:       9.320     0.000     0.000   |a| =     9.320000
 CELL| Vector b [angstrom]:      -4.660     8.071     0.000   |b| =     9.320000
 CELL| Vector c [angstrom]:       0.000     0.000     8.196   |c| =     8.196000
 CELL| Angle (b,c), alpha [degree]:                                    90.000000
 CELL| Angle (a,c), beta  [degree]:                                    90.000000
 CELL| Angle (a,b), gamma [degree]:                                   120.000000
 CELL| Numerically orthorhombic:                                              NO
 CELL| Periodicity                                                           XYZ

 Extrapolation method: initial_guess

 Number of electrons:                                                        216
 Number of occupied orbitals:                                                108
 Number of molecular orbitals:                                               180

 Number of orbital functions:                                                180
 Number of independent orbital functions:                                    180


 SCF WAVEFUNCTION OPTIMIZATION

  Step     Update method      Time    Convergence         Total energy    Change
  ------------------------------------------------------------------------------
     1 TBLite/Diag 0.40E+00    0.0     0.67073612      -129.0275263454 -1.29E+02
     2 TBLite/Diag 0.40E+00    0.0     0.18370283      -130.0902241342 -1.06E+00
     3 TBLite/Diag 0.40E+00    0.0     0.02856107      -130.1163507582 -2.61E-02
     4 TBLite/Diag 0.40E+00    0.0     0.01367388      -130.1185839365 -2.23E-03
     5 TBLite/Diag 0.40E+00    0.0     0.00528342      -130.1189015900 -3.18E-04
     6 TBLite/Diag 0.40E+00    0.0     0.00140601      -130.1189131721 -1.16E-05
     7 TBLite/Diag 0.40E+00    0.0     0.00068783      -130.1189195758 -6.40E-06
     8 TBLite/Diag 0.40E+00    0.0     0.00011930      -130.1189198100 -2.34E-07
     9 TBLite/Diag 0.40E+00    0.0     0.00002221      -130.1189198255 -1.55E-08
    10 TBLite/Diag 0.40E+00    0.0     0.00000216      -130.1189198255 -2.59E-11
    11 TBLite/Diag 0.40E+00    0.0     0.00000095      -130.1189198255 -1.83E-11
    12 TBLite/Diag 0.40E+00    0.0     0.00000013      -130.1189198255  1.42E-13
    13 TBLite/Diag 0.40E+00    0.0     0.00000002      -130.1189198255 -3.98E-13
    14 TBLite/Diag 0.40E+00    0.0     8.7026E-09      -130.1189198255 -4.83E-13
    15 TBLite/Diag 0.40E+00    0.0     4.2853E-09      -130.1189198255  4.55E-13
    16 TBLite/Diag 0.40E+00    0.0     4.4447E-10      -130.1189198255  5.68E-14

  *** SCF run converged in    16 steps ***


  Core Hamiltonian energy:                                   -131.28453377589861
  Repulsive potential energy:                                   0.97953698233711
  Electrostatic energy:                                         0.30501575900942
  Self-consistent dispersion energy:                           -0.14796900440558
  Non-self consistent dispersion energy:                        0.02903021341617
  Correction for halogen bonding:                               0.00000000000000
  Electronic entropic energy:                                  -0.00000000000000
  Fermi energy:                                                -0.05101730761258

  Total energy:                                              -130.11891982554150
  Total energy (extrapolated to T->0):                       -130.11891982554150

 ENERGY| Total FORCE_EVAL ( QS ) energy [hartree]           -130.118919825541496

 OPT| **************************************************************************
 OPT| Step number                                                              0
 OPT| Optimization method                                                   BFGS
 OPT| Total energy [hartree]                                     -130.1189198255
 OPT| Internal pressure [bar]                                   24636.6977227166
 OPT| Used time [s]                                                        5.811
 OPT| **************************************************************************
 OPT| Estimated peak process memory [MiB]                                    176

 --------------------------
 OPTIMIZATION STEP:      1
 --------------------------

 CELL| Volume [angstrom^3]:                                           619.120250
 CELL| Vector a [angstrom]:       9.327     0.000     0.000   |a| =     9.326793
 CELL| Vector b [angstrom]:      -4.660     8.079     0.000   |b| =     9.326793
 CELL| Vector c [angstrom]:      -0.000     0.000     8.216   |c| =     8.216263
 CELL| Angle (b,c), alpha [degree]:                                    89.999998
 CELL| Angle (a,c), beta  [degree]:                                    90.000002
 CELL| Angle (a,b), gamma [degree]:                                   119.975913
 CELL| Numerically orthorhombic:                                              NO
 CELL| Periodicity                                                           XYZ

 Extrapolation method: ASPC

 Number of electrons:                                                        216
 Number of occupied orbitals:                                                108
 Number of molecular orbitals:                                               180

 Number of orbital functions:                                                180
 Number of independent orbital functions:                                    180


 SCF WAVEFUNCTION OPTIMIZATION

  Step     Update method      Time    Convergence         Total energy    Change
  ------------------------------------------------------------------------------
     1 TBLite/Diag 0.40E+00    0.0     0.02449106      -130.1497639481 -1.30E+02
     2 TBLite/Diag 0.40E+00    0.0     0.00304958      -130.1499826017 -2.19E-04
     3 TBLite/Diag 0.40E+00    0.0     0.00097943      -130.1500008903 -1.83E-05
     4 TBLite/Diag 0.40E+00    0.0     0.00034345      -130.1500011807 -2.90E-07
     5 TBLite/Diag 0.40E+00    0.0     0.00023156      -130.1500018430 -6.62E-07
     6 TBLite/Diag 0.40E+00    0.0     0.00001078      -130.1500018439 -9.44E-10
     7 TBLite/Diag 0.40E+00    0.0     0.00000162      -130.1500018440 -5.34E-11
     8 TBLite/Diag 0.40E+00    0.0     0.00000102      -130.1500018440 -1.22E-11
     9 TBLite/Diag 0.40E+00    0.0     0.00000034      -130.1500018440 -1.45E-12
    10 TBLite/Diag 0.40E+00    0.0     0.00000013      -130.1500018440  5.68E-14
    11 TBLite/Diag 0.40E+00    0.0     0.00000004      -130.1500018440 -1.71E-13
    12 TBLite/Diag 0.40E+00    0.0     4.6719E-09      -130.1500018440 -2.27E-13
    13 TBLite/Diag 0.40E+00    0.0     2.5017E-09      -130.1500018440  2.27E-13
    14 TBLite/Diag 0.40E+00    0.0     3.5029E-10      -130.1500018440  0.00E+00

  *** SCF run converged in    14 steps ***


  Core Hamiltonian energy:                                   -131.20960390965678
  Repulsive potential energy:                                   0.88154945130079
  Electrostatic energy:                                         0.29708072125859
  Self-consistent dispersion energy:                           -0.14775986327054
  Non-self consistent dispersion energy:                        0.02873175637322
  Correction for halogen bonding:                               0.00000000000000
  Electronic entropic energy:                                  -0.00000000000000
  Fermi energy:                                                -0.03736658879721

  Total energy:                                              -130.15000184399469
  Total energy (extrapolated to T->0):                       -130.15000184399469

 ENERGY| Total FORCE_EVAL ( QS ) energy [hartree]           -130.150001843994687

 OPT| **************************************************************************
 OPT| Step number                                                              1
 OPT| Optimization method                                                   BFGS
 OPT| Total energy [hartree]                                     -130.1500018440
 OPT| Internal pressure [bar]                                   11732.5100338902
 OPT| Effective energy change [hartree]                            -0.0310820185
 OPT| Predicted energy change [hartree]                            -0.0231990649
 OPT| Scaling factor                                                0.0000000000
 OPT| Step size                                                     0.0382917265
 OPT| Trust radius                                                  0.4724315332
 OPT| Decrease in energy                                                     YES
 OPT| Used time [s]                                                        5.045
 OPT|
 OPT| Maximum step size                                             0.0382917265
 OPT| Convergence limit for maximum step size                       0.0030000000
 OPT| Maximum step size is converged                                          NO
 OPT|
 OPT| RMS step size                                                 0.0144568525
 OPT| Convergence limit for RMS step size                           0.0015000000
 OPT| RMS step size is converged                                              NO
 OPT|
 OPT| Maximum gradient                                              0.0133499391
 OPT| Convergence limit for maximum gradient                        0.0004500000
 OPT| Maximum gradient is converged                                           NO
 OPT|
 OPT| RMS gradient                                                  0.0060136528
 OPT| Convergence limit for RMS gradient                            0.0003000000
 OPT| RMS gradient is converged                                               NO
 OPT|
 OPT| Pressure deviation [bar]                                  11732.5100338902
 OPT| Pressure tolerance [bar]                                    100.0000000000
 OPT| Pressure is converged                                                   NO
 OPT| **************************************************************************
 OPT| Estimated peak process memory after this step [MiB]                    179

 --------------------------
 OPTIMIZATION STEP:      2
 --------------------------

 CELL| Volume [angstrom^3]:                                           621.229640
 CELL| Vector a [angstrom]:       9.337     0.000     0.000   |a| =     9.337245
 CELL| Vector b [angstrom]:      -4.660     8.091     0.000   |b| =     9.337247
 CELL| Vector c [angstrom]:       0.000    -0.000     8.223   |c| =     8.222987
 CELL| Angle (b,c), alpha [degree]:                                    90.000187
 CELL| Angle (a,c), beta  [degree]:                                    89.999813
 CELL| Angle (a,b), gamma [degree]:                                   119.941813
 CELL| Numerically orthorhombic:                                              NO
 CELL| Periodicity                                                           XYZ

 Extrapolation method: ASPC

 Number of electrons:                                                        216
 Number of occupied orbitals:                                                108
 Number of molecular orbitals:                                               180

 Number of orbital functions:                                                180
 Number of independent orbital functions:                                    180


 SCF WAVEFUNCTION OPTIMIZATION

  Step     Update method      Time    Convergence         Total energy    Change
  ------------------------------------------------------------------------------
     1 TBLite/Diag 0.40E+00    0.0     0.01635153      -130.1595919197 -1.30E+02
     2 TBLite/Diag 0.40E+00    0.0     0.00192392      -130.1596801028 -8.82E-05
     3 TBLite/Diag 0.40E+00    0.0     0.00059643      -130.1596852170 -5.11E-06
     4 TBLite/Diag 0.40E+00    0.0     0.00019356      -130.1596855400 -3.23E-07
     5 TBLite/Diag 0.40E+00    0.0     0.00012687      -130.1596857256 -1.86E-07
     6 TBLite/Diag 0.40E+00    0.0     0.00000677      -130.1596857259 -2.78E-10
     7 TBLite/Diag 0.40E+00    0.0     0.00000100      -130.1596857259 -1.49E-11
     8 TBLite/Diag 0.40E+00    0.0     0.00000060      -130.1596857259 -2.79E-12
     9 TBLite/Diag 0.40E+00    0.0     0.00000018      -130.1596857259 -3.98E-13
    10 TBLite/Diag 0.40E+00    0.0     0.00000004      -130.1596857259  1.71E-13
    11 TBLite/Diag 0.40E+00    0.0     0.00000003      -130.1596857259 -8.53E-14
    12 TBLite/Diag 0.40E+00    0.0     2.5594E-09      -130.1596857259  8.53E-14
    13 TBLite/Diag 0.40E+00    0.0     1.6171E-09      -130.1596857259 -1.71E-13
    14 TBLite/Diag 0.40E+00    0.0     2.6081E-10      -130.1596857259  8.53E-14

  *** SCF run converged in    14 steps ***


  Core Hamiltonian energy:                                   -131.16828181780681
  Repulsive potential energy:                                   0.83478538022745
  Electrostatic energy:                                         0.29288143629213
  Self-consistent dispersion energy:                           -0.14759678625218
  Non-self consistent dispersion energy:                        0.02852606161446
  Correction for halogen bonding:                               0.00000000000000
  Electronic entropic energy:                                  -0.00000000000000
  Fermi energy:                                                -0.03165511548336

  Total energy:                                              -130.15968572592493
  Total energy (extrapolated to T->0):                       -130.15968572592493

 ENERGY| Total FORCE_EVAL ( QS ) energy [hartree]           -130.159685725924930

 OPT| **************************************************************************
 OPT| Step number                                                              2
 OPT| Optimization method                                                   BFGS
 OPT| Total energy [hartree]                                     -130.1596857259
 OPT| Internal pressure [bar]                                    4267.4906246665
 OPT| Effective energy change [hartree]                            -0.0096838819
 OPT| Predicted energy change [hartree]                            -0.0071525831
 OPT| Scaling factor                                                0.0000000000
 OPT| Step size                                                     0.0226255202
 OPT| Trust radius                                                  0.4724315332
 OPT| Decrease in energy                                                     YES
 OPT| Used time [s]                                                        2.834
 OPT|
 OPT| Maximum step size                                             0.0226255202
 OPT| Convergence limit for maximum step size                       0.0030000000
 OPT| Maximum step size is converged                                          NO
 OPT|
 OPT| RMS step size                                                 0.0107507571
 OPT| Convergence limit for RMS step size                           0.0015000000
 OPT| RMS step size is converged                                              NO
 OPT|
 OPT| Maximum gradient                                              0.0104059503
 OPT| Convergence limit for maximum gradient                        0.0004500000
 OPT| Maximum gradient is converged                                           NO
 OPT|
 OPT| RMS gradient                                                  0.0040942413
 OPT| Convergence limit for RMS gradient                            0.0003000000
 OPT| RMS gradient is converged                                               NO
 OPT|
 OPT| Pressure deviation [bar]                                   4267.4906246665
 OPT| Pressure tolerance [bar]                                    100.0000000000
 OPT| Pressure is converged                                                   NO
 OPT| **************************************************************************
 OPT| Estimated peak process memory after this step [MiB]                    181

 --------------------------
 OPTIMIZATION STEP:      3
 --------------------------

 CELL| Volume [angstrom^3]:                                           623.004643
 CELL| Vector a [angstrom]:       9.350     0.000     0.000   |a| =     9.350195
 CELL| Vector b [angstrom]:      -4.661     8.105     0.000   |b| =     9.350201
 CELL| Vector c [angstrom]:       0.000    -0.000     8.220   |c| =     8.220467
 CELL| Angle (b,c), alpha [degree]:                                    90.000647
 CELL| Angle (a,c), beta  [degree]:                                    89.999353
 CELL| Angle (a,b), gamma [degree]:                                   119.903254
 CELL| Numerically orthorhombic:                                              NO
 CELL| Periodicity                                                           XYZ

 Extrapolation method: ASPC

 Number of electrons:                                                        216
 Number of occupied orbitals:                                                108
 Number of molecular orbitals:                                               180

 Number of orbital functions:                                                180
 Number of independent orbital functions:                                    180


 SCF WAVEFUNCTION OPTIMIZATION

  Step     Update method      Time    Convergence         Total energy    Change
  ------------------------------------------------------------------------------
     1 TBLite/Diag 0.40E+00    0.0     0.00891286      -130.1658740866 -1.30E+02
     2 TBLite/Diag 0.40E+00    0.0     0.00088010      -130.1658974946 -2.34E-05
     3 TBLite/Diag 0.40E+00    0.0     0.00031871      -130.1658982647 -7.70E-07
     4 TBLite/Diag 0.40E+00    0.0     0.00009355      -130.1658985942 -3.29E-07
     5 TBLite/Diag 0.40E+00    0.0     0.00004298      -130.1658986123 -1.82E-08
     6 TBLite/Diag 0.40E+00    0.0     0.00000468      -130.1658986127 -4.05E-10
     7 TBLite/Diag 0.40E+00    0.0     0.00000144      -130.1658986128 -3.73E-11
     8 TBLite/Diag 0.40E+00    0.0     0.00000051      -130.1658986128 -5.88E-12
     9 TBLite/Diag 0.40E+00    0.0     0.00000026      -130.1658986128 -7.96E-13
    10 TBLite/Diag 0.40E+00    0.0     0.00000005      -130.1658986128  8.53E-14
    11 TBLite/Diag 0.40E+00    0.0     0.00000002      -130.1658986128 -1.99E-13
    12 TBLite/Diag 0.40E+00    0.0     2.3315E-09      -130.1658986128  8.53E-14
    13 TBLite/Diag 0.40E+00    0.0     1.0052E-09      -130.1658986128  0.00E+00
    14 TBLite/Diag 0.40E+00    0.0     1.8346E-10      -130.1658986128 -1.14E-13

  *** SCF run converged in    14 steps ***


  Core Hamiltonian energy:                                   -131.14922798811918
  Repulsive potential energy:                                   0.81047812039364
  Electrostatic energy:                                         0.29185576425622
  Self-consistent dispersion energy:                           -0.14737631215756
  Non-self consistent dispersion energy:                        0.02837180285557
  Correction for halogen bonding:                               0.00000000000000
  Electronic entropic energy:                                  -0.00000000000000
  Fermi energy:                                                -0.03010127464926

  Total energy:                                              -130.16589861277131
  Total energy (extrapolated to T->0):                       -130.16589861277131

 ENERGY| Total FORCE_EVAL ( QS ) energy [hartree]           -130.165898612771315

 OPT| **************************************************************************
 OPT| Step number                                                              3
 OPT| Optimization method                                                   BFGS
 OPT| Total energy [hartree]                                     -130.1658986128
 OPT| Internal pressure [bar]                                   -1989.3366100952
 OPT| Effective energy change [hartree]                            -0.0062128868
 OPT| Predicted energy change [hartree]                            -0.0039681677
 OPT| Scaling factor                                                0.0000000000
 OPT| Step size                                                     0.0271436246
 OPT| Trust radius                                                  0.4724315332
 OPT| Decrease in energy                                                     YES
 OPT| Used time [s]                                                        2.829
 OPT|
 OPT| Maximum step size                                             0.0271436246
 OPT| Convergence limit for maximum step size                       0.0030000000
 OPT| Maximum step size is converged                                          NO
 OPT|
 OPT| RMS step size                                                 0.0104433338
 OPT| Convergence limit for RMS step size                           0.0015000000
 OPT| RMS step size is converged                                              NO
 OPT|
 OPT| Maximum gradient                                              0.0158385422
 OPT| Convergence limit for maximum gradient                        0.0004500000
 OPT| Maximum gradient is converged                                           NO
 OPT|
 OPT| RMS gradient                                                  0.0043493259
 OPT| Convergence limit for RMS gradient                            0.0003000000
 OPT| RMS gradient is converged                                               NO
 OPT|
 OPT| Pressure deviation [bar]                                  -1989.3366100952
 OPT| Pressure tolerance [bar]                                    100.0000000000
 OPT| Pressure is converged                                                   NO
 OPT| **************************************************************************
 OPT| Estimated peak process memory after this step [MiB]                    181

 --------------------------
 OPTIMIZATION STEP:      4
 --------------------------

 CELL| Volume [angstrom^3]:                                           625.177752
 CELL| Vector a [angstrom]:       9.372     0.000     0.000   |a| =     9.372030
 CELL| Vector b [angstrom]:      -4.664     8.129     0.000   |b| =     9.372047
 CELL| Vector c [angstrom]:       0.000    -0.000     8.206   |c| =     8.206018
 CELL| Angle (b,c), alpha [degree]:                                    90.001839
 CELL| Angle (a,c), beta  [degree]:                                    89.998160
 CELL| Angle (a,b), gamma [degree]:                                   119.845894
 CELL| Numerically orthorhombic:                                              NO
 CELL| Periodicity                                                           XYZ

 Extrapolation method: ASPC

 Number of electrons:                                                        216
 Number of occupied orbitals:                                                108
 Number of molecular orbitals:                                               180

 Number of orbital functions:                                                180
 Number of independent orbital functions:                                    180


 SCF WAVEFUNCTION OPTIMIZATION

  Step     Update method      Time    Convergence         Total energy    Change
  ------------------------------------------------------------------------------
     1 TBLite/Diag 0.40E+00    0.0     0.01143179      -130.1744784040 -1.30E+02
     2 TBLite/Diag 0.40E+00    0.0     0.00073499      -130.1744981340 -1.97E-05
     3 TBLite/Diag 0.40E+00    0.0     0.00029741      -130.1744999592 -1.83E-06
     4 TBLite/Diag 0.40E+00    0.0     0.00011662      -130.1745003655 -4.06E-07
     5 TBLite/Diag 0.40E+00    0.0     0.00003154      -130.1745003831 -1.76E-08
     6 TBLite/Diag 0.40E+00    0.0     0.00001093      -130.1745003850 -1.88E-09
     7 TBLite/Diag 0.40E+00    0.0     0.00000356      -130.1745003852 -2.56E-10
     8 TBLite/Diag 0.40E+00    0.0     0.00000105      -130.1745003852 -1.59E-11
     9 TBLite/Diag 0.40E+00    0.0     0.00000027      -130.1745003852 -1.68E-12
    10 TBLite/Diag 0.40E+00    0.0     0.00000005      -130.1745003852 -1.42E-13
    11 TBLite/Diag 0.40E+00    0.0     0.00000001      -130.1745003852 -2.84E-13
    12 TBLite/Diag 0.40E+00    0.0     2.7839E-09      -130.1745003852  1.71E-13
    13 TBLite/Diag 0.40E+00    0.0     1.1630E-09      -130.1745003852  1.14E-13
    14 TBLite/Diag 0.40E+00    0.0     1.3433E-10      -130.1745003852  8.53E-14

  *** SCF run converged in    14 steps ***


  Core Hamiltonian energy:                                   -131.13742994138656
  Repulsive potential energy:                                   0.78896474618483
  Electrostatic energy:                                         0.29281017411727
  Self-consistent dispersion energy:                           -0.14703529092228
  Non-self consistent dispersion energy:                        0.02818992677480
  Correction for halogen bonding:                               0.00000000000000
  Electronic entropic energy:                                  -0.00000000000000
  Fermi energy:                                                -0.03098625574734

  Total energy:                                              -130.17450038523191
  Total energy (extrapolated to T->0):                       -130.17450038523191

 ENERGY| Total FORCE_EVAL ( QS ) energy [hartree]           -130.174500385231909

 OPT| **************************************************************************
 OPT| Step number                                                              4
 OPT| Optimization method                                                   BFGS
 OPT| Total energy [hartree]                                     -130.1745003852
 OPT| Internal pressure [bar]                                  -10538.9749540476
 OPT| Effective energy change [hartree]                            -0.0086017725
 OPT| Predicted energy change [hartree]                            -0.0060593179
 OPT| Scaling factor                                                0.0000000000
 OPT| Step size                                                     0.0468277785
 OPT| Trust radius                                                  0.4724315332
 OPT| Decrease in energy                                                     YES
 OPT| Used time [s]                                                        2.813
 OPT|
 OPT| Maximum step size                                             0.0468277785
 OPT| Convergence limit for maximum step size                       0.0030000000
 OPT| Maximum step size is converged                                          NO
 OPT|
 OPT| RMS step size                                                 0.0193246739
 OPT| Convergence limit for RMS step size                           0.0015000000
 OPT| RMS step size is converged                                              NO
 OPT|
 OPT| Maximum gradient                                              0.0175506958
 OPT| Convergence limit for maximum gradient                        0.0004500000
 OPT| Maximum gradient is converged                                           NO
 OPT|
 OPT| RMS gradient                                                  0.0045469812
 OPT| Convergence limit for RMS gradient                            0.0003000000
 OPT| RMS gradient is converged                                               NO
 OPT|
 OPT| Pressure deviation [bar]                                 -10538.9749540476
 OPT| Pressure tolerance [bar]                                    100.0000000000
 OPT| Pressure is converged                                                   NO
 OPT| **************************************************************************
 OPT| Estimated peak process memory after this step [MiB]                    182

 --------------------------
 OPTIMIZATION STEP:      5
 --------------------------

 CELL| Volume [angstrom^3]:                                           625.462257
 CELL| Vector a [angstrom]:       9.385     0.000     0.000   |a| =     9.384754
 CELL| Vector b [angstrom]:      -4.667     8.142     0.000   |b| =     9.384784
 CELL| Vector c [angstrom]:       0.000    -0.000     8.186   |c| =     8.185701
 CELL| Angle (b,c), alpha [degree]:                                    90.003066
 CELL| Angle (a,c), beta  [degree]:                                    89.996933
 CELL| Angle (a,b), gamma [degree]:                                   119.824004
 CELL| Numerically orthorhombic:                                              NO
 CELL| Periodicity                                                           XYZ

 Extrapolation method: ASPC

 Number of electrons:                                                        216
 Number of occupied orbitals:                                                108
 Number of molecular orbitals:                                               180

 Number of orbital functions:                                                180
 Number of independent orbital functions:                                    180


 SCF WAVEFUNCTION OPTIMIZATION

  Step     Update method      Time    Convergence         Total energy    Change
  ------------------------------------------------------------------------------
     1 TBLite/Diag 0.40E+00    0.0     0.01041634      -130.1805003894 -1.30E+02
     2 TBLite/Diag 0.40E+00    0.0     0.00058198      -130.1805107413 -1.04E-05
     3 TBLite/Diag 0.40E+00    0.0     0.00050954      -130.1805134073 -2.67E-06
     4 TBLite/Diag 0.40E+00    0.0     0.00014396      -130.1805137293 -3.22E-07
     5 TBLite/Diag 0.40E+00    0.0     0.00003413      -130.1805137425 -1.32E-08
     6 TBLite/Diag 0.40E+00    0.0     0.00001684      -130.1805137457 -3.27E-09
     7 TBLite/Diag 0.40E+00    0.0     0.00000310      -130.1805137459 -1.81E-10
     8 TBLite/Diag 0.40E+00    0.0     0.00000102      -130.1805137459 -1.57E-11
     9 TBLite/Diag 0.40E+00    0.0     0.00000025      -130.1805137459 -1.19E-12
    10 TBLite/Diag 0.40E+00    0.0     0.00000007      -130.1805137459  1.71E-13
    11 TBLite/Diag 0.40E+00    0.0     0.00000003      -130.1805137459 -3.13E-13
    12 TBLite/Diag 0.40E+00    0.0     2.5455E-09      -130.1805137459  2.84E-13
    13 TBLite/Diag 0.40E+00    0.0     7.3011E-10      -130.1805137459 -1.99E-13

  *** SCF run converged in    13 steps ***


  Core Hamiltonian energy:                                   -131.14786858771285
  Repulsive potential energy:                                   0.79112203163861
  Electrostatic energy:                                         0.29500045054637
  Self-consistent dispersion energy:                           -0.14694626247809
  Non-self consistent dispersion energy:                        0.02817862206139
  Correction for halogen bonding:                               0.00000000000000
  Electronic entropic energy:                                  -0.00000000000000
  Fermi energy:                                                -0.03455014948437

  Total energy:                                              -130.18051374594452
  Total energy (extrapolated to T->0):                       -130.18051374594452

 ENERGY| Total FORCE_EVAL ( QS ) energy [hartree]           -130.180513745944523

 OPT| **************************************************************************
 OPT| Step number                                                              5
 OPT| Optimization method                                                   BFGS
 OPT| Total energy [hartree]                                     -130.1805137459
 OPT| Internal pressure [bar]                                  -13478.0536133093
 OPT| Effective energy change [hartree]                            -0.0060133607
 OPT| Predicted energy change [hartree]                            -0.0041480660
 OPT| Scaling factor                                                0.0000000000
 OPT| Step size                                                     0.0442832686
 OPT| Trust radius                                                  0.4724315332
 OPT| Decrease in energy                                                     YES
 OPT| Used time [s]                                                        2.802
 OPT|
 OPT| Maximum step size                                             0.0442832686
 OPT| Convergence limit for maximum step size                       0.0030000000
 OPT| Maximum step size is converged                                          NO
 OPT|
 OPT| RMS step size                                                 0.0168919073
 OPT| Convergence limit for RMS step size                           0.0015000000
 OPT| RMS step size is converged                                              NO
 OPT|
 OPT| Maximum gradient                                              0.0136941735
 OPT| Convergence limit for maximum gradient                        0.0004500000
 OPT| Maximum gradient is converged                                           NO
 OPT|
 OPT| RMS gradient                                                  0.0036744736
 OPT| Convergence limit for RMS gradient                            0.0003000000
 OPT| RMS gradient is converged                                               NO
 OPT|
 OPT| Pressure deviation [bar]                                 -13478.0536133093
 OPT| Pressure tolerance [bar]                                    100.0000000000
 OPT| Pressure is converged                                                   NO
 OPT| **************************************************************************
 OPT| Estimated peak process memory after this step [MiB]                    182

 --------------------------
 OPTIMIZATION STEP:      6
 --------------------------

 CELL| Volume [angstrom^3]:                                           623.852815
 CELL| Vector a [angstrom]:       9.385     0.000     0.000   |a| =     9.385464
 CELL| Vector b [angstrom]:      -4.670     8.141     0.000   |b| =     9.385500
 CELL| Vector c [angstrom]:       0.001    -0.000     8.165   |c| =     8.164970
 CELL| Angle (b,c), alpha [degree]:                                    90.003937
 CELL| Angle (a,c), beta  [degree]:                                    89.996065
 CELL| Angle (a,b), gamma [degree]:                                   119.843267
 CELL| Numerically orthorhombic:                                              NO
 CELL| Periodicity                                                           XYZ

 Extrapolation method: ASPC

 Number of electrons:                                                        216
 Number of occupied orbitals:                                                108
 Number of molecular orbitals:                                               180

 Number of orbital functions:                                                180
 Number of independent orbital functions:                                    180


 SCF WAVEFUNCTION OPTIMIZATION

  Step     Update method      Time    Convergence         Total energy    Change
  ------------------------------------------------------------------------------
     1 TBLite/Diag 0.40E+00    0.0     0.01161263      -130.1845956182 -1.30E+02
     2 TBLite/Diag 0.40E+00    0.0     0.00090495      -130.1846139765 -1.84E-05
     3 TBLite/Diag 0.40E+00    0.0     0.00042071      -130.1846161186 -2.14E-06
     4 TBLite/Diag 0.40E+00    0.0     0.00010476      -130.1846164531 -3.35E-07
     5 TBLite/Diag 0.40E+00    0.0     0.00006876      -130.1846165094 -5.63E-08
     6 TBLite/Diag 0.40E+00    0.0     0.00001366      -130.1846165118 -2.36E-09
     7 TBLite/Diag 0.40E+00    0.0     0.00000361      -130.1846165120 -2.19E-10
     8 TBLite/Diag 0.40E+00    0.0     0.00000126      -130.1846165120 -2.23E-11
     9 TBLite/Diag 0.40E+00    0.0     0.00000043      -130.1846165120 -1.39E-12
    10 TBLite/Diag 0.40E+00    0.0     0.00000005      -130.1846165120 -2.84E-14
    11 TBLite/Diag 0.40E+00    0.0     0.00000003      -130.1846165120 -1.14E-13
    12 TBLite/Diag 0.40E+00    0.0     2.5361E-09      -130.1846165120  0.00E+00
    13 TBLite/Diag 0.40E+00    0.0     9.0647E-10      -130.1846165120 -2.56E-13

  *** SCF run converged in    13 steps ***


  Core Hamiltonian energy:                                   -131.17414209954566
  Repulsive potential energy:                                   0.81179398203979
  Electrostatic energy:                                         0.29659859952154
  Self-consistent dispersion energy:                           -0.14719274866207
  Non-self consistent dispersion energy:                        0.02832575464981
  Correction for halogen bonding:                               0.00000000000000
  Electronic entropic energy:                                  -0.00000000000000
  Fermi energy:                                                -0.03695377425149

  Total energy:                                              -130.18461651199661
  Total energy (extrapolated to T->0):                       -130.18461651199661

 ENERGY| Total FORCE_EVAL ( QS ) energy [hartree]           -130.184616511996609

 OPT| **************************************************************************
 OPT| Step number                                                              6
 OPT| Optimization method                                                   BFGS
 OPT| Total energy [hartree]                                     -130.1846165120
 OPT| Internal pressure [bar]                                  -10388.9867779005
 OPT| Effective energy change [hartree]                            -0.0041027661
 OPT| Predicted energy change [hartree]                            -0.0029710580
 OPT| Scaling factor                                                0.0000000000
 OPT| Step size                                                     0.0391751404
 OPT| Trust radius                                                  0.4724315332
 OPT| Decrease in energy                                                     YES
 OPT| Used time [s]                                                        2.804
 OPT|
 OPT| Maximum step size                                             0.0391751404
 OPT| Convergence limit for maximum step size                       0.0030000000
 OPT| Maximum step size is converged                                          NO
 OPT|
 OPT| RMS step size                                                 0.0135313685
 OPT| Convergence limit for RMS step size                           0.0015000000
 OPT| RMS step size is converged                                              NO
 OPT|
 OPT| Maximum gradient                                              0.0134958263
 OPT| Convergence limit for maximum gradient                        0.0004500000
 OPT| Maximum gradient is converged                                           NO
 OPT|
 OPT| RMS gradient                                                  0.0024385698
 OPT| Convergence limit for RMS gradient                            0.0003000000
 OPT| RMS gradient is converged                                               NO
 OPT|
 OPT| Pressure deviation [bar]                                 -10388.9867779005
 OPT| Pressure tolerance [bar]                                    100.0000000000
 OPT| Pressure is converged                                                   NO
 OPT| **************************************************************************
 OPT| Estimated peak process memory after this step [MiB]                    182

 --------------------------
 OPTIMIZATION STEP:      7
 --------------------------

 CELL| Volume [angstrom^3]:                                           621.707540
 CELL| Vector a [angstrom]:       9.378     0.000     0.000   |a| =     9.377569
 CELL| Vector b [angstrom]:      -4.672     8.131     0.000   |b| =     9.377606
 CELL| Vector c [angstrom]:       0.001    -0.000     8.154   |c| =     8.153801
 CELL| Angle (b,c), alpha [degree]:                                    90.004092
 CELL| Angle (a,c), beta  [degree]:                                    89.995912
 CELL| Angle (a,b), gamma [degree]:                                   119.882463
 CELL| Numerically orthorhombic:                                              NO
 CELL| Periodicity                                                           XYZ

 Extrapolation method: ASPC

 Number of electrons:                                                        216
 Number of occupied orbitals:                                                108
 Number of molecular orbitals:                                               180

 Number of orbital functions:                                                180
 Number of independent orbital functions:                                    180


 SCF WAVEFUNCTION OPTIMIZATION

  Step     Update method      Time    Convergence         Total energy    Change
  ------------------------------------------------------------------------------
     1 TBLite/Diag 0.40E+00    0.0     0.00680141      -130.1864783755 -1.30E+02
     2 TBLite/Diag 0.40E+00    0.0     0.00055114      -130.1864885736 -1.02E-05
     3 TBLite/Diag 0.40E+00    0.0     0.00021331      -130.1864889188 -3.45E-07
     4 TBLite/Diag 0.40E+00    0.0     0.00006208      -130.1864890683 -1.50E-07
     5 TBLite/Diag 0.40E+00    0.0     0.00002406      -130.1864890738 -5.42E-09
     6 TBLite/Diag 0.40E+00    0.0     0.00000503      -130.1864890743 -5.03E-10
     7 TBLite/Diag 0.40E+00    0.0     0.00000203      -130.1864890743 -5.90E-11
     8 TBLite/Diag 0.40E+00    0.0     0.00000060      -130.1864890743 -6.57E-12
     9 TBLite/Diag 0.40E+00    0.0     0.00000027      -130.1864890743 -7.39E-13
    10 TBLite/Diag 0.40E+00    0.0     0.00000003      -130.1864890743 -8.53E-14
    11 TBLite/Diag 0.40E+00    0.0     0.00000002      -130.1864890743  5.68E-14
    12 TBLite/Diag 0.40E+00    0.0     1.8662E-09      -130.1864890743 -2.27E-13
    13 TBLite/Diag 0.40E+00    0.0     1.0214E-09      -130.1864890743  2.56E-13
    14 TBLite/Diag 0.40E+00    0.0     2.3436E-10      -130.1864890743  5.68E-14

  *** SCF run converged in    14 steps ***


  Core Hamiltonian energy:                                   -131.19502961428645
  Repulsive potential energy:                                   0.83137105835829
  Electrostatic energy:                                         0.29627130759899
  Self-consistent dispersion energy:                           -0.14759807930387
  Non-self consistent dispersion energy:                        0.02849625330579
  Correction for halogen bonding:                               0.00000000000000
  Electronic entropic energy:                                  -0.00000000000000
  Fermi energy:                                                -0.03559446645017

  Total energy:                                              -130.18648907432723
  Total energy (extrapolated to T->0):                       -130.18648907432723

 ENERGY| Total FORCE_EVAL ( QS ) energy [hartree]           -130.186489074327227

 OPT| **************************************************************************
 OPT| Step number                                                              7
 OPT| Optimization method                                                   BFGS
 OPT| Total energy [hartree]                                     -130.1864890743
 OPT| Internal pressure [bar]                                   -4958.1644258981
 OPT| Effective energy change [hartree]                            -0.0018725623
 OPT| Predicted energy change [hartree]                            -0.0013646345
 OPT| Scaling factor                                                0.0000000000
 OPT| Step size                                                     0.0211057365
 OPT| Trust radius                                                  0.4724315332
 OPT| Decrease in energy                                                     YES
 OPT| Used time [s]                                                        2.837
 OPT|
 OPT| Maximum step size                                             0.0211057365
 OPT| Convergence limit for maximum step size                       0.0030000000
 OPT| Maximum step size is converged                                          NO
 OPT|
 OPT| RMS step size                                                 0.0076448962
 OPT| Convergence limit for RMS step size                           0.0015000000
 OPT| RMS step size is converged                                              NO
 OPT|
 OPT| Maximum gradient                                              0.0078749757
 OPT| Convergence limit for maximum gradient                        0.0004500000
 OPT| Maximum gradient is converged                                           NO
 OPT|
 OPT| RMS gradient                                                  0.0018590068
 OPT| Convergence limit for RMS gradient                            0.0003000000
 OPT| RMS gradient is converged                                               NO
 OPT|
 OPT| Pressure deviation [bar]                                  -4958.1644258981
 OPT| Pressure tolerance [bar]                                    100.0000000000
 OPT| Pressure is converged                                                   NO
 OPT| **************************************************************************
 OPT| Estimated peak process memory after this step [MiB]                    182

 --------------------------
 OPTIMIZATION STEP:      8
 --------------------------

 CELL| Volume [angstrom^3]:                                           619.889187
 CELL| Vector a [angstrom]:       9.368     0.000     0.000   |a| =     9.368341
 CELL| Vector b [angstrom]:      -4.673     8.120     0.000   |b| =     9.368378
 CELL| Vector c [angstrom]:       0.001    -0.000     8.149   |c| =     8.148929
 CELL| Angle (b,c), alpha [degree]:                                    90.003866
 CELL| Angle (a,c), beta  [degree]:                                    89.996140
 CELL| Angle (a,b), gamma [degree]:                                   119.918571
 CELL| Numerically orthorhombic:                                              NO
 CELL| Periodicity                                                           XYZ

 Extrapolation method: ASPC

 Number of electrons:                                                        216
 Number of occupied orbitals:                                                108
 Number of molecular orbitals:                                               180

 Number of orbital functions:                                                180
 Number of independent orbital functions:                                    180


 SCF WAVEFUNCTION OPTIMIZATION

  Step     Update method      Time    Convergence         Total energy    Change
  ------------------------------------------------------------------------------
     1 TBLite/Diag 0.40E+00    0.0     0.00358777      -130.1874389191 -1.30E+02
     2 TBLite/Diag 0.40E+00    0.0     0.00040770      -130.1874437450 -4.83E-06
     3 TBLite/Diag 0.40E+00    0.0     0.00020179      -130.1874440139 -2.69E-07
     4 TBLite/Diag 0.40E+00    0.0     0.00005237      -130.1874440942 -8.03E-08
     5 TBLite/Diag 0.40E+00    0.0     0.00002522      -130.1874441021 -7.86E-09
     6 TBLite/Diag 0.40E+00    0.0     0.00000311      -130.1874441022 -1.31E-10
     7 TBLite/Diag 0.40E+00    0.0     0.00000148      -130.1874441023 -4.19E-11
     8 TBLite/Diag 0.40E+00    0.0     0.00000040      -130.1874441023 -1.99E-12
     9 TBLite/Diag 0.40E+00    0.0     0.00000019      -130.1874441023 -3.13E-13
    10 TBLite/Diag 0.40E+00    0.0     0.00000002      -130.1874441023 -5.68E-14
    11 TBLite/Diag 0.40E+00    0.0     6.7714E-09      -130.1874441023  5.68E-14
    12 TBLite/Diag 0.40E+00    0.0     8.6472E-10      -130.1874441023  2.84E-13

  *** SCF run converged in    12 steps ***


  Core Hamiltonian energy:                                   -131.20412934495721
  Repulsive potential energy:                                   0.84121243442888
  Electrostatic energy:                                         0.29482080160517
  Self-consistent dispersion energy:                           -0.14798668943945
  Non-self consistent dispersion energy:                        0.02863869607569
  Correction for halogen bonding:                               0.00000000000000
  Electronic entropic energy:                                  -0.00000000000000
  Fermi energy:                                                -0.03214930716906

  Total energy:                                              -130.18744410228692
  Total energy (extrapolated to T->0):                       -130.18744410228692

 ENERGY| Total FORCE_EVAL ( QS ) energy [hartree]           -130.187444102286918

 OPT| **************************************************************************
 OPT| Step number                                                              8
 OPT| Optimization method                                                   BFGS
 OPT| Total energy [hartree]                                     -130.1874441023
 OPT| Internal pressure [bar]                                    -523.7164400293
 OPT| Effective energy change [hartree]                            -0.0009550280
 OPT| Predicted energy change [hartree]                            -0.0007500074
 OPT| Scaling factor                                                0.0000000000
 OPT| Step size                                                     0.0206808793
 OPT| Trust radius                                                  0.4724315332
 OPT| Decrease in energy                                                     YES
 OPT| Used time [s]                                                        2.808
 OPT|
 OPT| Maximum step size                                             0.0206808793
 OPT| Convergence limit for maximum step size                       0.0030000000
 OPT| Maximum step size is converged                                          NO
 OPT|
 OPT| RMS step size                                                 0.0053573060
 OPT| Convergence limit for RMS step size                           0.0015000000
 OPT| RMS step size is converged                                              NO
 OPT|
 OPT| Maximum gradient                                              0.0029262734
 OPT| Convergence limit for maximum gradient                        0.0004500000
 OPT| Maximum gradient is converged                                           NO
 OPT|
 OPT| RMS gradient                                                  0.0012575557
 OPT| Convergence limit for RMS gradient                            0.0003000000
 OPT| RMS gradient is converged                                               NO
 OPT|
 OPT| Pressure deviation [bar]                                   -523.7164400293
 OPT| Pressure tolerance [bar]                                    100.0000000000
 OPT| Pressure is converged                                                   NO
 OPT| **************************************************************************
 OPT| Estimated peak process memory after this step [MiB]                    182

 --------------------------
 OPTIMIZATION STEP:      9
 --------------------------

 CELL| Volume [angstrom^3]:                                           619.126147
 CELL| Vector a [angstrom]:       9.364     0.000     0.000   |a| =     9.363720
 CELL| Vector b [angstrom]:      -4.672     8.115     0.000   |b| =     9.363755
 CELL| Vector c [angstrom]:       0.001    -0.000     8.148   |c| =     8.148013
 CELL| Angle (b,c), alpha [degree]:                                    90.003585
 CELL| Angle (a,c), beta  [degree]:                                    89.996422
 CELL| Angle (a,b), gamma [degree]:                                   119.931740
 CELL| Numerically orthorhombic:                                              NO
 CELL| Periodicity                                                           XYZ

 Extrapolation method: ASPC

 Number of electrons:                                                        216
 Number of occupied orbitals:                                                108
 Number of molecular orbitals:                                               180

 Number of orbital functions:                                                180
 Number of independent orbital functions:                                    180


 SCF WAVEFUNCTION OPTIMIZATION

  Step     Update method      Time    Convergence         Total energy    Change
  ------------------------------------------------------------------------------
     1 TBLite/Diag 0.40E+00    0.0     0.00261859      -130.1877909585 -1.30E+02
     2 TBLite/Diag 0.40E+00    0.0     0.00019731      -130.1877925947 -1.64E-06
     3 TBLite/Diag 0.40E+00    0.0     0.00021001      -130.1877928612 -2.67E-07
     4 TBLite/Diag 0.40E+00    0.0     0.00005865      -130.1877929090 -4.78E-08
     5 TBLite/Diag 0.40E+00    0.0     0.00001838      -130.1877929137 -4.69E-09
     6 TBLite/Diag 0.40E+00    0.0     0.00000204      -130.1877929137 -3.22E-11
     7 TBLite/Diag 0.40E+00    0.0     0.00000079      -130.1877929137 -1.45E-11
     8 TBLite/Diag 0.40E+00    0.0     0.00000020      -130.1877929137 -2.84E-13
     9 TBLite/Diag 0.40E+00    0.0     0.00000006      -130.1877929137 -3.69E-13
    10 TBLite/Diag 0.40E+00    0.0     7.7628E-09      -130.1877929137  2.84E-14
    11 TBLite/Diag 0.40E+00    0.0     6.7211E-09      -130.1877929137  8.53E-14
    12 TBLite/Diag 0.40E+00    0.0     6.3141E-10      -130.1877929137 -1.14E-13

  *** SCF run converged in    12 steps ***


  Core Hamiltonian energy:                                   -131.20199586999928
  Repulsive potential energy:                                   0.84011573190163
  Electrostatic energy:                                         0.29357069603989
  Self-consistent dispersion energy:                           -0.14817709913392
  Non-self consistent dispersion energy:                        0.02869362745832
  Correction for halogen bonding:                               0.00000000000000
  Electronic entropic energy:                                  -0.00000000000000
  Fermi energy:                                                -0.02938043320842

  Total energy:                                              -130.18779291373338
  Total energy (extrapolated to T->0):                       -130.18779291373338

 ENERGY| Total FORCE_EVAL ( QS ) energy [hartree]           -130.187792913733375

 OPT| **************************************************************************
 OPT| Step number                                                              9
 OPT| Optimization method                                                   BFGS
 OPT| Total energy [hartree]                                     -130.1877929137
 OPT| Internal pressure [bar]                                     838.6444602844
 OPT| Effective energy change [hartree]                            -0.0003488114
 OPT| Predicted energy change [hartree]                            -0.0002847672
 OPT| Scaling factor                                                0.0000000000
 OPT| Step size                                                     0.0096006914
 OPT| Trust radius                                                  0.4724315332
 OPT| Decrease in energy                                                     YES
 OPT| Used time [s]                                                        2.813
 OPT|
 OPT| Maximum step size                                             0.0096006914
 OPT| Convergence limit for maximum step size                       0.0030000000
 OPT| Maximum step size is converged                                          NO
 OPT|
 OPT| RMS step size                                                 0.0028184488
 OPT| Convergence limit for RMS step size                           0.0015000000
 OPT| RMS step size is converged                                              NO
 OPT|
 OPT| Maximum gradient                                              0.0021055721
 OPT| Convergence limit for maximum gradient                        0.0004500000
 OPT| Maximum gradient is converged                                           NO
 OPT|
 OPT| RMS gradient                                                  0.0006880621
 OPT| Convergence limit for RMS gradient                            0.0003000000
 OPT| RMS gradient is converged                                               NO
 OPT|
 OPT| Pressure deviation [bar]                                    838.6444602844
 OPT| Pressure tolerance [bar]                                    100.0000000000
 OPT| Pressure is converged                                                   NO
 OPT| **************************************************************************
 OPT| Estimated peak process memory after this step [MiB]                    182

 --------------------------
 OPTIMIZATION STEP:     10
 --------------------------

 CELL| Volume [angstrom^3]:                                           619.023937
 CELL| Vector a [angstrom]:       9.363     0.000     0.000   |a| =     9.363288
 CELL| Vector b [angstrom]:      -4.672     8.115     0.000   |b| =     9.363321
 CELL| Vector c [angstrom]:       0.000    -0.000     8.147   |c| =     8.147135
 CELL| Angle (b,c), alpha [degree]:                                    90.003471
 CELL| Angle (a,c), beta  [degree]:                                    89.996535
 CELL| Angle (a,b), gamma [degree]:                                   119.928240
 CELL| Numerically orthorhombic:                                              NO
 CELL| Periodicity                                                           XYZ

 Extrapolation method: ASPC

 Number of electrons:                                                        216
 Number of occupied orbitals:                                                108
 Number of molecular orbitals:                                               180

 Number of orbital functions:                                                180
 Number of independent orbital functions:                                    180


 SCF WAVEFUNCTION OPTIMIZATION

  Step     Update method      Time    Convergence         Total energy    Change
  ------------------------------------------------------------------------------
     1 TBLite/Diag 0.40E+00    0.0     0.00136128      -130.1879221619 -1.30E+02
     2 TBLite/Diag 0.40E+00    0.0     0.00012922      -130.1879225969 -4.35E-07
     3 TBLite/Diag 0.40E+00    0.0     0.00008739      -130.1879226639 -6.70E-08
     4 TBLite/Diag 0.40E+00    0.0     0.00001786      -130.1879226719 -7.97E-09
     5 TBLite/Diag 0.40E+00    0.0     0.00001245      -130.1879226733 -1.43E-09
     6 TBLite/Diag 0.40E+00    0.0     0.00000109      -130.1879226733 -1.84E-11
     7 TBLite/Diag 0.40E+00    0.0     0.00000049      -130.1879226733 -4.63E-12
     8 TBLite/Diag 0.40E+00    0.0     0.00000018      -130.1879226733 -1.05E-12
     9 TBLite/Diag 0.40E+00    0.0     0.00000006      -130.1879226733  2.84E-13
    10 TBLite/Diag 0.40E+00    0.0     0.00000001      -130.1879226733 -8.53E-14
    11 TBLite/Diag 0.40E+00    0.0     4.0679E-09      -130.1879226733  2.84E-14
    12 TBLite/Diag 0.40E+00    0.0     7.3412E-10      -130.1879226733 -1.99E-13

  *** SCF run converged in    12 steps ***


  Core Hamiltonian energy:                                   -131.19796315226228
  Repulsive potential energy:                                   0.83645704201960
  Electrostatic energy:                                         0.29310598173282
  Self-consistent dispersion energy:                           -0.14821959490969
  Non-self consistent dispersion energy:                        0.02869705009417
  Correction for halogen bonding:                               0.00000000000000
  Electronic entropic energy:                                  -0.00000000000000
  Fermi energy:                                                -0.02842216123333

  Total energy:                                              -130.18792267332537
  Total energy (extrapolated to T->0):                       -130.18792267332537

 ENERGY| Total FORCE_EVAL ( QS ) energy [hartree]           -130.187922673325374

 OPT| **************************************************************************
 OPT| Step number                                                             10
 OPT| Optimization method                                                   BFGS
 OPT| Total energy [hartree]                                     -130.1879226733
 OPT| Internal pressure [bar]                                     502.2283055001
 OPT| Effective energy change [hartree]                            -0.0001297596
 OPT| Predicted energy change [hartree]                            -0.0000888825
 OPT| Scaling factor                                                0.0000000000
 OPT| Step size                                                     0.0026610748
 OPT| Trust radius                                                  0.4724315332
 OPT| Decrease in energy                                                     YES
 OPT| Used time [s]                                                        2.809
 OPT|
 OPT| Maximum step size                                             0.0026610748
 OPT| Convergence limit for maximum step size                       0.0030000000
 OPT| Maximum step size is converged                                         YES
 OPT|
 OPT| RMS step size                                                 0.0013580472
 OPT| Convergence limit for RMS step size                           0.0015000000
 OPT| RMS step size is converged                                             YES
 OPT|
 OPT| Maximum gradient                                              0.0031324548
 OPT| Convergence limit for maximum gradient                        0.0004500000
 OPT| Maximum gradient is converged                                           NO
 OPT|
 OPT| RMS gradient                                                  0.0005611588
 OPT| Convergence limit for RMS gradient                            0.0003000000
 OPT| RMS gradient is converged                                               NO
 OPT|
 OPT| Pressure deviation [bar]                                    502.2283055001
 OPT| Pressure tolerance [bar]                                    100.0000000000
 OPT| Pressure is converged                                                   NO
 OPT| **************************************************************************
 OPT| Estimated peak process memory after this step [MiB]                    182

 --------------------------
 OPTIMIZATION STEP:     11
 --------------------------

 CELL| Volume [angstrom^3]:                                           618.975534
 CELL| Vector a [angstrom]:       9.364     0.000     0.000   |a| =     9.364360
 CELL| Vector b [angstrom]:      -4.670     8.117     0.000   |b| =     9.364391
 CELL| Vector c [angstrom]:       0.000    -0.000     8.144   |c| =     8.143715
 CELL| Angle (b,c), alpha [degree]:                                    90.003457
 CELL| Angle (a,c), beta  [degree]:                                    89.996549
 CELL| Angle (a,b), gamma [degree]:                                   119.916982
 CELL| Numerically orthorhombic:                                              NO
 CELL| Periodicity                                                           XYZ

 Extrapolation method: ASPC

 Number of electrons:                                                        216
 Number of occupied orbitals:                                                108
 Number of molecular orbitals:                                               180

 Number of orbital functions:                                                180
 Number of independent orbital functions:                                    180


 SCF WAVEFUNCTION OPTIMIZATION

  Step     Update method      Time    Convergence         Total energy    Change
  ------------------------------------------------------------------------------
     1 TBLite/Diag 0.40E+00    0.0     0.00135527      -130.1880613824 -1.30E+02
     2 TBLite/Diag 0.40E+00    0.0     0.00011255      -130.1880617025 -3.20E-07
     3 TBLite/Diag 0.40E+00    0.0     0.00006450      -130.1880617376 -3.51E-08
     4 TBLite/Diag 0.40E+00    0.0     0.00001627      -130.1880617440 -6.44E-09
     5 TBLite/Diag 0.40E+00    0.0     0.00000871      -130.1880617450 -9.74E-10
     6 TBLite/Diag 0.40E+00    0.0     0.00000120      -130.1880617450 -2.51E-11
     7 TBLite/Diag 0.40E+00    0.0     0.00000050      -130.1880617450 -5.09E-12
     8 TBLite/Diag 0.40E+00    0.0     0.00000026      -130.1880617450 -9.38E-13
     9 TBLite/Diag 0.40E+00    0.0     0.00000008      -130.1880617450  1.14E-13
    10 TBLite/Diag 0.40E+00    0.0     9.6908E-09      -130.1880617450  5.68E-14
    11 TBLite/Diag 0.40E+00    0.0     2.6700E-09      -130.1880617450 -2.84E-14
    12 TBLite/Diag 0.40E+00    0.0     7.2936E-10      -130.1880617450 -5.68E-14

  *** SCF run converged in    12 steps ***


  Core Hamiltonian energy:                                   -131.19381457197744
  Repulsive potential energy:                                   0.83241210100939
  Electrostatic energy:                                         0.29289313537923
  Self-consistent dispersion energy:                           -0.14824954705434
  Non-self consistent dispersion energy:                        0.02869713762376
  Correction for halogen bonding:                               0.00000000000000
  Electronic entropic energy:                                  -0.00000000000000
  Fermi energy:                                                -0.02806173453799

  Total energy:                                              -130.18806174501938
  Total energy (extrapolated to T->0):                       -130.18806174501938

 ENERGY| Total FORCE_EVAL ( QS ) energy [hartree]           -130.188061745019382

 OPT| **************************************************************************
 OPT| Step number                                                             11
 OPT| Optimization method                                                   BFGS
 OPT| Total energy [hartree]                                     -130.1880617450
 OPT| Internal pressure [bar]                                    -223.2915692977
 OPT| Effective energy change [hartree]                            -0.0001390717
 OPT| Predicted energy change [hartree]                            -0.0000903287
 OPT| Scaling factor                                                0.0000000000
 OPT| Step size                                                     0.0064639021
 OPT| Trust radius                                                  0.4724315332
 OPT| Decrease in energy                                                     YES
 OPT| Used time [s]                                                        2.810
 OPT|
 OPT| Maximum step size                                             0.0064639021
 OPT| Convergence limit for maximum step size                       0.0030000000
 OPT| Maximum step size is converged                                          NO
 OPT|
 OPT| RMS step size                                                 0.0018581970
 OPT| Convergence limit for RMS step size                           0.0015000000
 OPT| RMS step size is converged                                              NO
 OPT|
 OPT| Maximum gradient                                              0.0050270835
 OPT| Convergence limit for maximum gradient                        0.0004500000
 OPT| Maximum gradient is converged                                           NO
 OPT|
 OPT| RMS gradient                                                  0.0006536112
 OPT| Convergence limit for RMS gradient                            0.0003000000
 OPT| RMS gradient is converged                                               NO
 OPT|
 OPT| Pressure deviation [bar]                                   -223.2915692977
 OPT| Pressure tolerance [bar]                                    100.0000000000
 OPT| Pressure is converged                                                   NO
 OPT| **************************************************************************
 OPT| Estimated peak process memory after this step [MiB]                    182

 --------------------------
 OPTIMIZATION STEP:     12
 --------------------------

 CELL| Volume [angstrom^3]:                                           618.781897
 CELL| Vector a [angstrom]:       9.367     0.000     0.000   |a| =     9.367222
 CELL| Vector b [angstrom]:      -4.669     8.121     0.000   |b| =     9.367250
 CELL| Vector c [angstrom]:       0.001    -0.000     8.134   |c| =     8.134468
 CELL| Angle (b,c), alpha [degree]:                                    90.003644
 CELL| Angle (a,c), beta  [degree]:                                    89.996361
 CELL| Angle (a,b), gamma [degree]:                                   119.895834
 CELL| Numerically orthorhombic:                                              NO
 CELL| Periodicity                                                           XYZ

 Extrapolation method: ASPC

 Number of electrons:                                                        216
 Number of occupied orbitals:                                                108
 Number of molecular orbitals:                                               180

 Number of orbital functions:                                                180
[...]

 --------------------------
 OPTIMIZATION STEP:     63
 --------------------------

 CELL| Volume [angstrom^3]:                                           633.953131
 CELL| Vector a [angstrom]:       9.596     0.000     0.000   |a| =     9.595979
 CELL| Vector b [angstrom]:      -4.827     8.293     0.000   |b| =     9.596093
 CELL| Vector c [angstrom]:       0.030    -0.018     7.966   |c| =     7.965902
 CELL| Angle (b,c), alpha [degree]:                                    90.220291
 CELL| Angle (a,c), beta  [degree]:                                    89.780858
 CELL| Angle (a,b), gamma [degree]:                                   120.202072
 CELL| Numerically orthorhombic:                                              NO
 CELL| Periodicity                                                           XYZ

 Extrapolation method: ASPC

 Number of electrons:                                                        216
 Number of occupied orbitals:                                                108
 Number of molecular orbitals:                                               180

 Number of orbital functions:                                                180
 Number of independent orbital functions:                                    180


 SCF WAVEFUNCTION OPTIMIZATION

  Step     Update method      Time    Convergence         Total energy    Change
  ------------------------------------------------------------------------------
     1 TBLite/Diag 0.40E+00    0.0     0.00087964      -130.1910126624 -1.30E+02
     2 TBLite/Diag 0.40E+00    0.0     0.00001231      -130.1910126675 -5.15E-09
     3 TBLite/Diag 0.40E+00    0.0     0.00001188      -130.1910126689 -1.36E-09
     4 TBLite/Diag 0.40E+00    0.0     0.00000329      -130.1910126691 -1.87E-10
     5 TBLite/Diag 0.40E+00    0.0     0.00000079      -130.1910126691 -1.54E-11
     6 TBLite/Diag 0.40E+00    0.0     0.00000060      -130.1910126691 -2.87E-12
     7 TBLite/Diag 0.40E+00    0.0     0.00000007      -130.1910126691 -1.99E-13
     8 TBLite/Diag 0.40E+00    0.0     0.00000007      -130.1910126691  8.53E-14
     9 TBLite/Diag 0.40E+00    0.0     9.3934E-09      -130.1910126691 -1.14E-13
    10 TBLite/Diag 0.40E+00    0.0     1.5673E-09      -130.1910126691 -5.68E-14
    11 TBLite/Diag 0.40E+00    0.0     5.4893E-10      -130.1910126691  1.99E-13

  *** SCF run converged in    11 steps ***


  Core Hamiltonian energy:                                   -131.20241383374164
  Repulsive potential energy:                                   0.83442675676247
  Electrostatic energy:                                         0.29445067289532
  Self-consistent dispersion energy:                           -0.14468398369451
  Non-self consistent dispersion energy:                        0.02720771868746
  Correction for halogen bonding:                               0.00000000000000
  Electronic entropic energy:                                  -0.00000000000000
  Fermi energy:                                                -0.02863556292763

  Total energy:                                              -130.19101266909090
  Total energy (extrapolated to T->0):                       -130.19101266909090

 ENERGY| Total FORCE_EVAL ( QS ) energy [hartree]           -130.191012669090895

 OPT| **************************************************************************
 OPT| Step number                                                             63
 OPT| Optimization method                                                   BFGS
 OPT| Total energy [hartree]                                     -130.1910126691
 OPT| Internal pressure [bar]                                      77.1938508025
 OPT| Effective energy change [hartree]                            -0.0000032532
 OPT| Predicted energy change [hartree]                            -0.0000023247
 OPT| Scaling factor                                                0.0000000000
 OPT| Step size                                                     0.0022573053
 OPT| Trust radius                                                  0.4724315332
 OPT| Decrease in energy                                                      NO
 OPT| Used time [s]                                                        2.701
 OPT|
 OPT| Maximum step size                                             0.0022573053
 OPT| Convergence limit for maximum step size                       0.0030000000
 OPT| Maximum step size is converged                                         YES
 OPT|
 OPT| RMS step size                                                 0.0006687183
 OPT| Convergence limit for RMS step size                           0.0015000000
 OPT| RMS step size is converged                                             YES
 OPT|
 OPT| Maximum gradient                                              0.0003230001
 OPT| Convergence limit for maximum gradient                        0.0004500000
 OPT| Maximum gradient is converged                                          YES
 OPT|
 OPT| RMS gradient                                                  0.0000706955
 OPT| Convergence limit for RMS gradient                            0.0003000000
 OPT| RMS gradient is converged                                              YES
 OPT|
 OPT| Pressure deviation [bar]                                     77.1938508025
 OPT| Pressure tolerance [bar]                                    100.0000000000
 OPT| Pressure is converged                                                  YES
 OPT| **************************************************************************
 OPT| Estimated peak process memory after this step [MiB]                    182

 *******************************************************************************
 ***                    GEOMETRY OPTIMIZATION COMPLETED                      ***
 *******************************************************************************

 write_final_structure: Optimization converged, writing XYZ file gladly:
  trioxane_GFN2_gamma_cell_opt-FINAL-1_63.xyz

 write_final_structure: Optimization converged, writing CIF file gladly:
  trioxane_GFN2_gamma_cell_opt-FINAL-1_63.cif

 write_final_structure: Done!

                    Reevaluating energy at the minimum

 CELL| Volume [angstrom^3]:                                           633.953131
 CELL| Vector a [angstrom]:       9.596     0.000     0.000   |a| =     9.595979
 CELL| Vector b [angstrom]:      -4.827     8.293     0.000   |b| =     9.596093
 CELL| Vector c [angstrom]:       0.030    -0.018     7.966   |c| =     7.965902
 CELL| Angle (b,c), alpha [degree]:                                    90.220291
 CELL| Angle (a,c), beta  [degree]:                                    89.780858
 CELL| Angle (a,b), gamma [degree]:                                   120.202072
 CELL| Numerically orthorhombic:                                              NO
 CELL| Periodicity                                                           XYZ

 Extrapolation method: ASPC

 Number of electrons:                                                        216
 Number of occupied orbitals:                                                108
 Number of molecular orbitals:                                               180

 Number of orbital functions:                                                180
 Number of independent orbital functions:                                    180


 SCF WAVEFUNCTION OPTIMIZATION

  Step     Update method      Time    Convergence         Total energy    Change
  ------------------------------------------------------------------------------
     1 TBLite/Diag 0.40E+00    0.0     2.5514E-10      -130.1910126691 -1.30E+02

  *** SCF run converged in     1 steps ***


  Core Hamiltonian energy:                                   -131.20241383371840
  Repulsive potential energy:                                   0.83442675676247
  Electrostatic energy:                                         0.29445067287259
  Self-consistent dispersion energy:                           -0.14468398369497
  Non-self consistent dispersion energy:                        0.02720771868746
  Correction for halogen bonding:                               0.00000000000000
  Electronic entropic energy:                                  -0.00000000000000
  Fermi energy:                                                -0.02863556292453

  Total energy:                                              -130.19101266909084
  Total energy (extrapolated to T->0):                       -130.19101266909084

 ENERGY| Total FORCE_EVAL ( QS ) energy [hartree]           -130.191012669090838

 -------------------------------------------------------------------------------
 -                                                                             -
 -                                DBCSR STATISTICS                             -
 -                                                                             -
 -------------------------------------------------------------------------------
 COUNTER                                    TOTAL       BLAS       SMM       ACC
 flops     1 x    20 x     1             16070400       0.0%    100.0%      0.0%     
 flops     4 x    20 x     1             64281600       0.0%    100.0%      0.0%     
 flops     1 x    20 x     4             64281600       0.0%    100.0%      0.0%     
 flops     1 x    32 x     1            128563200       0.0%    100.0%      0.0%     
 flops     1 x     1 x   180            219380400       0.0%    100.0%      0.0%     
 flops     4 x    20 x     4            257126400       0.0%    100.0%      0.0%     
 flops     1 x    32 x     4            514252800       0.0%    100.0%      0.0%     
 flops     4 x    32 x     1            514252800       0.0%    100.0%      0.0%     
 flops     4 x     1 x   180            853804800       0.0%    100.0%      0.0%     
 flops     1 x     4 x   180            853804800       0.0%    100.0%      0.0%     
 flops     4 x    32 x     4           2057011200       0.0%    100.0%      0.0%     
 flops     4 x     4 x   180           3510086400       0.0%    100.0%      0.0%     
 flops inhomo. stacks                           0       0.0%      0.0%      0.0%
 flops total                         9.052916E+09       0.0%    100.0%      0.0%
 flops max/rank                      9.052916E+09       0.0%    100.0%      0.0%
 matmuls inhomo. stacks                         0       0.0%      0.0%      0.0%
 matmuls total                           12046860       0.0%    100.0%      0.0%
 number of processed stacks                 14820       0.0%    100.0%      0.0%
 average stack size                                     0.0     812.9       0.0
 marketing flops                    10.019393E+09
 -------------------------------------------------------------------------------
 # multiplications                           1225
 max memory usage/rank              13.690655E+09
 # max total images/rank                        1
 # max 3D layers                                1
 # MPI messages exchanged                       0
 -------------------------------------------------------------------------------
 -                                                                             -
 -                      DBCSR MESSAGE PASSING PERFORMANCE                      -
 -                                                                             -
 -------------------------------------------------------------------------------
 ROUTINE             CALLS      AVE VOLUME [Bytes]
 MP_Bcast               13                     12.
 MP_Allreduce         5548                      8.
 MP_Alltoall         40038                 183751.
 MP_ISend             4900                  20665.
 MP_IRecv             4900                  20665.
 -------------------------------------------------------------------------------

 -------------------------------------------------------------------------------
 -                                                                             -
 -                          OFFLOAD MEMPOOL STATISTICS                         -
 -                                                                             -
 -------------------------------------------------------------------------------
 Memory consumption                Number of allocations  Used [MiB]  Size [MiB]
 Device                                                2           0           0
 Host                                                  2           0           0
 -------------------------------------------------------------------------------

 MEMORY| Estimated peak process memory [MiB]                                 182

 -------------------------------------------------------------------------------
 -                                                                             -
 -                         MESSAGE PASSING PERFORMANCE                         -
 -                                                                             -
 -------------------------------------------------------------------------------

 ROUTINE             CALLS      AVE VOLUME [Bytes]
 MP_Group               64
 MP_Bcast             1828                    734.
 MP_Allreduce        28640                    533.
 MP_Sync               978
 MP_comm_split         914
 -------------------------------------------------------------------------------


 -------------------------------------------------------------------------------
 -                                                                             -
 -                           R E F E R E N C E S                               -
 -                                                                             -
 -------------------------------------------------------------------------------
 
 CP2K version 2026.1 (Development Version), the CP2K developers group (2026).
 CP2K is freely available from https://www.cp2k.org/ .
 
 M. Iannuzzi, J. Wilhelm, F. Stein, A. Bussy, H. Elgabarty, D. Golze, A. Hehn, 
 M. Graml, S. Marek, B. Sertcan Gökmen, C. Schran, H. Forbert, R. Z. 
 Khaliullin, A. Kozhevnikov, M. Taillefumier, R. Meli, V. V. Rybkin, M. Brehm, 
 R. Schade, O. Schütt, J. V. Pototschnig, H. Mirhosseini, A. Knüpfer, D. Marx, 
 M. Krack, J. Hutter, T. D. Kühne.
 J. Phys. Chem. B 130, 1237-1310 (2026).
 The CP2K Program Package Made Simple.
 https://doi.org/10.1021/acs.jpcb.5c05851

 A. Katbashev, M. Stahn, T. Rose, V. Alizadeh, M. Friede, C. Plett, P. 
 Steinbach, S. Ehlert.
 J. Phys. Chem. A 129, 2667-2682 (2025).
 Overview on Building Blocks and Applications of Efficient and Robust Extended 
 Tight Binding.
 https://doi.org/10.1021/acs.jpca.4c08263

 T. D. Kühne, M. Iannuzzi, M. Del Ben, V. V. Rybkin, P. Seewald, F. Stein, T. 
 Laino, R. Z. Khaliullin, O. Schütt, F. Schiffmann, D. Golze, J. Wilhelm, S. 
 Chulkov, M. H. Bani-Hashemian, V. Weber, U. Borstnik, M. Taillefumier, A. S. 
 Jakobovits, A. Lazzaro, H. Pabst, T. Müller, R. Schade, M. Guidon, S. 
 Andermatt, N. Holmberg, G. K. Schenter, A. Hehn, A. Bussy, F. Belleflamme, G. 
 Tabacchi, A. Glöß, M. Lass, I. Bethune, C. J. Mundy, C. Plessl, M. Watkins, 
 J. VandeVondele, M. Krack, J. Hutter.
 J. Chem. Phys. 152, 194103 (2020).
 CP2K: An electronic structure and molecular dynamics software package - 
 Quickstep: Efficient and accurate electronic structure calculations.
 https://doi.org/10.1063/5.0007045

 P. Pracht, E. Caldeweyher, S. Ehlert, S. Grimme.
 ChemRxiv, (2019).
 A Robust Non-Self-Consistent Tight-Binding Quantum Chemistry Method for large 
 Molecules.
 https://doi.org/10.26434/chemrxiv.8326202.v1

 S. Grimme, C. Bannwarth, P. Shushkov.
 J. Chem. Theory Comput. 13, 1989 (2017).
 A Robust and Accurate Tight-Binding Quantum Chemical Method for Structures, 
 Vibrational Frequencies, and Noncovalent Interactions of Large Molecular 
 Systems Parametrized for All spd-Block Elements (Z = 1-86).
 https://doi.org/10.1021/acs.jctc.7b00118

 O. Schuett, P. Messmer, J. Hutter, J. VandeVondele.
 Electronic Structure Calculations on Graphics Processing Units, 173-190 (2016).
 GPU-Accelerated Sparse Matrix-Matrix Multiplication for Linear Scaling Density 
 Functional Theory.
 https://doi.org/10.1002/9781118670712.ch8

 A. Heinecke, G. Henry, M. Hutchinson, H. Pabst.
 Proceedings of Intl. Supercomputing Conference, 981-991 (2016).
 LIBXSMM: Accelerating Small Matrix Multiplications by Runtime Code Generation.
 https://doi.org/10.1109/SC.2016.83

 U. Borstnik, J. VandeVondele, V. Weber, J. Hutter.
 Parallel Comput. 40, 47-58 (2014).
 Sparse matrix multiplication: The distributed block-compressed sparse row 
 library.
 https://doi.org/10.1016/j.parco.2014.03.012

 T. D. Kühne, M. Krack, F. R. Mohamed, M. Parrinello.
 Phys. Rev. Lett. 98, 066401 (2007).
 Efficient and accurate Car-Parrinello-like approach to Born-Oppenheimer 
 molecular dynamics.
 https://doi.org/10.1103/PhysRevLett.98.066401

 M. Frigo, S. G. Johnson.
 Proc. IEEE 93, 216-231 (2005).
 The design and implementation of FFTW3.
 https://doi.org/10.1109/JPROC.2004.840301

 J. Kolafa.
 J. Comput. Chem. 25, 335-342 (2004).
 Time-reversible always stable predictor-corrector method for molecular dynamics 
 of polarizable molecules.
 https://doi.org/10.1002/jcc.10385

 N. D. Mermin.
 Phys. Rev. 137, A1441-A1443 (1965).
 Thermal Properties of the Inhomogeneous Electron Gas.
 https://doi.org/10.1103/PhysRev.137.A1441


 -------------------------------------------------------------------------------
 -                                                                             -
 -                                T I M I N G                                  -
 -                                                                             -
 -------------------------------------------------------------------------------
 SUBROUTINE                       CALLS  ASD         SELF TIME        TOTAL TIME
                                MAXIMUM       AVERAGE  MAXIMUM  AVERAGE  MAXIMUM
 CP2K                                 1  1.0    0.002    0.002  182.057  182.057
 cp_cell_opt                          1  2.0    0.000    0.000  182.049  182.049
 geoopt_bfgs                          1  3.0    0.007    0.007  182.049  182.049
 cp_eval_at                          65  4.0    0.006    0.006  181.794  181.794
 qs_forces                           64  5.0    0.004    0.004  181.109  181.109
 build_tblite_matrices              129  7.0  143.304  143.304  146.053  146.053
 qs_energies                         65  6.0    0.002    0.002   58.813   58.813
 qs_energies_init_hamiltonians       65  7.0    0.000    0.000   45.827   45.827
 rebuild_ks_matrix                  851  9.8    0.001    0.001   26.319   26.319
 build_tblite_ks_matrix             851 10.8   26.297   26.297   26.318   26.318
 qs_ks_update_qs_env_forces          64  6.0    0.000    0.000   22.597   22.597
 scf_env_do_scf                      65  7.0    0.001    0.001   11.601   11.601
 scf_env_do_scf_inner_loop          787  8.0    1.780    1.780   11.595   11.595
 qs_scf_new_mos                     787  9.0    0.003    0.003    5.688    5.688
 qs_ks_update_qs_env                787  9.0    0.001    0.001    3.844    3.844
 -------------------------------------------------------------------------------

 The number of warnings for this run is : 0
 
 -------------------------------------------------------------------------------
  **** **** ******  **  PROGRAM ENDED AT                 2026-05-23 22:51:18.454
 ***** ** ***  *** **   PROGRAM RAN ON                                spark-c86c
 **    ****   ******    PROGRAM RAN BY                                  kuehne88
 ***** **    ** ** **   PROGRAM PROCESS ID                               2271161
  **** **  *******  **  PROGRAM STOPPED IN /home/kuehne88/periodic-gfn2-benchmar
                                           ks/X23b/runs/cellopt_gamma/GFN2/triox
                                           ane_GFN2_gamma_cellopt
