 DBCSR| CPU Multiplication driver                                           BLAS (U)
 DBCSR| Multrec recursion limit                                              512 (U)
 DBCSR| Multiplication stack size                                           1000 (D)
 DBCSR| Maximum elements for images                                    UNLIMITED (U)
 DBCSR| Multiplicative factor virtual images                                   1 (U)
 DBCSR| Use multiplication densification                                       T (D)
 DBCSR| Multiplication size stacks                                             3 (U)
 DBCSR| Use memory pool for CPU allocation                                     F (U)
 DBCSR| Number of 3D layers                                               SINGLE (U)
 DBCSR| Use MPI memory allocation                                              F (U)
 DBCSR| Use RMA algorithm                                                      F (U)
 DBCSR| Use Communication thread                                               T (U)
 DBCSR| Communication thread load                                             87 (D)
 DBCSR| MPI: My process id                                                     0
 DBCSR| MPI: Number of processes                                               1
 DBCSR| OMP: Current number of threads                                         1
 DBCSR| OMP: Max number of threads                                             1
 DBCSR| Split modifier for TAS multiplication algorithm                  1.0E+00 (U)


  **** **** ******  **  PROGRAM STARTED AT               2026-07-21 18:02:26.467
 ***** ** ***  *** **   PROGRAM STARTED ON                                 terok
 **    ****   ******    PROGRAM STARTED BY                              kuehne88
 ***** **    ** ** **   PROGRAM PROCESS ID                               1660307
  **** **  *******  **  PROGRAM STARTED IN /home/kuehne88/work/h2o-molecular-lim
                                           it-fix-20260721/stress/raw/H2O_stress
                                           _L60

 CP2K| version string:                 CP2K version 2026.2 (Development Version)
 CP2K| source code revision number:                                    8520b2e59
 CP2K| cp2kflags: omp parallel scalapack spglib s_dftd3 mctc-lib tblite tblite_g
 CP2K|            xtb
 CP2K| is freely available from                            https://www.cp2k.org/
 CP2K| Program compiled at                                   2026-07-18 23:48:15
 CP2K| Program compiled on                                                 terok
 CP2K| Program compiled for                                               x86_64
 CP2K| Data directory path                            /usr/local/share/cp2k/data
 CP2K| Input file name        /home/kuehne88/work/h2o-molecular-limit-fix-202607

 GLOBAL| Force Environment number                                              1
 GLOBAL| Basis set file name                                           BASIS_SET
 GLOBAL| Potential file name                                           POTENTIAL
 GLOBAL| MM Potential file name                                     MM_POTENTIAL
 GLOBAL| Coordinate file name                                      __STD_INPUT__
 GLOBAL| Method name                                                        CP2K
 GLOBAL| Project name                                             H2O_stress_L60
 GLOBAL| Run type                                                          DEBUG
 GLOBAL| FFT library                                                       FFTW3
 GLOBAL| Diagonalization library                                       ScaLAPACK
 GLOBAL| Cholesky decomposition library                                ScaLAPACK
 GLOBAL| DGEMM library                                                      BLAS
 GLOBAL| Direct generalized diagonalization requested                          F
 GLOBAL| Orthonormality check for eigenvectors                          DISABLED
 GLOBAL| Matrix multiplication library                                 ScaLAPACK
 GLOBAL| All-to-all communication in single precision                          F
 GLOBAL| FFTs using library dependent lengths                                  F
 GLOBAL| Grid backend                                                       AUTO
 GLOBAL| Global print level                                               MEDIUM
 GLOBAL| MPI I/O enabled                                                       T
 GLOBAL| Total number of message passing processes                             1
 GLOBAL| Number of distributed systems (nodes)                                 1
 GLOBAL| Number of threads for this process                                    1
 GLOBAL| This output is from process                                           0
 GLOBAL| OpenMP stack size per thread (OMP_STACKSIZE)                    default
 GLOBAL| CPU model name                                       AMD EPYC Processor
 GLOBAL| CPUID                                                              1002

 MEMORY| system memory details [Kb]
 MEMORY|                        rank 0           min           max       average
 MEMORY| MemTotal            528104804     528104804     528104804     528104804
 MEMORY| MemFree             507926452     507926452     507926452     507926452
 MEMORY| Buffers                    20            20            20            20
 MEMORY| Cached               15190796      15190796      15190796      15190796
 MEMORY| Slab                  2494136       2494136       2494136       2494136
 MEMORY| SReclaimable          1120024       1120024       1120024       1120024
 MEMORY| MemLikelyFree       524237292     524237292     524237292     524237292


 *** WARNING in environment.F:1098 :: FFT library FFTW3 is not available. ***
 *** Trying FFT library FFTSG.                                            ***


 *** Fundamental physical constants (SI units) ***

 *** Literature: B. J. Mohr and B. N. Taylor,
 ***             CODATA recommended values of the fundamental physical
 ***             constants: 2006, Web Version 5.1
 ***             http://physics.nist.gov/constants

 Speed of light in vacuum [m/s]                             2.99792458000000E+08
 Magnetic constant or permeability of vacuum [N/A**2]       1.25663706143592E-06
 Electric constant or permittivity of vacuum [F/m]          8.85418781762039E-12
 Planck constant (h) [J*s]                                  6.62606896000000E-34
 Planck constant (h-bar) [J*s]                              1.05457162825177E-34
 Elementary charge [C]                                      1.60217648700000E-19
 Electron mass [kg]                                         9.10938215000000E-31
 Electron g factor [ ]                                     -2.00231930436220E+00
 Proton mass [kg]                                           1.67262163700000E-27
 Fine-structure constant                                    7.29735253760000E-03
 Rydberg constant [1/m]                                     1.09737315685270E+07
 Avogadro constant [1/mol]                                  6.02214179000000E+23
 Boltzmann constant [J/K]                                   1.38065040000000E-23
 Atomic mass unit [kg]                                      1.66053878200000E-27
 Bohr radius [m]                                            5.29177208590000E-11

 *** Conversion factors ***

 [u] -> [a.u.]                                              1.82288848426455E+03
 [Angstrom] -> [Bohr] = [a.u.]                              1.88972613288564E+00
 [a.u.] = [Bohr] -> [Angstrom]                              5.29177208590000E-01
 [a.u.] -> [s]                                              2.41888432650478E-17
 [a.u.] -> [fs]                                             2.41888432650478E-02
 [a.u.] -> [J]                                              4.35974393937059E-18
 [a.u.] -> [N]                                              8.23872205491840E-08
 [a.u.] -> [K]                                              3.15774647902944E+05
 [a.u.] -> [kJ/mol]                                         2.62549961709828E+03
 [a.u.] -> [kcal/mol]                                       6.27509468713739E+02
 [a.u.] -> [Pa]                                             2.94210107994716E+13
 [a.u.] -> [bar]                                            2.94210107994716E+08
 [a.u.] -> [atm]                                            2.90362800883016E+08
 [a.u.] -> [eV]                                             2.72113838565563E+01
 [a.u.] -> [Hz]                                             6.57968392072181E+15
 [a.u.] -> [1/cm] (wave numbers)                            2.19474631370540E+05
 [a.u./Bohr**2] -> [1/cm]                                   5.14048714338585E+03
 

 CELL| Volume [angstrom^3]:                                        216000.000000
 CELL| Vector a [angstrom]:      60.000     0.000     0.000   |a| =    60.000000
 CELL| Vector b [angstrom]:       0.000    60.000     0.000   |b| =    60.000000
 CELL| Vector c [angstrom]:       0.000     0.000    60.000   |c| =    60.000000
 CELL| Angle (b,c), alpha [degree]:                                    90.000000
 CELL| Angle (a,c), beta  [degree]:                                    90.000000
 CELL| Angle (a,b), gamma [degree]:                                    90.000000
 CELL| Numerically orthorhombic:                                             YES
 CELL| Periodicity                                                           XYZ

 CELL_REF| Volume [angstrom^3]:                                    216000.000000
 CELL_REF| Vector a [angstrom    60.000     0.000     0.000   |a| =    60.000000
 CELL_REF| Vector b [angstrom     0.000    60.000     0.000   |b| =    60.000000
 CELL_REF| Vector c [angstrom     0.000     0.000    60.000   |c| =    60.000000
 CELL_REF| Angle (b,c), alpha [degree]:                                90.000000
 CELL_REF| Angle (a,c), beta  [degree]:                                90.000000
 CELL_REF| Angle (a,b), gamma [degree]:                                90.000000
 CELL_REF| Numerically orthorhombic:                                         YES
 CELL_REF| Periodicity                                                       XYZ

 GENERATE|  Preliminary Number of Bonds generated:                             0
 GENERATE|  Achieved consistency in connectivity generation.


                  #####   #####        #     #   #     #       #          
                 #     # #     #      #    ##### #     #   # #####  ####  
                 #     # #           #       #   ###   #       #   #    # 
                 #     #  #####     #        #   #  #  #   #   #   ###### 
                 #   # #       #   #         #   #   # #   #   #   #      
                 #    #  #     #  #          #   #  #  # # #   #    #   # 
                  #### #  #####  #           #   ###   ##  #   #     ###  

                                     g-xTB   
                                 Version 0.0                       
                            Johann V. Pototschnig                  

                tblite provider: SAVE
                tblite source revision: 15915c9435644eb257178ca8f8bf7220c38b1a84
                g-xTB support: enabled

 xTB| Parameter file                                             xTB1_parameters
 xTB| Basis expansion STO-NG                                                   6
 xTB| Basis expansion STO-NG for Hydrogen                                      4
 xTB| Repulsive pair potential accuracy                               0.1000E-09
 xTB| Repulsive enhancement factor                                      0.000000
 xTB| Halogen interaction potential                                            T
 xTB| Halogen interaction potential cutoff radius                         20.000
 xTB| Nonbonded interactions                                                   F
 xTB| vdW potential type:                                              DFTD3(BJ)
 xTB| D3 Dispersion: Parameter                                         dftd3.dat
 xTB| Huckel constants ks kp kd                        1.850     2.250     2.000
 xTB| Huckel constants ksp k2sh                                  2.080     2.850
 xTB| Mataga-Nishimoto exponent                                            2.000
 xTB| Repulsion potential exponent                                         1.500
 xTB| Coordination number scaling kcn(s) kcn(p) kc     0.006    -0.003    -0.005
 xTB| Electronegativity scaling                                           -0.007
 xTB| Halogen potential scaling kxr kx2                          1.300     0.440
 xTB| SCC mixer:                                                       TBLITE
 xTB| tblite accuracy:                                                 1.000E-01
 xTB| tblite SCC mixer damping:                                            0.400
 xTB| tblite SCC mixer iterations:                                           300
 xTB| tblite SCC mixer memory:                                               300
 xTB| tblite SCC mixer solver:                                         GVD
 xTB| tblite SCC mixer omega0:                                         1.000E-02
 xTB| tblite SCC mixer min weight:                                     1.000E+00
 xTB| tblite SCC mixer max weight:                                     1.000E+05
 xTB| tblite SCC mixer weight factor:                                  1.000E-02




 ATOMIC KIND INFORMATION

  1. Atomic kind: H                                     Number of atoms:       2

     Orbital Basis Set                                                 H _STO-8G

       Number of orbital shell sets:                                           1
       Number of orbital shells:                                               1
       Number of primitive Cartesian functions:                                8
       Number of Cartesian basis functions:                                    1
       Number of spherical basis functions:                                    1
       Norm type:                                                              3

       Normalised Cartesian orbitals:

                        Set   Shell   Orbital            Exponent    Coefficient

                          1       1    1s              337.005012       0.037374
                                                        53.310531       0.063272
                                                        12.208253       0.115774
                                                         3.418827       0.175156
                                                         1.108790       0.218995
                                                         0.478718       0.126311
                                                         0.212137       0.088533
                                                         0.069058       0.001978

     AE Potential information for                                       Hydrogen

       Description:                                       Bare Coulomb Potential
                                                              Full atomic charge

       Gaussian exponent of the core charge distribution:              12.500000
       Electronic configuration (s p d ...):                       1   0   0   0

  2. Atomic kind: O                                     Number of atoms:       1

     Orbital Basis Set                                                 O _STO-6G

       Number of orbital shell sets:                                           2
       Number of orbital shells:                                               2
       Number of primitive Cartesian functions:                               12
       Number of Cartesian basis functions:                                    4
       Number of spherical basis functions:                                    4
       Norm type:                                                              3

       Normalised Cartesian orbitals:

                        Set   Shell   Orbital            Exponent    Coefficient

                          1       1    1s                3.483595      -1.312778
                                                         2.859866       1.114640
                                                         0.740681       0.294469
                                                         0.344927       0.081374
                                                         0.261979       0.039450
                                                         0.094616       0.012404

                          2       1    2px              37.641471       1.473846
                                                         9.713089       1.793230
                                                         3.137177       1.302657
                                                         1.121381       0.632971
                                                         0.398078       0.183037
                                                         0.123048       0.019201
                          2       1    2py              37.641471       1.473846
                                                         9.713089       1.793230
                                                         3.137177       1.302657
                                                         1.121381       0.632971
                                                         0.398078       0.183037
                                                         0.123048       0.019201
                          2       1    2pz              37.641471       1.473846
                                                         9.713089       1.793230
                                                         3.137177       1.302657
                                                         1.121381       0.632971
                                                         0.398078       0.183037
                                                         0.123048       0.019201

     AE Potential information for                                         Oxygen

       Description:                                       Bare Coulomb Potential
                                                             Valence charge only

       Gaussian exponent of the core charge distribution:               3.753049
       Electronic configuration (s p d ...):                       2   4   0   0


 MOLECULE KIND INFORMATION


 All atoms are their own molecule, skipping detailed information


 TOTAL NUMBERS AND MAXIMUM NUMBERS

  Total number of            - Atomic kinds:                                   2
                             - Atoms:                                          3
                             - Shell sets:                                     4
                             - Shells:                                         4
                             - Primitive Cartesian functions:                 28
                             - Cartesian basis functions:                      6
                             - Spherical basis functions:                      6

  Maximum angular momentum of the orbital basis functions:                     1


 MODULE QUICKSTEP: ATOMIC COORDINATES IN ANGSTROM

   Atom Kind Element         X             Y             Z       Z(eff)     Mass
      1    1 H     1     -0.012165      0.000000     -0.932352   1.0000   1.0079
      2    1 H     1      0.875098      0.000000      0.321998   1.0000   1.0079
      3    2 O     8     -0.054364      0.000000      0.038451   6.0000  15.9994



 SCF PARAMETERS         Density guess:                                     MOPAC
                        --------------------------------------------------------
                        max_scf:                                             300
                        max_scf_history:                                       0
                        max_diis:                                              4
                        --------------------------------------------------------
                        eps_scf:                                        1.00E-10
                        eps_scf_history:                                0.00E+00
                        eps_diis:                                       1.00E-01
                        eps_eigval:                                     1.00E-05
                        --------------------------------------------------------
                        level_shift [a.u.]:                             0.000000
                        added MOs                                         2    0
                        --------------------------------------------------------
                        Mixing method:                           DIRECT_P_MIXING
                        --------------------------------------------------------
                        No outer SCF

 PW_GRID| Information for grid number                                          1
 PW_GRID| Cutoff [a.u.]                                                      1.0
 PW_GRID| spherical cutoff:                                                   NO
 PW_GRID|   Bounds   1            -27      26                Points:          54
 PW_GRID|   Bounds   2            -27      26                Points:          54
 PW_GRID|   Bounds   3            -27      26                Points:          54
 PW_GRID| Volume element (a.u.^3)   9.257         Volume (a.u.^3)   1457640.2699
 PW_GRID| Grid span                                                    FULLSPACE

 POISSON| Solver                                                        PERIODIC
 POISSON| Periodicity                                                        XYZ

 RS_GRID| Information for grid number                                          1
 RS_GRID|   Bounds   1            -27      26                Points:          54
 RS_GRID|   Bounds   2            -27      26                Points:          54
 RS_GRID|   Bounds   3            -27      26                Points:          54

 Extrapolation method: initial_guess

 Number of electrons:                                                          8
 Number of occupied orbitals:                                                  4
 Number of molecular orbitals:                                                 6

 Number of orbital functions:                                                  6
 Number of independent orbital functions:                                      6


 SCF WAVEFUNCTION OPTIMIZATION

  Step     Update method      Time    Convergence         Total energy    Change
  ------------------------------------------------------------------------------
     1 GXTB-Raw    0.10E+01    0.0     0.73255846       -76.4105059903 -7.64E+01
     2 GXTB-Simple 0.20E+00    0.0     0.05394909       -76.4238259545 -1.33E-02
     3 GXTB-Simple 0.20E+00    0.0     0.03724843       -76.4305262508 -6.70E-03
     4 GXTB-FDIIS  0.10E+01    0.0     0.07301928       -76.4373357169 -6.81E-03
     5 GXTB-FDIIS  0.10E+01    0.0     0.00610115       -76.4373854745 -4.98E-05
     6 GXTB-FDIIS  0.10E+01    0.0     0.00107403       -76.4373860168 -5.42E-07
     7 GXTB-FDIIS  0.10E+01    0.0     0.00005978       -76.4373860186 -1.87E-09
     8 GXTB-FDIIS  0.10E+01    0.0     0.00000380       -76.4373860186 -8.81E-12
     9 GXTB-FDIIS  0.10E+01    0.0     0.00000007       -76.4373860186 -2.84E-14
    10 GXTB-FDIIS  0.10E+01    0.0     0.00000022       -76.4373860186 -2.84E-14
    11 GXTB-FDIIS  0.10E+01    0.0     8.5141E-11       -76.4373860186  1.42E-14

  *** SCF run converged in    11 steps ***


  Core Hamiltonian energy:                                     -6.22697141948163
  Repulsive potential energy:                                   0.31827253074709
  Electrostatic energy:                                         0.14234081056786
  Self-consistent dispersion energy:                           -0.00004482552301
  Non-self consistent dispersion energy:                        0.00000029898137
  Correction for halogen bonding:                               0.00000000000000

  Total energy:                                               -76.43738601862653


 MULLIKEN POPULATION ANALYSIS

  # Atom   Element   Kind        Atomic population                    Net charge
       1     H          1                 0.685483                      0.314517
       2     H          1                 0.685485                      0.314515
       3     O          2                 6.629032                     -0.629032
 # Total charge                           8.000000                      0.000000


 tblite reference CLI check
 Executable: tblite
 Method:     gxtb
 Guess:      auto
 Solver:     gvd
 Spin-pol.:  F
 Grad file:  H2O_stress_L60_cli.grad
 JSON file:  H2O_stress_L60_cli.json
 Log file:   H2O_stress_L60_cli.log
 Energy CP2K/CLI/absdiff:   -7.643738601863E+01   -7.643738601876E+01    1.366942115055E-10
 Gradient diff sum/max:    1.322985333524E-07    3.688182366110E-08
 Virial diff sum/max:    1.151598290372E-07    5.547052105322E-08

 ENERGY| Total FORCE_EVAL ( QS ) energy [hartree]            -76.437386018626526

 -------------------------------------------------------------------------------
 ----                             MULTIGRID INFO                            ----
 -------------------------------------------------------------------------------
 total grid count     :           420              cutoff [a.u.]            1.00

 PW_GRID| Information for grid number                                          2
 PW_GRID| Cutoff [a.u.]                                                      1.0
 PW_GRID| spherical cutoff:                                                   NO
 PW_GRID|   Bounds   1            -27      26                Points:          54
 PW_GRID|   Bounds   2            -27      26                Points:          54
 PW_GRID|   Bounds   3            -27      26                Points:          54
 PW_GRID| Volume element (a.u.^3)   9.257         Volume (a.u.^3)   1457641.5555
 PW_GRID| Grid span                                                    FULLSPACE

 POISSON| Solver                                                        PERIODIC
 POISSON| Periodicity                                                        XYZ

 RS_GRID| Information for grid number                                          2
 RS_GRID|   Bounds   1            -27      26                Points:          54
 RS_GRID|   Bounds   2            -27      26                Points:          54
 RS_GRID|   Bounds   3            -27      26                Points:          54

 Parameters for the always stable predictor-corrector (ASPC) method:

  ASPC order: 0

  B(1) =   1.000000

 Extrapolation method: ASPC

 Number of electrons:                                                          8
 Number of occupied orbitals:                                                  4
 Number of molecular orbitals:                                                 6

 Number of orbital functions:                                                  6
 Number of independent orbital functions:                                      6


 SCF WAVEFUNCTION OPTIMIZATION

  Step     Update method      Time    Convergence         Total energy    Change
  ------------------------------------------------------------------------------
     1 GXTB-Raw    0.10E+01    0.0     0.00000031       -76.4373860047 -7.64E+01
     2 GXTB-Simple 0.20E+00    0.0     0.00000006       -76.4373860047  0.00E+00
     3 GXTB-Simple 0.20E+00    0.0     0.00000005       -76.4373860047 -1.42E-14
     4 GXTB-FDIIS  0.10E+01    0.0     0.00000024       -76.4373860047 -1.42E-14
     5 GXTB-FDIIS  0.10E+01    0.0     9.3103E-09       -76.4373860047 -1.42E-14
     6 GXTB-FDIIS  0.10E+01    0.0     6.5338E-09       -76.4373860047  1.42E-14
     7 GXTB-FDIIS  0.10E+01    0.0     1.9777E-10       -76.4373860047  0.00E+00
     8 GXTB-FDIIS  0.10E+01    0.0     2.2091E-11       -76.4373860047  0.00E+00

  *** SCF run converged in     8 steps ***


  Core Hamiltonian energy:                                     -6.22697086264669
  Repulsive potential energy:                                   0.31827200025738
  Electrostatic energy:                                         0.14234081288079
  Self-consistent dispersion energy:                           -0.00004482557006
  Non-self consistent dispersion energy:                        0.00000029898211
  Correction for halogen bonding:                               0.00000000000000

  Total energy:                                               -76.43738600468326


 MULLIKEN POPULATION ANALYSIS

  # Atom   Element   Kind        Atomic population                    Net charge
       1     H          1                 0.685483                      0.314517
       2     H          1                 0.685485                      0.314515
       3     O          2                 6.629032                     -0.629032
 # Total charge                           8.000000                      0.000000


 tblite reference CLI check
 Executable: tblite
 Method:     gxtb
 Guess:      auto
 Solver:     gvd
 Spin-pol.:  F
 Grad file:  H2O_stress_L60_cli.grad
 JSON file:  H2O_stress_L60_cli.json
 Log file:   H2O_stress_L60_cli.log
 Energy CP2K/CLI/absdiff:   -7.643738600468E+01   -7.643738600482E+01    1.366942115055E-10
 Gradient diff sum/max:    1.630490372836E-06    6.003356382792E-07
 Virial diff sum/max:    3.214817482493E-02    1.580988143326E-02
 tblite reference CLI deviation exceeded ERROR_LIMIT =   1.0000E-05

 ENERGY| Total FORCE_EVAL ( QS ) energy [hartree]            -76.437386004683262

 -------------------------------------------------------------------------------
 ----                             MULTIGRID INFO                            ----
 -------------------------------------------------------------------------------
 total grid count     :           420              cutoff [a.u.]            1.00

 PW_GRID| Information for grid number                                          3
 PW_GRID| Cutoff [a.u.]                                                      1.0
 PW_GRID| spherical cutoff:                                                   NO
 PW_GRID|   Bounds   1            -27      26                Points:          54
 PW_GRID|   Bounds   2            -27      26                Points:          54
 PW_GRID|   Bounds   3            -27      26                Points:          54
 PW_GRID| Volume element (a.u.^3)   9.257         Volume (a.u.^3)   1457638.9844
 PW_GRID| Grid span                                                    FULLSPACE

 POISSON| Solver                                                        PERIODIC
 POISSON| Periodicity                                                        XYZ

 RS_GRID| Information for grid number                                          3
 RS_GRID|   Bounds   1            -27      26                Points:          54
 RS_GRID|   Bounds   2            -27      26                Points:          54
 RS_GRID|   Bounds   3            -27      26                Points:          54

 Parameters for the always stable predictor-corrector (ASPC) method:

  ASPC order: 0

  B(1) =   2.000000
  B(2) =  -1.000000

 Extrapolation method: ASPC

 Number of electrons:                                                          8
 Number of occupied orbitals:                                                  4
 Number of molecular orbitals:                                                 6

 Number of orbital functions:                                                  6
 Number of independent orbital functions:                                      6


 SCF WAVEFUNCTION OPTIMIZATION

  Step     Update method      Time    Convergence         Total energy    Change
  ------------------------------------------------------------------------------
     1 GXTB-Raw    0.10E+01    0.0     0.00000061       -76.4373860326 -7.64E+01
     2 GXTB-Simple 0.20E+00    0.0     0.00000013       -76.4373860326 -5.68E-14
     3 GXTB-Simple 0.20E+00    0.0     0.00000010       -76.4373860326 -2.84E-14
     4 GXTB-FDIIS  0.10E+01    0.0     0.00000049       -76.4373860326 -8.53E-14
     5 GXTB-FDIIS  0.10E+01    0.0     0.00000002       -76.4373860326  0.00E+00
     6 GXTB-FDIIS  0.10E+01    0.0     0.00000001       -76.4373860326  0.00E+00
     7 GXTB-FDIIS  0.10E+01    0.0     3.9554E-10       -76.4373860326  0.00E+00
     8 GXTB-FDIIS  0.10E+01    0.0     4.4182E-11       -76.4373860326  0.00E+00

  *** SCF run converged in     8 steps ***


  Core Hamiltonian energy:                                     -6.22697197632436
  Repulsive potential energy:                                   0.31827306123832
  Electrostatic energy:                                         0.14234080825925
  Self-consistent dispersion energy:                           -0.00004482547596
  Non-self consistent dispersion energy:                        0.00000029898064
  Correction for halogen bonding:                               0.00000000000000

  Total energy:                                               -76.43738603256881


 MULLIKEN POPULATION ANALYSIS

  # Atom   Element   Kind        Atomic population                    Net charge
       1     H          1                 0.685483                      0.314517
       2     H          1                 0.685485                      0.314515
       3     O          2                 6.629032                     -0.629032
 # Total charge                           8.000000                      0.000000


 tblite reference CLI check
 Executable: tblite
 Method:     gxtb
 Guess:      auto
 Solver:     gvd
 Spin-pol.:  F
 Grad file:  H2O_stress_L60_cli.grad
 JSON file:  H2O_stress_L60_cli.json
 Log file:   H2O_stress_L60_cli.log
 Energy CP2K/CLI/absdiff:   -7.643738603257E+01   -7.643738603271E+01    1.366800006508E-10
 Gradient diff sum/max:    1.725105143639E-06    6.718683466661E-07
 Virial diff sum/max:    3.214705229476E-02    1.580763881100E-02
 tblite reference CLI deviation exceeded ERROR_LIMIT =   1.0000E-05

 ENERGY| Total FORCE_EVAL ( QS ) energy [hartree]            -76.437386032568810

 -------------------------------------------------------------------------------
 ----                             MULTIGRID INFO                            ----
 -------------------------------------------------------------------------------
 total grid count     :           420              cutoff [a.u.]            1.00

 PW_GRID| Information for grid number                                          4
 PW_GRID| Cutoff [a.u.]                                                      1.0
 PW_GRID| spherical cutoff:                                                   NO
 PW_GRID|   Bounds   1            -27      26                Points:          54
 PW_GRID|   Bounds   2            -27      26                Points:          54
 PW_GRID|   Bounds   3            -27      26                Points:          54
 PW_GRID| Volume element (a.u.^3)   9.257         Volume (a.u.^3)   1457640.2699
 PW_GRID| Grid span                                                    FULLSPACE

 POISSON| Solver                                                        PERIODIC
 POISSON| Periodicity                                                        XYZ

 RS_GRID| Information for grid number                                          4
 RS_GRID|   Bounds   1            -27      26                Points:          54
 RS_GRID|   Bounds   2            -27      26                Points:          54
 RS_GRID|   Bounds   3            -27      26                Points:          54

 Parameters for the always stable predictor-corrector (ASPC) method:

  ASPC order: 1

  B(1) =   2.500000
  B(2) =  -2.000000
  B(3) =   0.500000

 Extrapolation method: ASPC

 Number of electrons:                                                          8
 Number of occupied orbitals:                                                  4
 Number of molecular orbitals:                                                 6

 Number of orbital functions:                                                  6
 Number of independent orbital functions:                                      6


 SCF WAVEFUNCTION OPTIMIZATION

  Step     Update method      Time    Convergence         Total energy    Change
  ------------------------------------------------------------------------------
     1 GXTB-Raw    0.10E+01    0.0     0.00000031       -76.4373860186 -7.64E+01
     2 GXTB-Simple 0.20E+00    0.0     0.00000006       -76.4373860186  0.00E+00
     3 GXTB-Simple 0.20E+00    0.0     0.00000005       -76.4373860186 -1.42E-14
     4 GXTB-FDIIS  0.10E+01    0.0     0.00000024       -76.4373860186 -1.42E-14
     5 GXTB-FDIIS  0.10E+01    0.0     9.3104E-09       -76.4373860186  0.00E+00
     6 GXTB-FDIIS  0.10E+01    0.0     6.5339E-09       -76.4373860186 -1.42E-14
     7 GXTB-FDIIS  0.10E+01    0.0     1.9777E-10       -76.4373860186  1.42E-14
     8 GXTB-FDIIS  0.10E+01    0.0     2.2091E-11       -76.4373860186 -1.42E-14

  *** SCF run converged in     8 steps ***


  Core Hamiltonian energy:                                     -6.22697141948525
  Repulsive potential energy:                                   0.31827253074706
  Electrostatic energy:                                         0.14234081056999
  Self-consistent dispersion energy:                           -0.00004482552301
  Non-self consistent dispersion energy:                        0.00000029898137
  Correction for halogen bonding:                               0.00000000000000

  Total energy:                                               -76.43738601862654


 MULLIKEN POPULATION ANALYSIS

  # Atom   Element   Kind        Atomic population                    Net charge
       1     H          1                 0.685483                      0.314517
       2     H          1                 0.685485                      0.314515
       3     O          2                 6.629032                     -0.629032
 # Total charge                           8.000000                      0.000000


 tblite reference CLI check
 Executable: tblite
 Method:     gxtb
 Guess:      auto
 Solver:     gvd
 Spin-pol.:  F
 Grad file:  H2O_stress_L60_cli.grad
 JSON file:  H2O_stress_L60_cli.json
 Log file:   H2O_stress_L60_cli.log
 Energy CP2K/CLI/absdiff:   -7.643738601863E+01   -7.643738601876E+01    1.366800006508E-10
 Gradient diff sum/max:    1.322997220258E-07    3.688182165923E-08
 Virial diff sum/max:    3.214761357170E-02    1.580876014145E-02
 tblite reference CLI deviation exceeded ERROR_LIMIT =   1.0000E-05

 ENERGY| Total FORCE_EVAL ( QS ) energy [hartree]            -76.437386018626540

 -------------------------------------------------------------------------------
 ----                             MULTIGRID INFO                            ----
 -------------------------------------------------------------------------------
 total grid count     :           420              cutoff [a.u.]            1.00

 PW_GRID| Information for grid number                                          5
 PW_GRID| Cutoff [a.u.]                                                      1.0
 PW_GRID| spherical cutoff:                                                   NO
 PW_GRID|   Bounds   1            -27      26                Points:          54
 PW_GRID|   Bounds   2            -27      26                Points:          54
 PW_GRID|   Bounds   3            -27      26                Points:          54
 PW_GRID| Volume element (a.u.^3)   9.257         Volume (a.u.^3)   1457640.2699
 PW_GRID| Grid span                                                    FULLSPACE

 POISSON| Solver                                                        PERIODIC
 POISSON| Periodicity                                                        XYZ

 RS_GRID| Information for grid number                                          5
 RS_GRID|   Bounds   1            -27      26                Points:          54
 RS_GRID|   Bounds   2            -27      26                Points:          54
 RS_GRID|   Bounds   3            -27      26                Points:          54

 Parameters for the always stable predictor-corrector (ASPC) method:

  ASPC order: 2

  B(1) =   2.800000
  B(2) =  -2.800000
  B(3) =   1.200000
  B(4) =  -0.200000

 Extrapolation method: ASPC

 Number of electrons:                                                          8
 Number of occupied orbitals:                                                  4
 Number of molecular orbitals:                                                 6

 Number of orbital functions:                                                  6
 Number of independent orbital functions:                                      6


 SCF WAVEFUNCTION OPTIMIZATION

  Step     Update method      Time    Convergence         Total energy    Change
  ------------------------------------------------------------------------------
     1 GXTB-Raw    0.10E+01    0.0     1.0298E-12       -76.4373860186 -7.64E+01

  *** SCF run converged in     1 steps ***


  Core Hamiltonian energy:                                     -6.22697141948526
  Repulsive potential energy:                                   0.31827253074706
  Electrostatic energy:                                         0.14234081057000
  Self-consistent dispersion energy:                           -0.00004482552301
  Non-self consistent dispersion energy:                        0.00000029898137
  Correction for halogen bonding:                               0.00000000000000

  Total energy:                                               -76.43738601862653


 MULLIKEN POPULATION ANALYSIS

  # Atom   Element   Kind        Atomic population                    Net charge
       1     H          1                 0.685483                      0.314517
       2     H          1                 0.685485                      0.314515
       3     O          2                 6.629032                     -0.629032
 # Total charge                           8.000000                     -0.000000


 tblite reference CLI check
 Executable: tblite
 Method:     gxtb
 Guess:      auto
 Solver:     gvd
 Spin-pol.:  F
 Grad file:  H2O_stress_L60_cli.grad
 JSON file:  H2O_stress_L60_cli.json
 Log file:   H2O_stress_L60_cli.log
 Energy CP2K/CLI/absdiff:   -7.643738601863E+01   -7.643738601876E+01    1.366942115055E-10
 Gradient diff sum/max:    1.322997216203E-07    3.688182165923E-08
 Virial diff sum/max:    3.214761357170E-02    1.580876014145E-02
 tblite reference CLI deviation exceeded ERROR_LIMIT =   1.0000E-05

 ENERGY| Total FORCE_EVAL ( QS ) energy [hartree]            -76.437386018626526

 -------------------------------------------------------------------------------
 ----                             MULTIGRID INFO                            ----
 -------------------------------------------------------------------------------
 total grid count     :           420              cutoff [a.u.]            1.00

 PW_GRID| Information for grid number                                          6
 PW_GRID| Cutoff [a.u.]                                                      1.0
 PW_GRID| spherical cutoff:                                                   NO
 PW_GRID|   Bounds   1            -27      26                Points:          54
 PW_GRID|   Bounds   2            -27      26                Points:          54
 PW_GRID|   Bounds   3            -27      26                Points:          54
 PW_GRID| Volume element (a.u.^3)   9.257         Volume (a.u.^3)   1457640.2699
 PW_GRID| Grid span                                                    FULLSPACE

 POISSON| Solver                                                        PERIODIC
 POISSON| Periodicity                                                        XYZ

 RS_GRID| Information for grid number                                          6
 RS_GRID|   Bounds   1            -27      26                Points:          54
 RS_GRID|   Bounds   2            -27      26                Points:          54
 RS_GRID|   Bounds   3            -27      26                Points:          54

 Parameters for the always stable predictor-corrector (ASPC) method:

  ASPC order: 3

  B(1) =   3.000000
  B(2) =  -3.428571
  B(3) =   1.928571
  B(4) =  -0.571429
  B(5) =   0.071429

 Extrapolation method: ASPC

 Number of electrons:                                                          8
 Number of occupied orbitals:                                                  4
 Number of molecular orbitals:                                                 6

 Number of orbital functions:                                                  6
 Number of independent orbital functions:                                      6


 SCF WAVEFUNCTION OPTIMIZATION

  Step     Update method      Time    Convergence         Total energy    Change
  ------------------------------------------------------------------------------
     1 GXTB-Raw    0.10E+01    0.0     0.00000013       -76.4373860190 -7.64E+01
     2 GXTB-Simple 0.20E+00    0.0     0.00000005       -76.4373860190 -1.42E-14
     3 GXTB-Simple 0.20E+00    0.0     0.00000004       -76.4373860190 -1.42E-14
     4 GXTB-FDIIS  0.10E+01    0.0     0.00000020       -76.4373860190 -1.42E-14
     5 GXTB-FDIIS  0.10E+01    0.0     7.6616E-09       -76.4373860190  0.00E+00
     6 GXTB-FDIIS  0.10E+01    0.0     1.1671E-09       -76.4373860190  1.42E-14
     7 GXTB-FDIIS  0.10E+01    0.0     1.5106E-10       -76.4373860190  0.00E+00
     8 GXTB-FDIIS  0.10E+01    0.0     1.4473E-11       -76.4373860190  0.00E+00

  *** SCF run converged in     8 steps ***


  Core Hamiltonian energy:                                     -6.22697133126968
  Repulsive potential energy:                                   0.31827238785241
  Electrostatic energy:                                         0.14234082929392
  Self-consistent dispersion energy:                           -0.00004482555183
  Non-self consistent dispersion energy:                        0.00000029898069
  Correction for halogen bonding:                               0.00000000000000

  Total energy:                                               -76.43738601902093


 MULLIKEN POPULATION ANALYSIS

  # Atom   Element   Kind        Atomic population                    Net charge
       1     H          1                 0.685483                      0.314517
       2     H          1                 0.685485                      0.314515
       3     O          2                 6.629032                     -0.629032
 # Total charge                           8.000000                      0.000000


 tblite reference CLI check
 Executable: tblite
 Method:     gxtb
 Guess:      auto
 Solver:     gvd
 Spin-pol.:  F
 Grad file:  H2O_stress_L60_cli.grad
 JSON file:  H2O_stress_L60_cli.json
 Log file:   H2O_stress_L60_cli.log
 Energy CP2K/CLI/absdiff:   -7.643738601902E+01   -7.643738601916E+01    1.366942115055E-10
 Gradient diff sum/max:    6.535676267927E-07    1.657065350942E-07
 Virial diff sum/max:    3.214750420620E-02    1.580908877266E-02
 tblite reference CLI deviation exceeded ERROR_LIMIT =   1.0000E-05

 ENERGY| Total FORCE_EVAL ( QS ) energy [hartree]            -76.437386019020934

 -------------------------------------------------------------------------------
 ----                             MULTIGRID INFO                            ----
 -------------------------------------------------------------------------------
 total grid count     :           420              cutoff [a.u.]            1.00

 PW_GRID| Information for grid number                                          7
 PW_GRID| Cutoff [a.u.]                                                      1.0
 PW_GRID| spherical cutoff:                                                   NO
 PW_GRID|   Bounds   1            -27      26                Points:          54
 PW_GRID|   Bounds   2            -27      26                Points:          54
 PW_GRID|   Bounds   3            -27      26                Points:          54
 PW_GRID| Volume element (a.u.^3)   9.257         Volume (a.u.^3)   1457640.2699
 PW_GRID| Grid span                                                    FULLSPACE

 POISSON| Solver                                                        PERIODIC
 POISSON| Periodicity                                                        XYZ

 RS_GRID| Information for grid number                                          7
 RS_GRID|   Bounds   1            -27      26                Points:          54
 RS_GRID|   Bounds   2            -27      26                Points:          54
 RS_GRID|   Bounds   3            -27      26                Points:          54

 Parameters for the always stable predictor-corrector (ASPC) method:

  ASPC order: 3

  B(1) =   3.000000
  B(2) =  -3.428571
  B(3) =   1.928571
  B(4) =  -0.571429
  B(5) =   0.071429

 Extrapolation method: ASPC

 Number of electrons:                                                          8
 Number of occupied orbitals:                                                  4
 Number of molecular orbitals:                                                 6

 Number of orbital functions:                                                  6
 Number of independent orbital functions:                                      6


 SCF WAVEFUNCTION OPTIMIZATION

  Step     Update method      Time    Convergence         Total energy    Change
  ------------------------------------------------------------------------------
     1 GXTB-Raw    0.10E+01    0.0     0.00000027       -76.4373860182 -7.64E+01
     2 GXTB-Simple 0.20E+00    0.0     0.00000009       -76.4373860182 -2.84E-14
     3 GXTB-Simple 0.20E+00    0.0     0.00000008       -76.4373860182 -2.84E-14
     4 GXTB-FDIIS  0.10E+01    0.0     0.00000039       -76.4373860182 -7.11E-14
     5 GXTB-FDIIS  0.10E+01    0.0     0.00000002       -76.4373860182  0.00E+00
     6 GXTB-FDIIS  0.10E+01    0.0     2.3342E-09       -76.4373860182  0.00E+00
     7 GXTB-FDIIS  0.10E+01    0.0     3.0211E-10       -76.4373860182  0.00E+00
     8 GXTB-FDIIS  0.10E+01    0.0     2.8950E-11       -76.4373860182  1.42E-14

  *** SCF run converged in     8 steps ***


  Core Hamiltonian energy:                                     -6.22697150770034
  Repulsive potential energy:                                   0.31827267364138
  Electrostatic energy:                                         0.14234079184617
  Self-consistent dispersion energy:                           -0.00004482549418
  Non-self consistent dispersion energy:                        0.00000029898205
  Correction for halogen bonding:                               0.00000000000000

  Total energy:                                               -76.43738601823189


 MULLIKEN POPULATION ANALYSIS

  # Atom   Element   Kind        Atomic population                    Net charge
       1     H          1                 0.685483                      0.314517
       2     H          1                 0.685485                      0.314515
       3     O          2                 6.629032                     -0.629032
 # Total charge                           8.000000                      0.000000


 tblite reference CLI check
 Executable: tblite
 Method:     gxtb
 Guess:      auto
 Solver:     gvd
 Spin-pol.:  F
 Grad file:  H2O_stress_L60_cli.grad
 JSON file:  H2O_stress_L60_cli.json
 Log file:   H2O_stress_L60_cli.log
 Energy CP2K/CLI/absdiff:   -7.643738601823E+01   -7.643738601837E+01    1.366942115055E-10
 Gradient diff sum/max:    7.174264059528E-07    2.209096441139E-07
 Virial diff sum/max:    3.214772293046E-02    1.580843151020E-02
 tblite reference CLI deviation exceeded ERROR_LIMIT =   1.0000E-05

 ENERGY| Total FORCE_EVAL ( QS ) energy [hartree]            -76.437386018231891

 -------------------------------------------------------------------------------
 ----                             MULTIGRID INFO                            ----
 -------------------------------------------------------------------------------
 total grid count     :           420              cutoff [a.u.]            1.00

 PW_GRID| Information for grid number                                          8
 PW_GRID| Cutoff [a.u.]                                                      1.0
 PW_GRID| spherical cutoff:                                                   NO
 PW_GRID|   Bounds   1            -27      26                Points:          54
 PW_GRID|   Bounds   2            -27      26                Points:          54
 PW_GRID|   Bounds   3            -27      26                Points:          54
 PW_GRID| Volume element (a.u.^3)   9.257         Volume (a.u.^3)   1457640.2699
 PW_GRID| Grid span                                                    FULLSPACE

 POISSON| Solver                                                        PERIODIC
 POISSON| Periodicity                                                        XYZ

 RS_GRID| Information for grid number                                          8
 RS_GRID|   Bounds   1            -27      26                Points:          54
 RS_GRID|   Bounds   2            -27      26                Points:          54
 RS_GRID|   Bounds   3            -27      26                Points:          54

 Parameters for the always stable predictor-corrector (ASPC) method:

  ASPC order: 3

  B(1) =   3.000000
  B(2) =  -3.428571
  B(3) =   1.928571
  B(4) =  -0.571429
  B(5) =   0.071429

 Extrapolation method: ASPC

 Number of electrons:                                                          8
 Number of occupied orbitals:                                                  4
 Number of molecular orbitals:                                                 6

 Number of orbital functions:                                                  6
 Number of independent orbital functions:                                      6


 SCF WAVEFUNCTION OPTIMIZATION

  Step     Update method      Time    Convergence         Total energy    Change
  ------------------------------------------------------------------------------
     1 GXTB-Raw    0.10E+01    0.0     0.00000019       -76.4373860186 -7.64E+01
     2 GXTB-Simple 0.20E+00    0.0     0.00000008       -76.4373860186 -2.84E-14
     3 GXTB-Simple 0.20E+00    0.0     0.00000007       -76.4373860186 -1.42E-14
     4 GXTB-FDIIS  0.10E+01    0.0     0.00000034       -76.4373860186 -4.26E-14
     5 GXTB-FDIIS  0.10E+01    0.0     0.00000002       -76.4373860186  0.00E+00
     6 GXTB-FDIIS  0.10E+01    0.0     1.2669E-09       -76.4373860186  0.00E+00
     7 GXTB-FDIIS  0.10E+01    0.0     1.3536E-10       -76.4373860186  1.42E-14
     8 GXTB-FDIIS  0.10E+01    0.0     4.4468E-11       -76.4373860186 -1.42E-14

  *** SCF run converged in     8 steps ***


  Core Hamiltonian energy:                                     -6.22697141948492
  Repulsive potential energy:                                   0.31827253074684
  Electrostatic energy:                                         0.14234081056938
  Self-consistent dispersion energy:                           -0.00004482552301
  Non-self consistent dispersion energy:                        0.00000029898137
  Correction for halogen bonding:                               0.00000000000000

  Total energy:                                               -76.43738601862653


 MULLIKEN POPULATION ANALYSIS

  # Atom   Element   Kind        Atomic population                    Net charge
       1     H          1                 0.685483                      0.314517
       2     H          1                 0.685485                      0.314515
       3     O          2                 6.629032                     -0.629032
 # Total charge                           8.000000                     -0.000000


 tblite reference CLI check
 Executable: tblite
 Method:     gxtb
 Guess:      auto
 Solver:     gvd
 Spin-pol.:  F
 Grad file:  H2O_stress_L60_cli.grad
 JSON file:  H2O_stress_L60_cli.json
 Log file:   H2O_stress_L60_cli.log
 Energy CP2K/CLI/absdiff:   -7.643738601863E+01   -7.643738601876E+01    1.366800006508E-10
 Gradient diff sum/max:    1.529442879033E-07    3.688155160095E-08
 Virial diff sum/max:    3.214764223929E-02    1.580876014192E-02
 tblite reference CLI deviation exceeded ERROR_LIMIT =   1.0000E-05

 ENERGY| Total FORCE_EVAL ( QS ) energy [hartree]            -76.437386018626526

 -------------------------------------------------------------------------------
 ----                             MULTIGRID INFO                            ----
 -------------------------------------------------------------------------------
 total grid count     :           420              cutoff [a.u.]            1.00

 PW_GRID| Information for grid number                                          9
 PW_GRID| Cutoff [a.u.]                                                      1.0
 PW_GRID| spherical cutoff:                                                   NO
 PW_GRID|   Bounds   1            -27      26                Points:          54
 PW_GRID|   Bounds   2            -27      26                Points:          54
 PW_GRID|   Bounds   3            -27      26                Points:          54
 PW_GRID| Volume element (a.u.^3)   9.257         Volume (a.u.^3)   1457640.2699
 PW_GRID| Grid span                                                    FULLSPACE

 POISSON| Solver                                                        PERIODIC
 POISSON| Periodicity                                                        XYZ

 RS_GRID| Information for grid number                                          9
 RS_GRID|   Bounds   1            -27      26                Points:          54
 RS_GRID|   Bounds   2            -27      26                Points:          54
 RS_GRID|   Bounds   3            -27      26                Points:          54

 Parameters for the always stable predictor-corrector (ASPC) method:

  ASPC order: 3

  B(1) =   3.000000
  B(2) =  -3.428571
  B(3) =   1.928571
  B(4) =  -0.571429
  B(5) =   0.071429

 Extrapolation method: ASPC

 Number of electrons:                                                          8
 Number of occupied orbitals:                                                  4
 Number of molecular orbitals:                                                 6

 Number of orbital functions:                                                  6
 Number of independent orbital functions:                                      6


 SCF WAVEFUNCTION OPTIMIZATION

  Step     Update method      Time    Convergence         Total energy    Change
  ------------------------------------------------------------------------------
     1 GXTB-Raw    0.10E+01    0.0     0.00000039       -76.4373860186 -7.64E+01
     2 GXTB-Simple 0.20E+00    0.0     0.00000015       -76.4373860186 -2.84E-14
     3 GXTB-Simple 0.20E+00    0.0     0.00000013       -76.4373860186 -4.26E-14
     4 GXTB-FDIIS  0.10E+01    0.0     0.00000068       -76.4373860186 -8.53E-14
     5 GXTB-FDIIS  0.10E+01    0.0     0.00000003       -76.4373860186 -1.42E-14
     6 GXTB-FDIIS  0.10E+01    0.0     6.1558E-10       -76.4373860186  0.00E+00
     7 GXTB-FDIIS  0.10E+01    0.0     6.6613E-14       -76.4373860186  0.00E+00

  *** SCF run converged in     7 steps ***


  Core Hamiltonian energy:                                     -6.22697141948502
  Repulsive potential energy:                                   0.31827253074683
  Electrostatic energy:                                         0.14234081057000
  Self-consistent dispersion energy:                           -0.00004482552301
  Non-self consistent dispersion energy:                        0.00000029898137
  Correction for halogen bonding:                               0.00000000000000

  Total energy:                                               -76.43738601862653


 MULLIKEN POPULATION ANALYSIS

  # Atom   Element   Kind        Atomic population                    Net charge
       1     H          1                 0.685483                      0.314517
       2     H          1                 0.685485                      0.314515
       3     O          2                 6.629032                     -0.629032
 # Total charge                           8.000000                     -0.000000


 tblite reference CLI check
 Executable: tblite
 Method:     gxtb
 Guess:      auto
 Solver:     gvd
 Spin-pol.:  F
 Grad file:  H2O_stress_L60_cli.grad
 JSON file:  H2O_stress_L60_cli.json
 Log file:   H2O_stress_L60_cli.log
 Energy CP2K/CLI/absdiff:   -7.643738601863E+01   -7.643738601876E+01    1.366800006508E-10
 Gradient diff sum/max:    1.529442883087E-07    3.688155160095E-08
 Virial diff sum/max:    3.214764223929E-02    1.580876014192E-02
 tblite reference CLI deviation exceeded ERROR_LIMIT =   1.0000E-05

 ENERGY| Total FORCE_EVAL ( QS ) energy [hartree]            -76.437386018626526

 -------------------------------------------------------------------------------
 ----                             MULTIGRID INFO                            ----
 -------------------------------------------------------------------------------
 total grid count     :           420              cutoff [a.u.]            1.00

 PW_GRID| Information for grid number                                         10
 PW_GRID| Cutoff [a.u.]                                                      1.0
 PW_GRID| spherical cutoff:                                                   NO
 PW_GRID|   Bounds   1            -27      26                Points:          54
 PW_GRID|   Bounds   2            -27      26                Points:          54
 PW_GRID|   Bounds   3            -27      26                Points:          54
 PW_GRID| Volume element (a.u.^3)   9.257         Volume (a.u.^3)   1457641.5555
 PW_GRID| Grid span                                                    FULLSPACE

 POISSON| Solver                                                        PERIODIC
 POISSON| Periodicity                                                        XYZ

 RS_GRID| Information for grid number                                         10
 RS_GRID|   Bounds   1            -27      26                Points:          54
 RS_GRID|   Bounds   2            -27      26                Points:          54
 RS_GRID|   Bounds   3            -27      26                Points:          54

 Parameters for the always stable predictor-corrector (ASPC) method:

  ASPC order: 3

  B(1) =   3.000000
  B(2) =  -3.428571
  B(3) =   1.928571
  B(4) =  -0.571429
  B(5) =   0.071429

 Extrapolation method: ASPC

 Number of electrons:                                                          8
 Number of occupied orbitals:                                                  4
 Number of molecular orbitals:                                                 6

 Number of orbital functions:                                                  6
 Number of independent orbital functions:                                      6


 SCF WAVEFUNCTION OPTIMIZATION

  Step     Update method      Time    Convergence         Total energy    Change
  ------------------------------------------------------------------------------
     1 GXTB-Raw    0.10E+01    0.0     0.00000019       -76.4373860186 -7.64E+01
     2 GXTB-Simple 0.20E+00    0.0     0.00000008       -76.4373860186 -1.42E-14
     3 GXTB-Simple 0.20E+00    0.0     0.00000007       -76.4373860186 -1.42E-14
     4 GXTB-FDIIS  0.10E+01    0.0     0.00000034       -76.4373860186 -2.84E-14
     5 GXTB-FDIIS  0.10E+01    0.0     0.00000001       -76.4373860186  0.00E+00
     6 GXTB-FDIIS  0.10E+01    0.0     3.0779E-10       -76.4373860186  0.00E+00
     7 GXTB-FDIIS  0.10E+01    0.0     1.1502E-13       -76.4373860186  0.00E+00

  *** SCF run converged in     7 steps ***


  Core Hamiltonian energy:                                     -6.22697141948611
  Repulsive potential energy:                                   0.31827253074705
  Electrostatic energy:                                         0.14234081057038
  Self-consistent dispersion energy:                           -0.00004482552301
  Non-self consistent dispersion energy:                        0.00000029898137
  Correction for halogen bonding:                               0.00000000000000

  Total energy:                                               -76.43738601862694


 MULLIKEN POPULATION ANALYSIS

  # Atom   Element   Kind        Atomic population                    Net charge
       1     H          1                 0.685483                      0.314517
       2     H          1                 0.685485                      0.314515
       3     O          2                 6.629032                     -0.629032
 # Total charge                           8.000000                      0.000000


 tblite reference CLI check
 Executable: tblite
 Method:     gxtb
 Guess:      auto
 Solver:     gvd
 Spin-pol.:  F
 Grad file:  H2O_stress_L60_cli.grad
 JSON file:  H2O_stress_L60_cli.json
 Log file:   H2O_stress_L60_cli.log
 Energy CP2K/CLI/absdiff:   -7.643738601863E+01   -7.643738601876E+01    1.366800006508E-10
 Gradient diff sum/max:    1.322999634692E-07    3.688236902000E-08
 Virial diff sum/max:    3.214761354809E-02    1.580876014017E-02
 tblite reference CLI deviation exceeded ERROR_LIMIT =   1.0000E-05

 ENERGY| Total FORCE_EVAL ( QS ) energy [hartree]            -76.437386018626938

 -------------------------------------------------------------------------------
 ----                             MULTIGRID INFO                            ----
 -------------------------------------------------------------------------------
 total grid count     :           420              cutoff [a.u.]            1.00

 PW_GRID| Information for grid number                                         11
 PW_GRID| Cutoff [a.u.]                                                      1.0
 PW_GRID| spherical cutoff:                                                   NO
 PW_GRID|   Bounds   1            -27      26                Points:          54
 PW_GRID|   Bounds   2            -27      26                Points:          54
 PW_GRID|   Bounds   3            -27      26                Points:          54
 PW_GRID| Volume element (a.u.^3)   9.257         Volume (a.u.^3)   1457638.9844
 PW_GRID| Grid span                                                    FULLSPACE

 POISSON| Solver                                                        PERIODIC
 POISSON| Periodicity                                                        XYZ

 RS_GRID| Information for grid number                                         11
 RS_GRID|   Bounds   1            -27      26                Points:          54
 RS_GRID|   Bounds   2            -27      26                Points:          54
 RS_GRID|   Bounds   3            -27      26                Points:          54

 Parameters for the always stable predictor-corrector (ASPC) method:

  ASPC order: 3

  B(1) =   3.000000
  B(2) =  -3.428571
  B(3) =   1.928571
  B(4) =  -0.571429
  B(5) =   0.071429

 Extrapolation method: ASPC

 Number of electrons:                                                          8
 Number of occupied orbitals:                                                  4
 Number of molecular orbitals:                                                 6

 Number of orbital functions:                                                  6
 Number of independent orbital functions:                                      6


 SCF WAVEFUNCTION OPTIMIZATION

  Step     Update method      Time    Convergence         Total energy    Change
  ------------------------------------------------------------------------------
     1 GXTB-Raw    0.10E+01    0.0     4.4122E-12       -76.4373860186 -7.64E+01

  *** SCF run converged in     1 steps ***


  Core Hamiltonian energy:                                     -6.22697141948386
  Repulsive potential energy:                                   0.31827253074709
  Electrostatic energy:                                         0.14234081056878
  Self-consistent dispersion energy:                           -0.00004482552301
  Non-self consistent dispersion energy:                        0.00000029898137
  Correction for halogen bonding:                               0.00000000000000

  Total energy:                                               -76.43738601862613


 MULLIKEN POPULATION ANALYSIS

  # Atom   Element   Kind        Atomic population                    Net charge
       1     H          1                 0.685483                      0.314517
       2     H          1                 0.685485                      0.314515
       3     O          2                 6.629032                     -0.629032
 # Total charge                           8.000000                     -0.000000


 tblite reference CLI check
 Executable: tblite
 Method:     gxtb
 Guess:      auto
 Solver:     gvd
 Spin-pol.:  F
 Grad file:  H2O_stress_L60_cli.grad
 JSON file:  H2O_stress_L60_cli.json
 Log file:   H2O_stress_L60_cli.log
 Energy CP2K/CLI/absdiff:   -7.643738601863E+01   -7.643738601876E+01    1.366942115055E-10
 Gradient diff sum/max:    1.322971043900E-07    3.688127804199E-08
 Virial diff sum/max:    3.214761355709E-02    1.580876012493E-02
 tblite reference CLI deviation exceeded ERROR_LIMIT =   1.0000E-05

 ENERGY| Total FORCE_EVAL ( QS ) energy [hartree]            -76.437386018626128

 -------------------------------------------------------------------------------
 ----                             MULTIGRID INFO                            ----
 -------------------------------------------------------------------------------
 total grid count     :           420              cutoff [a.u.]            1.00

 PW_GRID| Information for grid number                                         12
 PW_GRID| Cutoff [a.u.]                                                      1.0
 PW_GRID| spherical cutoff:                                                   NO
 PW_GRID|   Bounds   1            -27      26                Points:          54
 PW_GRID|   Bounds   2            -27      26                Points:          54
 PW_GRID|   Bounds   3            -27      26                Points:          54
 PW_GRID| Volume element (a.u.^3)   9.257         Volume (a.u.^3)   1457640.2699
 PW_GRID| Grid span                                                    FULLSPACE

 POISSON| Solver                                                        PERIODIC
 POISSON| Periodicity                                                        XYZ

 RS_GRID| Information for grid number                                         12
 RS_GRID|   Bounds   1            -27      26                Points:          54
 RS_GRID|   Bounds   2            -27      26                Points:          54
 RS_GRID|   Bounds   3            -27      26                Points:          54

 Parameters for the always stable predictor-corrector (ASPC) method:

  ASPC order: 3

  B(1) =   3.000000
  B(2) =  -3.428571
  B(3) =   1.928571
  B(4) =  -0.571429
  B(5) =   0.071429

 Extrapolation method: ASPC

 Number of electrons:                                                          8
 Number of occupied orbitals:                                                  4
 Number of molecular orbitals:                                                 6

 Number of orbital functions:                                                  6
 Number of independent orbital functions:                                      6


 SCF WAVEFUNCTION OPTIMIZATION

  Step     Update method      Time    Convergence         Total energy    Change
  ------------------------------------------------------------------------------
     1 GXTB-Raw    0.10E+01    0.0     0.00000020       -76.4373860186 -7.64E+01
     2 GXTB-Simple 0.20E+00    0.0     0.00000008       -76.4373860186 -1.42E-14
     3 GXTB-Simple 0.20E+00    0.0     0.00000007       -76.4373860186 -1.42E-14
     4 GXTB-FDIIS  0.10E+01    0.0     0.00000036       -76.4373860186 -2.84E-14
     5 GXTB-FDIIS  0.10E+01    0.0     0.00000001       -76.4373860186  0.00E+00
     6 GXTB-FDIIS  0.10E+01    0.0     2.5636E-10       -76.4373860186  0.00E+00
     7 GXTB-FDIIS  0.10E+01    0.0     2.4891E-13       -76.4373860186  0.00E+00

  *** SCF run converged in     7 steps ***


  Core Hamiltonian energy:                                     -6.22697141948499
  Repulsive potential energy:                                   0.31827253074678
  Electrostatic energy:                                         0.14234081057000
  Self-consistent dispersion energy:                           -0.00004482552301
  Non-self consistent dispersion energy:                        0.00000029898137
  Correction for halogen bonding:                               0.00000000000000

  Total energy:                                               -76.43738601862653


 MULLIKEN POPULATION ANALYSIS

  # Atom   Element   Kind        Atomic population                    Net charge
       1     H          1                 0.685483                      0.314517
       2     H          1                 0.685485                      0.314515
       3     O          2                 6.629032                     -0.629032
 # Total charge                           8.000000                      0.000000


 tblite reference CLI check
 Executable: tblite
 Method:     gxtb
 Guess:      auto
 Solver:     gvd
 Spin-pol.:  F
 Grad file:  H2O_stress_L60_cli.grad
 JSON file:  H2O_stress_L60_cli.json
 Log file:   H2O_stress_L60_cli.log
 Energy CP2K/CLI/absdiff:   -7.643738601863E+01   -7.643738601876E+01    1.366800006508E-10
 Gradient diff sum/max:    1.470810277106E-07    3.688180609529E-08
 Virial diff sum/max:    3.214764159731E-02    1.580876014149E-02
 tblite reference CLI deviation exceeded ERROR_LIMIT =   1.0000E-05

 ENERGY| Total FORCE_EVAL ( QS ) energy [hartree]            -76.437386018626526

 -------------------------------------------------------------------------------
 ----                             MULTIGRID INFO                            ----
 -------------------------------------------------------------------------------
 total grid count     :           420              cutoff [a.u.]            1.00

 PW_GRID| Information for grid number                                         13
 PW_GRID| Cutoff [a.u.]                                                      1.0
 PW_GRID| spherical cutoff:                                                   NO
 PW_GRID|   Bounds   1            -27      26                Points:          54
 PW_GRID|   Bounds   2            -27      26                Points:          54
 PW_GRID|   Bounds   3            -27      26                Points:          54
 PW_GRID| Volume element (a.u.^3)   9.257         Volume (a.u.^3)   1457640.2699
 PW_GRID| Grid span                                                    FULLSPACE

 POISSON| Solver                                                        PERIODIC
 POISSON| Periodicity                                                        XYZ

 RS_GRID| Information for grid number                                         13
 RS_GRID|   Bounds   1            -27      26                Points:          54
 RS_GRID|   Bounds   2            -27      26                Points:          54
 RS_GRID|   Bounds   3            -27      26                Points:          54

 Parameters for the always stable predictor-corrector (ASPC) method:

  ASPC order: 3

  B(1) =   3.000000
  B(2) =  -3.428571
  B(3) =   1.928571
  B(4) =  -0.571429
  B(5) =   0.071429

 Extrapolation method: ASPC

 Number of electrons:                                                          8
 Number of occupied orbitals:                                                  4
 Number of molecular orbitals:                                                 6

 Number of orbital functions:                                                  6
 Number of independent orbital functions:                                      6


 SCF WAVEFUNCTION OPTIMIZATION

  Step     Update method      Time    Convergence         Total energy    Change
  ------------------------------------------------------------------------------
     1 GXTB-Raw    0.10E+01    0.0     0.00000040       -76.4373860186 -7.64E+01
     2 GXTB-Simple 0.20E+00    0.0     0.00000016       -76.4373860186 -5.68E-14
     3 GXTB-Simple 0.20E+00    0.0     0.00000014       -76.4373860186 -4.26E-14
     4 GXTB-FDIIS  0.10E+01    0.0     0.00000072       -76.4373860186 -9.95E-14
     5 GXTB-FDIIS  0.10E+01    0.0     0.00000003       -76.4373860186 -1.42E-14
     6 GXTB-FDIIS  0.10E+01    0.0     5.1273E-10       -76.4373860186  1.42E-14
     7 GXTB-FDIIS  0.10E+01    0.0     3.7970E-14       -76.4373860186 -1.42E-14

  *** SCF run converged in     7 steps ***


  Core Hamiltonian energy:                                     -6.22697141948499
  Repulsive potential energy:                                   0.31827253074678
  Electrostatic energy:                                         0.14234081057000
  Self-consistent dispersion energy:                           -0.00004482552301
  Non-self consistent dispersion energy:                        0.00000029898137
  Correction for halogen bonding:                               0.00000000000000

  Total energy:                                               -76.43738601862653


 MULLIKEN POPULATION ANALYSIS

  # Atom   Element   Kind        Atomic population                    Net charge
       1     H          1                 0.685483                      0.314517
       2     H          1                 0.685485                      0.314515
       3     O          2                 6.629032                     -0.629032
 # Total charge                           8.000000                     -0.000000


 tblite reference CLI check
 Executable: tblite
 Method:     gxtb
 Guess:      auto
 Solver:     gvd
 Spin-pol.:  F
 Grad file:  H2O_stress_L60_cli.grad
 JSON file:  H2O_stress_L60_cli.json
 Log file:   H2O_stress_L60_cli.log
 Energy CP2K/CLI/absdiff:   -7.643738601863E+01   -7.643738601876E+01    1.366800006508E-10
 Gradient diff sum/max:    1.470810274246E-07    3.688180609529E-08
 Virial diff sum/max:    3.214764159731E-02    1.580876014149E-02
 tblite reference CLI deviation exceeded ERROR_LIMIT =   1.0000E-05

 ENERGY| Total FORCE_EVAL ( QS ) energy [hartree]            -76.437386018626526

 -------------------------------------------------------------------------------
 ----                             MULTIGRID INFO                            ----
 -------------------------------------------------------------------------------
 total grid count     :           420              cutoff [a.u.]            1.00

 PW_GRID| Information for grid number                                         14
 PW_GRID| Cutoff [a.u.]                                                      1.0
 PW_GRID| spherical cutoff:                                                   NO
 PW_GRID|   Bounds   1            -27      26                Points:          54
 PW_GRID|   Bounds   2            -27      26                Points:          54
 PW_GRID|   Bounds   3            -27      26                Points:          54
 PW_GRID| Volume element (a.u.^3)   9.257         Volume (a.u.^3)   1457640.2699
 PW_GRID| Grid span                                                    FULLSPACE

 POISSON| Solver                                                        PERIODIC
 POISSON| Periodicity                                                        XYZ

 RS_GRID| Information for grid number                                         14
 RS_GRID|   Bounds   1            -27      26                Points:          54
 RS_GRID|   Bounds   2            -27      26                Points:          54
 RS_GRID|   Bounds   3            -27      26                Points:          54

[...]
     8 GXTB-FDIIS  0.10E+01    0.0     5.9258E-11       -76.4373860322  0.00E+00

  *** SCF run converged in     8 steps ***


  Core Hamiltonian energy:                                     -6.22697203864408
  Repulsive potential energy:                                   0.31827316223316
  Electrostatic energy:                                         0.14234079503328
  Self-consistent dispersion energy:                           -0.00004482545560
  Non-self consistent dispersion energy:                        0.00000029898112
  Correction for halogen bonding:                               0.00000000000000

  Total energy:                                               -76.43738603224676


 MULLIKEN POPULATION ANALYSIS

  # Atom   Element   Kind        Atomic population                    Net charge
       1     H          1                 0.685483                      0.314517
       2     H          1                 0.685485                      0.314515
       3     O          2                 6.629032                     -0.629032
 # Total charge                           8.000000                      0.000000


 tblite reference CLI check
 Executable: tblite
 Method:     gxtb
 Guess:      auto
 Solver:     gvd
 Spin-pol.:  F
 Grad file:  H2O_stress_L60_cli.grad
 JSON file:  H2O_stress_L60_cli.json
 Log file:   H2O_stress_L60_cli.log
 Energy CP2K/CLI/absdiff:   -7.643738603225E+01   -7.643738603238E+01    1.366800006508E-10
 Gradient diff sum/max:    1.700564047086E-06    7.637654440944E-07
 Virial diff sum/max:    3.214624256323E-02    1.580866212694E-02
 tblite reference CLI deviation exceeded ERROR_LIMIT =   1.0000E-05

 ENERGY| Total FORCE_EVAL ( QS ) energy [hartree]            -76.437386032246764

 -------------------------------------------------------------------------------
 ----                             MULTIGRID INFO                            ----
 -------------------------------------------------------------------------------
 total grid count     :           420              cutoff [a.u.]            1.00

 PW_GRID| Information for grid number                                         20
 PW_GRID| Cutoff [a.u.]                                                      1.0
 PW_GRID| spherical cutoff:                                                   NO
 PW_GRID|   Bounds   1            -27      26                Points:          54
 PW_GRID|   Bounds   2            -27      26                Points:          54
 PW_GRID|   Bounds   3            -27      26                Points:          54
 PW_GRID| Volume element (a.u.^3)   9.257         Volume (a.u.^3)   1457640.2699
 PW_GRID| Grid span                                                    FULLSPACE

 POISSON| Solver                                                        PERIODIC
 POISSON| Periodicity                                                        XYZ

 RS_GRID| Information for grid number                                         20
 RS_GRID|   Bounds   1            -27      26                Points:          54
 RS_GRID|   Bounds   2            -27      26                Points:          54
 RS_GRID|   Bounds   3            -27      26                Points:          54

 Parameters for the always stable predictor-corrector (ASPC) method:

  ASPC order: 3

  B(1) =   3.000000
  B(2) =  -3.428571
  B(3) =   1.928571
  B(4) =  -0.571429
  B(5) =   0.071429

 Extrapolation method: ASPC

 Number of electrons:                                                          8
 Number of occupied orbitals:                                                  4
 Number of molecular orbitals:                                                 6

 Number of orbital functions:                                                  6
 Number of independent orbital functions:                                      6


 SCF WAVEFUNCTION OPTIMIZATION

  Step     Update method      Time    Convergence         Total energy    Change
  ------------------------------------------------------------------------------
     1 GXTB-Raw    0.10E+01    0.0     0.00000040       -76.4373860186 -7.64E+01
     2 GXTB-Simple 0.20E+00    0.0     0.00000006       -76.4373860186 -2.84E-14
     3 GXTB-Simple 0.20E+00    0.0     0.00000005       -76.4373860186  0.00E+00
     4 GXTB-FDIIS  0.10E+01    0.0     0.00000023       -76.4373860186 -1.42E-14
     5 GXTB-FDIIS  0.10E+01    0.0     7.6816E-09       -76.4373860186  0.00E+00
     6 GXTB-FDIIS  0.10E+01    0.0     5.8468E-09       -76.4373860186  0.00E+00
     7 GXTB-FDIIS  0.10E+01    0.0     1.8687E-10       -76.4373860186  0.00E+00
     8 GXTB-FDIIS  0.10E+01    0.0     2.9630E-11       -76.4373860186  0.00E+00

  *** SCF run converged in     8 steps ***


  Core Hamiltonian energy:                                     -6.22697141948524
  Repulsive potential energy:                                   0.31827253074706
  Electrostatic energy:                                         0.14234081056999
  Self-consistent dispersion energy:                           -0.00004482552301
  Non-self consistent dispersion energy:                        0.00000029898137
  Correction for halogen bonding:                               0.00000000000000

  Total energy:                                               -76.43738601862653


 MULLIKEN POPULATION ANALYSIS

  # Atom   Element   Kind        Atomic population                    Net charge
       1     H          1                 0.685483                      0.314517
       2     H          1                 0.685485                      0.314515
       3     O          2                 6.629032                     -0.629032
 # Total charge                           8.000000                      0.000000


 tblite reference CLI check
 Executable: tblite
 Method:     gxtb
 Guess:      auto
 Solver:     gvd
 Spin-pol.:  F
 Grad file:  H2O_stress_L60_cli.grad
 JSON file:  H2O_stress_L60_cli.json
 Log file:   H2O_stress_L60_cli.log
 Energy CP2K/CLI/absdiff:   -7.643738601863E+01   -7.643738601876E+01    1.366942115055E-10
 Gradient diff sum/max:    1.322985333524E-07    3.688182366110E-08
 Virial diff sum/max:    3.214761356773E-02    1.580876014144E-02
 tblite reference CLI deviation exceeded ERROR_LIMIT =   1.0000E-05

 ENERGY| Total FORCE_EVAL ( QS ) energy [hartree]            -76.437386018626526
 DEBUG| Numerical pv_virial [a.u.]
 DEBUG|                  -0.015808814688      0.000000004028      0.000447322835
 DEBUG|                   0.000000004028      0.000000459214     -0.000000004028
 DEBUG|                   0.000447322835     -0.000000004028     -0.015443803960

 DEBUG| Analytical pv_virial [a.u.]
 DEBUG|                  -0.015808813311     -0.000000000000      0.000447321365
 DEBUG|                  -0.000000000000      0.000000462982      0.000000000000
 DEBUG|                   0.000447321365      0.000000000000     -0.015443796666

 DEBUG| Difference pv_virial [a.u.]
 DEBUG|                  -0.000000001377      0.000000004028      0.000000001470
 DEBUG|                   0.000000004028     -0.000000003768     -0.000000004028
 DEBUG|                   0.000000001470     -0.000000004028     -0.000000007294
 DEBUG| Sum of differences                                        0.000000031493

 DEBUG| Relative error pv_virial
 DEBUG| Threshold value for error check [a.u.]                    1.00000000E-05
 DEBUG|                           0.00 %                 - %              0.00 %
 DEBUG|                              - %                 - %                 - %
 DEBUG|                           0.00 %                 - %              0.00 %
 DEBUG| Maximum accepted error                                            0.20 %

 -------------------------------------------------------------------------------
 -                                                                             -
 -                                DBCSR STATISTICS                             -
 -                                                                             -
 -------------------------------------------------------------------------------
 COUNTER                                    TOTAL       BLAS       SMM       ACC
 flops     1 x     6 x     1                 3168     100.0%      0.0%      0.0%     
 flops     1 x     1 x     6                 5652     100.0%      0.0%      0.0%     
 flops     4 x     6 x     1                 6336     100.0%      0.0%      0.0%     
 flops     1 x     6 x     4                 6336     100.0%      0.0%      0.0%     
 flops     4 x     1 x     6                 7536     100.0%      0.0%      0.0%     
 flops     1 x     4 x     6                 7536     100.0%      0.0%      0.0%     
 flops     4 x     6 x     4                12672     100.0%      0.0%      0.0%     
 flops     4 x     4 x     6                30144     100.0%      0.0%      0.0%     
 flops inhomo. stacks                           0       0.0%      0.0%      0.0%
 flops total                        79.380000E+03     100.0%      0.0%      0.0%
 flops max/rank                     79.380000E+03     100.0%      0.0%      0.0%
 matmuls inhomo. stacks                         0       0.0%      0.0%      0.0%
 matmuls total                               1536     100.0%      0.0%      0.0%
 number of processed stacks                   892     100.0%      0.0%      0.0%
 average stack size                                     1.7       0.0       0.0
 marketing flops                    73.728000E+03
 -------------------------------------------------------------------------------
 # multiplications                            223
 max memory usage/rank               9.903518E+09
 # max total images/rank                        1
 # max 3D layers                                1
 # MPI messages exchanged                       0
 -------------------------------------------------------------------------------
 -                                                                             -
 -                      DBCSR MESSAGE PASSING PERFORMANCE                      -
 -                                                                             -
 -------------------------------------------------------------------------------
 ROUTINE             CALLS      AVE VOLUME [Bytes]
 MP_Bcast                9                     12.
 MP_Allreduce         1018                      9.
 MP_Alltoall          5782                    293.
 MP_ISend              892                     78.
 MP_IRecv              892                     78.
 -------------------------------------------------------------------------------

 -------------------------------------------------------------------------------
 -                                                                             -
 -                          OFFLOAD MEMPOOL STATISTICS                         -
 -                                                                             -
 -------------------------------------------------------------------------------
 Memory consumption                Number of allocations  Used [MiB]  Size [MiB]
 Host                                                  1           1           0
 -------------------------------------------------------------------------------

 MEMORY| Estimated peak process memory [MiB]                                 136

 -------------------------------------------------------------------------------
 ----                             MULTIGRID INFO                            ----
 -------------------------------------------------------------------------------
 total grid count     :           420              cutoff [a.u.]            1.00

 -------------------------------------------------------------------------------
 -                                                                             -
 -                         MESSAGE PASSING PERFORMANCE                         -
 -                                                                             -
 -------------------------------------------------------------------------------

 ROUTINE             CALLS      AVE VOLUME [Bytes]
 MP_Group               20
 MP_Bcast              274                     26.
 MP_Allreduce         4498                     50.
 MP_Sync               157
 MP_comm_split         137
 -------------------------------------------------------------------------------


 -------------------------------------------------------------------------------
 -                                                                             -
 -                           R E F E R E N C E S                               -
 -                                                                             -
 -------------------------------------------------------------------------------
 
 CP2K version 2026.2 (Development Version), the CP2K developers group (2026).
 CP2K is freely available from https://www.cp2k.org/ .
 
 M. Iannuzzi, J. Wilhelm, F. Stein, A. Bussy, H. Elgabarty, D. Golze, A. Hehn, 
 M. Graml, S. Marek, B. Sertcan Gökmen, C. Schran, H. Forbert, R. Z. 
 Khaliullin, A. Kozhevnikov, M. Taillefumier, R. Meli, V. V. Rybkin, M. Brehm, 
 R. Schade, O. Schütt, J. V. Pototschnig, H. Mirhosseini, A. Knüpfer, D. Marx, 
 M. Krack, J. Hutter, T. D. Kühne.
 J. Phys. Chem. B 130, 1237-1310 (2026).
 The CP2K Program Package Made Simple.
 https://doi.org/10.1021/acs.jpcb.5c05851

 A. Katbashev, M. Stahn, T. Rose, V. Alizadeh, M. Friede, C. Plett, P. 
 Steinbach, S. Ehlert.
 J. Phys. Chem. A 129, 2667-2682 (2025).
 Overview on Building Blocks and Applications of Efficient and Robust Extended 
 Tight Binding.
 https://doi.org/10.1021/acs.jpca.4c08263

 T. D. Kühne, M. Iannuzzi, M. Del Ben, V. V. Rybkin, P. Seewald, F. Stein, T. 
 Laino, R. Z. Khaliullin, O. Schütt, F. Schiffmann, D. Golze, J. Wilhelm, S. 
 Chulkov, M. H. Bani-Hashemian, V. Weber, U. Borstnik, M. Taillefumier, A. S. 
 Jakobovits, A. Lazzaro, H. Pabst, T. Müller, R. Schade, M. Guidon, S. 
 Andermatt, N. Holmberg, G. K. Schenter, A. Hehn, A. Bussy, F. Belleflamme, G. 
 Tabacchi, A. Glöß, M. Lass, I. Bethune, C. J. Mundy, C. Plessl, M. Watkins, 
 J. VandeVondele, M. Krack, J. Hutter.
 J. Chem. Phys. 152, 194103 (2020).
 CP2K: An electronic structure and molecular dynamics software package - 
 Quickstep: Efficient and accurate electronic structure calculations.
 https://doi.org/10.1063/5.0007045

 P. Pracht, E. Caldeweyher, S. Ehlert, S. Grimme.
 ChemRxiv, (2019).
 A Robust Non-Self-Consistent Tight-Binding Quantum Chemistry Method for large 
 Molecules.
 https://doi.org/10.26434/chemrxiv.8326202.v1

 S. Grimme, C. Bannwarth, P. Shushkov.
 J. Chem. Theory Comput. 13, 1989 (2017).
 A Robust and Accurate Tight-Binding Quantum Chemical Method for Structures, 
 Vibrational Frequencies, and Noncovalent Interactions of Large Molecular 
 Systems Parametrized for All spd-Block Elements (Z = 1-86).
 https://doi.org/10.1021/acs.jctc.7b00118

 O. Schuett, P. Messmer, J. Hutter, J. VandeVondele.
 Electronic Structure Calculations on Graphics Processing Units, 173-190 (2016).
 GPU-Accelerated Sparse Matrix-Matrix Multiplication for Linear Scaling Density 
 Functional Theory.
 https://doi.org/10.1002/9781118670712.ch8

 U. Borstnik, J. VandeVondele, V. Weber, J. Hutter.
 Parallel Comput. 40, 47-58 (2014).
 Sparse matrix multiplication: The distributed block-compressed sparse row 
 library.
 https://doi.org/10.1016/j.parco.2014.03.012

 T. D. Kühne, M. Krack, F. R. Mohamed, M. Parrinello.
 Phys. Rev. Lett. 98, 066401 (2007).
 Efficient and accurate Car-Parrinello-like approach to Born-Oppenheimer 
 molecular dynamics.
 https://doi.org/10.1103/PhysRevLett.98.066401

 M. Frigo, S. G. Johnson.
 Proc. IEEE 93, 216-231 (2005).
 The design and implementation of FFTW3.
 https://doi.org/10.1109/JPROC.2004.840301

 J. Kolafa.
 J. Comput. Chem. 25, 335-342 (2004).
 Time-reversible always stable predictor-corrector method for molecular dynamics 
 of polarizable molecules.
 https://doi.org/10.1002/jcc.10385


 -------------------------------------------------------------------------------
 -                                                                             -
 -                                T I M I N G                                  -
 -                                                                             -
 -------------------------------------------------------------------------------
 SUBROUTINE                       CALLS  ASD         SELF TIME        TOTAL TIME
                                MAXIMUM       AVERAGE  MAXIMUM  AVERAGE  MAXIMUM
 CP2K                                 1  1.0    0.009    0.009    1.239    1.239
 qs_energies                         20  2.0    0.001    0.001    1.155    1.155
 qs_env_rebuild_pw_env               22  3.1    0.000    0.000    0.479    0.479
 pw_env_rebuild                      20  4.0    0.002    0.002    0.479    0.479
 pw_grid_setup                       20  5.0    0.000    0.000    0.469    0.469
 pw_grid_setup_internal              20  6.0    0.015    0.015    0.469    0.469
 tb_reference_cli_compare            20  3.0    0.385    0.385    0.385    0.385
 pw_grid_sort                        20  7.0    0.276    0.276    0.377    0.377
 scf_env_do_scf                      20  3.0    0.000    0.000    0.197    0.197
 scf_env_do_scf_inner_loop          137  4.1    0.022    0.022    0.197    0.197
 qs_scf_new_mos                     137  5.1    0.003    0.003    0.139    0.139
 sort_shells                         20  8.1    0.101    0.101    0.101    0.101
 calculate_dm_sparse                156  6.1    0.001    0.001    0.098    0.098
 cp_dbcsr_plus_fm_fm_t              157  7.1    0.001    0.001    0.098    0.098
 dbcsr_multiply_generic             223  8.0    0.006    0.006    0.090    0.090
 qs_energies_init_hamiltonians       20  3.0    0.000    0.000    0.077    0.077
 pw_grid_assign                      20  7.0    0.076    0.076    0.076    0.076
 build_tblite_matrices               21  4.0    0.056    0.056    0.064    0.064
 init_scf_run                        20  3.0    0.000    0.000    0.061    0.061
 scf_env_initial_rho_setup           20  4.0    0.000    0.000    0.055    0.055
 wfi_extrapolate                     20  5.0    0.001    0.001    0.055    0.055
 qs_forces                            1  2.0    0.000    0.000    0.052    0.052
 make_m2s                           446  9.0    0.003    0.003    0.048    0.048
 dbcsr_complete_redistribute        603  8.2    0.015    0.015    0.038    0.038
 copy_dbcsr_to_fm                   223  6.2    0.002    0.002    0.037    0.037
 qs_init_subsys                       1  2.0    0.002    0.002    0.036    0.036
 cp_dbcsr_sm_fm_multiply             66  6.0    0.001    0.001    0.035    0.035
 rebuild_ks_matrix                  157  5.8    0.000    0.000    0.032    0.032
 build_tblite_ks_matrix             157  6.8    0.026    0.026    0.031    0.031
 qs_env_setup                         1  3.0    0.000    0.000    0.031    0.031
 qs_ks_update_qs_env                156  4.8    0.000    0.000    0.029    0.029
 eigensolver                        137  6.1    0.007    0.007    0.027    0.027
 copy_fm_to_dbcsr                   380  7.9    0.001    0.001    0.026    0.026
 -------------------------------------------------------------------------------

 The number of warnings for this run is : 1
 
 -------------------------------------------------------------------------------
  **** **** ******  **  PROGRAM ENDED AT                 2026-07-21 18:02:29.826
 ***** ** ***  *** **   PROGRAM RAN ON                                     terok
 **    ****   ******    PROGRAM RAN BY                                  kuehne88
 ***** **    ** ** **   PROGRAM PROCESS ID                               1660307
  **** **  *******  **  PROGRAM STOPPED IN /home/kuehne88/work/h2o-molecular-lim
                                           it-fix-20260721/stress/raw/H2O_stress
                                           _L60
