 GXTB-QUALIFICATION_ONLY ACP-PROJECTOR-CACHE repeatedHit=1 directBypass=1
 GXTB-QUALIFICATION_ONLY ACP-PROJECTOR-CACHE repeatedHit=1 directBypass=1
              512 (U)
 DBCSR| Multiplication stack size                                           1000 (D)
 DBCSR| Maximum elements for images                                    UNLIMITED (U)
 DBCSR| Multiplicative factor virtual images                                   1 (U)
 DBCSR| Use multiplication densification                                       T (D)
 DBCSR| Multiplication size stacks                                             3 (U)
 DBCSR| Use memory pool for CPU allocation                                     F (U)
 DBCSR| Number of 3D layers                                               SINGLE (U)
 DBCSR| Use MPI memory allocation                                              F (U)
 DBCSR| Use RMA algorithm                                                      F (U)
 DBCSR| Use Communication thread                                               T (U)
 DBCSR| Communication thread load                                             87 (D)
 DBCSR| MPI: My process id                                                     0
 DBCSR| MPI: Number of processes                                               2
 DBCSR| OMP: Current number of threads                                         1
 DBCSR| OMP: Max number of threads                                             1
 DBCSR| Split modifier for TAS multiplication algorithm                  1.0E+00 (U)


  **** **** ******  **  PROGRAM STARTED AT               2026-07-22 15:21:29.462
 ***** ** ***  *** **   PROGRAM STARTED ON            fwu110.ad.fz-rossendorf.de
 **    ****   ******    PROGRAM STARTED BY                               tkuehne
 ***** **    ** ** **   PROGRAM PROCESS ID                                 25373
  **** **  *******  **  PROGRAM STARTED IN /Users/tkuehne/work/Periodic-g-xTB-Be
                                           nchmarks-part-II-20260722/validation/
                                           accelerated_exchange/compact_partial_
                                           mixed_radix_20260722

 CP2K| version string:                 CP2K version 2026.2 (Development Version)
 CP2K| source code revision number:                                   448a5e4d03
 CP2K| cp2kflags: omp parallel scalapack no_statm_access s_dftd3 mctc-lib tblite
 CP2K|             tblite_gxtb
 CP2K| is freely available from                            https://www.cp2k.org/
 CP2K| Program compiled at                                   2026-07-22 14:32:05
 CP2K| Program compiled on                                                      
 CP2K| Program compiled for                                                arm64
 CP2K| Data directory path                            /usr/local/share/cp2k/data
 CP2K| Input file name        /Users/tkuehne/work/Periodic-g-xTB-Benchmarks-part

 GLOBAL| Force Environment number                                              1
 GLOBAL| Basis set file name                                           BASIS_SET
 GLOBAL| Potential file name                                           POTENTIAL
 GLOBAL| MM Potential file name                                     MM_POTENTIAL
 GLOBAL| Coordinate file name                                      __STD_INPUT__
 GLOBAL| Method name                                                        CP2K
 GLOBAL| Project name                   Si_prim_gxtb_range_local_fft_full_shifte
 GLOBAL| Run type                                                   ENERGY_FORCE
 GLOBAL| FFT library                                                       FFTW3
 GLOBAL| Diagonalization library                                       ScaLAPACK
 GLOBAL| Cholesky decomposition library                                ScaLAPACK
 GLOBAL| DGEMM library                                                      BLAS
 GLOBAL| Direct generalized diagonalization requested                          F
 GLOBAL| Orthonormality check for eigenvectors                          DISABLED
 GLOBAL| Matrix multiplication library                                 ScaLAPACK
 GLOBAL| All-to-all communication in single precision                          F
 GLOBAL| FFTs using library dependent lengths                                  F
 GLOBAL| Grid backend                                                       AUTO
 GLOBAL| Global print level                                               MEDIUM
 GLOBAL| MPI I/O enabled                                                       T
 GLOBAL| Total number of message passing processes                             2
 GLOBAL| Number of distributed systems (nodes)                                 1
 GLOBAL| Number of threads for this process                                    1
 GLOBAL| This output is from process                                           0
 GLOBAL| OpenMP stack size per thread (OMP_STACKSIZE)                    default
 GLOBAL| CPU model name                                                  UNKNOWN
 GLOBAL| CPUID                                                              2000

 MEMORY| system memory details [Kb]
 MEMORY|                        rank 0           min           max       average
 MEMORY| MemTotal                    0             0             0             0
 MEMORY| MemFree                     0             0             0             0
 MEMORY| Buffers                     0             0             0             0
 MEMORY| Cached                      0             0             0             0
 MEMORY| Slab                        0             0             0             0
 MEMORY| SReclaimable                0             0             0             0
 MEMORY| MemLikelyFree               0             0             0             0


 *** WARNING in environment.F:1098 :: FFT library FFTW3 is not available. ***
 *** Trying FFT library FFTSG.                                            ***


 *** Fundamental physical constants (SI units) ***

 *** Literature: B. J. Mohr and B. N. Taylor,
 ***             CODATA recommended values of the fundamental physical
 ***             constants: 2006, Web Version 5.1
 ***             http://physics.nist.gov/constants

 Speed of light in vacuum [m/s]                             2.99792458000000E+08
 Magnetic constant or permeability of vacuum [N/A**2]       1.25663706143592E-06
 Electric constant or permittivity of vacuum [F/m]          8.85418781762039E-12
 Planck constant (h) [J*s]                                  6.62606896000000E-34
 Planck constant (h-bar) [J*s]                              1.05457162825177E-34
 Elementary charge [C]                                      1.60217648700000E-19
 Electron mass [kg]                                         9.10938215000000E-31
 Electron g factor [ ]                                     -2.00231930436220E+00
 Proton mass [kg]                                           1.67262163700000E-27
 Fine-structure constant                                    7.29735253760000E-03
 Rydberg constant [1/m]                                     1.09737315685270E+07
 Avogadro constant [1/mol]                                  6.02214179000000E+23
 Boltzmann constant [J/K]                                   1.38065040000000E-23
 Atomic mass unit [kg]                                      1.66053878200000E-27
 Bohr radius [m]                                            5.29177208590000E-11

 *** Conversion factors ***

 [u] -> [a.u.]                                              1.82288848426455E+03
 [Angstrom] -> [Bohr] = [a.u.]                              1.88972613288564E+00
 [a.u.] = [Bohr] -> [Angstrom]                              5.29177208590000E-01
 [a.u.] -> [s]                                              2.41888432650478E-17
 [a.u.] -> [fs]                                             2.41888432650478E-02
 [a.u.] -> [J]                                              4.35974393937059E-18
 [a.u.] -> [N]                                              8.23872205491840E-08
 [a.u.] -> [K]                                              3.15774647902944E+05
 [a.u.] -> [kJ/mol]                                         2.62549961709828E+03
 [a.u.] -> [kcal/mol]                                       6.27509468713739E+02
 [a.u.] -> [Pa]                                             2.94210107994716E+13
 [a.u.] -> [bar]                                            2.94210107994716E+08
 [a.u.] -> [atm]                                            2.90362800883016E+08
 [a.u.] -> [eV]                                             2.72113838565563E+01
 [a.u.] -> [Hz]                                             6.57968392072181E+15
 [a.u.] -> [1/cm] (wave numbers)                            2.19474631370540E+05
 [a.u./Bohr**2] -> [1/cm]                                   5.14048714338585E+03
 

 CELL| Volume [angstrom^3]:                                            40.047869
 CELL| Vector a [angstrom]:       3.840     0.000     0.000   |a| =     3.840297
 CELL| Vector b [angstrom]:       1.920     3.326     0.000   |b| =     3.840297
 CELL| Vector c [angstrom]:       1.920     1.109     3.136   |c| =     3.840297
 CELL| Angle (b,c), alpha [degree]:                                    60.000000
 CELL| Angle (a,c), beta  [degree]:                                    60.000000
 CELL| Angle (a,b), gamma [degree]:                                    60.000000
 CELL| Numerically orthorhombic:                                              NO
 CELL| Periodicity                                                           XYZ

 CELL_REF| Volume [angstrom^3]:                                        40.047869
 CELL_REF| Vector a [angstrom     3.840     0.000     0.000   |a| =     3.840297
 CELL_REF| Vector b [angstrom     1.920     3.326     0.000   |b| =     3.840297
 CELL_REF| Vector c [angstrom     1.920     1.109     3.136   |c| =     3.840297
 CELL_REF| Angle (b,c), alpha [degree]:                                60.000000
 CELL_REF| Angle (a,c), beta  [degree]:                                60.000000
 CELL_REF| Angle (a,b), gamma [degree]:                                60.000000
 CELL_REF| Numerically orthorhombic:                                          NO
 CELL_REF| Periodicity                                                       XYZ

 GENERATE|  Preliminary Number of Bonds generated:                             0
 GENERATE|  Achieved consistency in connectivity generation.


                  #####   #####        #     #   #     #       #          
                 #     # #     #      #    ##### #     #   # #####  ####  
                 #     # #           #       #   ###   #       #   #    # 
                 #     #  #####     #        #   #  #  #   #   #   ###### 
                 #   # #       #   #         #   #   # #   #   #   #      
                 #    #  #     #  #          #   #  #  # # #   #    #   # 
                  #### #  #####  #           #   ###   ##  #   #     ###  

                                     g-xTB   
                                 Version 0.0                       
                            Johann V. Pototschnig                  

                tblite provider: SAVE
                tblite source revision: unknown
                g-xTB support: enabled

 xTB| Parameter file                                             xTB1_parameters
 xTB| Basis expansion STO-NG                                                   6
 xTB| Basis expansion STO-NG for Hydrogen                                      4
 xTB| Repulsive pair potential accuracy                               0.1000E-09
 xTB| Repulsive enhancement factor                                      0.000000
 xTB| Halogen interaction potential                                            T
 xTB| Halogen interaction potential cutoff radius                         20.000
 xTB| Nonbonded interactions                                                   F
 xTB| vdW potential type:                                              DFTD3(BJ)
 xTB| D3 Dispersion: Parameter                                         dftd3.dat
 xTB| Huckel constants ks kp kd                        1.850     2.250     2.000
 xTB| Huckel constants ksp k2sh                                  2.080     2.850
 xTB| Mataga-Nishimoto exponent                                            2.000
 xTB| Repulsion potential exponent                                         1.500
 xTB| Coordination number scaling kcn(s) kcn(p) kc     0.006    -0.003    -0.005
 xTB| Electronegativity scaling                                           -0.007
 xTB| Halogen potential scaling kxr kx2                          1.300     0.440
 xTB| SCC mixer:                                                       AUTO
 xTB| tblite accuracy:                                                 1.000E+00
 xTB| tblite SCC mixer damping:                                            0.400
 xTB| tblite SCC mixer iterations:                                           250
 xTB| tblite SCC mixer memory:                                               250
 xTB| tblite SCC mixer solver:                                         GVD
 xTB| tblite SCC mixer omega0:                                         1.000E-02
 xTB| tblite SCC mixer min weight:                                     1.000E+00
 xTB| tblite SCC mixer max weight:                                     1.000E+05
 xTB| tblite SCC mixer weight factor:                                  1.000E-02




 ATOMIC KIND INFORMATION

  1. Atomic kind: Si                                    Number of atoms:       2

     Orbital Basis Set                                                 Si_STO-5G

       Number of orbital shell sets:                                           3
       Number of orbital shells:                                               3
       Number of primitive Cartesian functions:                               11
       Number of Cartesian basis functions:                                   10
       Number of spherical basis functions:                                    9
       Norm type:                                                              3

       Normalised Cartesian orbitals:

                        Set   Shell   Orbital            Exponent    Coefficient

                          1       1    1s                4.480989       0.081515
                                                         1.311833      -0.308482
                                                         0.304930       0.120488
                                                         0.201075       0.078155
                                                         0.076953       0.045458

                          2       1    2px               1.203692      -0.166706
                                                         0.488460       0.180988
                                                         0.183780       0.100040
                                                         0.065048       0.013180
                          2       1    2py               1.203692      -0.166706
                                                         0.488460       0.180988
                                                         0.183780       0.100040
                                                         0.065048       0.013180
                          2       1    2pz               1.203692      -0.166706
                                                         0.488460       0.180988
                                                         0.183780       0.100040
                                                         0.065048       0.013180

                          3       1    3dx2              1.062530       0.455864
                                                         0.288560       0.159361
                          3       1    3dxy              1.062530       0.789580
                                                         0.288560       0.276021
                          3       1    3dxz              1.062530       0.789580
                                                         0.288560       0.276021
                          3       1    3dy2              1.062530       0.455864
                                                         0.288560       0.159361
                          3       1    3dyz              1.062530       0.789580
                                                         0.288560       0.276021
                          3       1    3dz2              1.062530       0.455864
                                                         0.288560       0.159361

     AE Potential information for                                        Silicon

       Description:                                       Bare Coulomb Potential
                                                             Valence charge only

       Gaussian exponent of the core charge distribution:               1.623245
       Electronic configuration (s p d ...):                       2   2   0   0


 MOLECULE KIND INFORMATION


 All atoms are their own molecule, skipping detailed information


 TOTAL NUMBERS AND MAXIMUM NUMBERS

  Total number of            - Atomic kinds:                                   1
                             - Atoms:                                          2
                             - Shell sets:                                     6
                             - Shells:                                         6
                             - Primitive Cartesian functions:                 22
                             - Cartesian basis functions:                     20
                             - Spherical basis functions:                     18

  Maximum angular momentum of the orbital basis functions:                     2


 MODULE QUICKSTEP: ATOMIC COORDINATES IN ANGSTROM

   Atom Kind Element         X             Y             Z       Z(eff)     Mass
      1    1 Si   14      0.000000      0.000000      0.000000   4.0000  28.0855
      2    1 Si   14      1.920148      1.108598      0.783897   4.0000  28.0855



 SCF PARAMETERS         Density guess:                                     MOPAC
                        --------------------------------------------------------
                        max_scf:                                             300
                        max_scf_history:                                       0
                        max_diis:                                              4
                        --------------------------------------------------------
                        eps_scf:                                        1.00E-10
                        eps_scf_history:                                0.00E+00
                        eps_diis:                                       1.00E-01
                        eps_eigval:                                     1.00E-05
                        --------------------------------------------------------
                        level_shift [a.u.]:                             0.000000
                        added MOs                                        14   -1
                        --------------------------------------------------------
                        Mixing method:                           DIRECT_P_MIXING
                        --------------------------------------------------------
                        Smear method:                                FERMI_DIRAC
                        Electronic temperature [K]:                        300.0
                        Electronic temperature [a.u.]:                  9.50E-04
                        Accuracy threshold:                             1.00E-10
                        --------------------------------------------------------
                        No outer SCF

 PW_GRID| Information for grid number                                          1
 PW_GRID| Grid distributed over                                     2 processors
 PW_GRID| Real space group dimensions                                     2    1
 PW_GRID| the grid is blocked:                                                NO
 PW_GRID| Cutoff [a.u.]                                                      1.0
 PW_GRID| spherical cutoff:                                                   NO
 PW_GRID|   Bounds   1             -2       1                Points:           4
 PW_GRID|   Bounds   2             -2       1                Points:           4
 PW_GRID|   Bounds   3             -2       1                Points:           4
 PW_GRID| Volume element (a.u.^3)   4.223         Volume (a.u.^3)       270.2564
 PW_GRID| Grid span                                                    FULLSPACE
 PW_GRID|   Distribution                         Average         Max         Min
 PW_GRID|   G-Vectors                               32.0          32          32
 PW_GRID|   G-Rays                                   8.0           8           8
 PW_GRID|   Real Space Points                       32.0          32          32

 POISSON| Solver                                                        PERIODIC
 POISSON| Periodicity                                                        XYZ

 RS_GRID| Information for grid number                                          1
 RS_GRID|   Bounds   1             -2       1                Points:           4
 RS_GRID|   Bounds   2             -2       1                Points:           4
 RS_GRID|   Bounds   3             -2       1                Points:           4
 RS_GRID| Real space fully replicated
 RS_GRID| Group size                                                           1

 *******************************************************************************
                                    Kpoints
 *******************************************************************************
 BRILLOUIN| K-point scheme                                             MacDonald
 BRILLOUIN| K-Point grid                                             2    2    2
 BRILLOUIN| K-Point shift                             0.2500    0.2500    0.2500
 BRILLOUIN| K-point symmetry accuracy                               0.100000E-05
 BRILLOUIN| K-Point point group symmetrization                               OFF
 BRILLOUIN| Wavefunction type                                            COMPLEX
 BRILLOUIN| Use full k-point grid     
 BRILLOUIN| List of Kpoints [2 Pi/Bohr]                                        8
 BRILLOUIN| Number           Weight            X              Y              Z
 BRILLOUIN|     1           0.12500        0.00000        0.00000        0.00000
 BRILLOUIN|     2           0.12500        0.00000        0.00000        0.50000
 BRILLOUIN|     3           0.12500        0.00000        0.50000        0.00000
 BRILLOUIN|     4           0.12500        0.00000        0.50000        0.50000
 BRILLOUIN|     5           0.12500        0.50000        0.00000        0.00000
 BRILLOUIN|     6           0.12500        0.50000        0.00000        0.50000
 BRILLOUIN|     7           0.12500        0.50000        0.50000        0.00000
 BRILLOUIN|     8           0.12500        0.50000        0.50000        0.50000
 *******************************************************************************
 GXTB-QUALIFICATION_ONLY ACP-PROJECTOR-CACHE repeatedHit=1 directBypass=1

 Extrapolation method: initial_guess

 Number of electrons:                                                          8
 Number of occupied orbitals:                                                  4
 Number of molecular orbitals:                                                18

 Number of orbital functions:                                                 18
 Number of independent orbital functions:                                     18


 SCF WAVEFUNCTION OPTIMIZATION

  Step     Update method      Time    Convergence         Total energy    Change
  ------------------------------------------------------------------------------
 GXTB-QUALIFICATION_ONLY KGROUP-PARTIAL-ROOT iter=1 dE=  0.000000E+00 dVsh=  0.000000E+00 dFfold=  0.000000E+00
 GXTB-KGROUP-PARTIAL-DISTRIBUTED-IMAGES importers=2, empty=0, nred=8, nfull=8, batch=2; distributed nonlinear image kernel and all-k partial pulls
 GXTB-EXCHANGE-TRANSFORM stage=FORWARD backend=MIXED_RADIX_FFT fallback=0 iter=1
 GXTB-QUALIFICATION_ONLY KGROUP-PARTIAL-ROOT iter=1 dE=  2.220446E-16 dVsh=  8.673617E-19 dFfold=  5.551115E-17
 GXTB-KGROUP-PARTIAL-DISTRIBUTED-IMAGES importers=2, empty=0, nred=8, nfull=8, batch=2; distributed nonlinear image kernel and all-k partial pulls
 GXTB-EXCHANGE-TRANSFORM stage=FORWARD backend=MIXED_RADIX_FFT fallback=0 iter=1
     1 GXTB-Raw    0.10E+01   12.4     0.63705816      -579.0057049138 -5.79E+02
 GXTB-QUALIFICATION_ONLY KGROUP-PARTIAL-ROOT iter=2 dE=  2.220446E-16 dVsh=  8.673617E-19 dFfold=  5.551115E-17
 GXTB-QUALIFICATION_ONLY KGROUP-PARTIAL-ROOT iter=2 dE=  2.220446E-16 dVsh=  8.673617E-19 dFfold=  5.551115E-17
     2 GXTB-Simple 0.20E+00   12.5     0.02306447      -579.0231839753 -1.75E-02
 GXTB-QUALIFICATION_ONLY KGROUP-PARTIAL-ROOT iter=3 dE=  2.220446E-16 dVsh=  8.673617E-19 dFfold=  5.551115E-17
 GXTB-QUALIFICATION_ONLY KGROUP-PARTIAL-ROOT iter=3 dE=  6.661338E-16 dVsh=  8.673617E-19 dFfold=  8.326673E-17
     3 GXTB-Simple 0.20E+00   12.6     0.02023149      -579.0334598346 -1.03E-02
 GXTB-QUALIFICATION_ONLY KGROUP-PARTIAL-ROOT iter=4 dE=  6.661338E-16 dVsh=  8.673617E-19 dFfold=  8.326673E-17
 GXTB-QUALIFICATION_ONLY KGROUP-PARTIAL-ROOT iter=4 dE=  9.992007E-16 dVsh=  8.673617E-19 dFfold=  1.110223E-16
     4 GXTB-FDIIS  0.10E+01   12.6     0.11383495      -579.0508725461 -1.74E-02
 GXTB-QUALIFICATION_ONLY KGROUP-PARTIAL-ROOT iter=5 dE=  9.992007E-16 dVsh=  8.673617E-19 dFfold=  1.110223E-16
 GXTB-QUALIFICATION_ONLY KGROUP-PARTIAL-ROOT iter=5 dE=  2.220446E-16 dVsh=  8.673617E-19 dFfold=  8.326673E-17
     5 GXTB-FDIIS  0.10E+01   12.6     0.00921209      -579.0509195802 -4.70E-05
 GXTB-QUALIFICATION_ONLY KGROUP-PARTIAL-ROOT iter=6 dE=  2.220446E-16 dVsh=  8.673617E-19 dFfold=  8.326673E-17
 GXTB-QUALIFICATION_ONLY KGROUP-PARTIAL-ROOT iter=6 dE=  3.330669E-16 dVsh=  1.734723E-18 dFfold=  1.665335E-16
     6 GXTB-FDIIS  0.10E+01   12.6     0.00769705      -579.0509286837 -9.10E-06
 GXTB-QUALIFICATION_ONLY KGROUP-PARTIAL-ROOT iter=7 dE=  3.330669E-16 dVsh=  1.734723E-18 dFfold=  1.665335E-16
 GXTB-QUALIFICATION_ONLY KGROUP-PARTIAL-ROOT iter=7 dE=  4.440892E-16 dVsh=  8.673617E-19 dFfold=  8.326673E-17
     7 GXTB-FDIIS  0.10E+01   12.6     0.00023857      -579.0509287671 -8.34E-08
 GXTB-QUALIFICATION_ONLY KGROUP-PARTIAL-ROOT iter=8 dE=  4.440892E-16 dVsh=  8.673617E-19 dFfold=  8.326673E-17
 GXTB-QUALIFICATION_ONLY KGROUP-PARTIAL-ROOT iter=8 dE=  3.330669E-16 dVsh=  8.673617E-19 dFfold=  1.110223E-16
     8 GXTB-FDIIS  0.10E+01   12.6     0.00002028      -579.0509287673 -2.73E-10
 GXTB-QUALIFICATION_ONLY KGROUP-PARTIAL-ROOT iter=9 dE=  3.330669E-16 dVsh=  8.673617E-19 dFfold=  1.110223E-16
 GXTB-QUALIFICATION_ONLY KGROUP-PARTIAL-ROOT iter=9 dE=  0.000000E+00 dVsh=  8.673617E-19 dFfold=  1.110223E-16
     9 GXTB-FDIIS  0.10E+01   12.6     0.00000251      -579.0509287673 -2.27E-12
 GXTB-QUALIFICATION_ONLY KGROUP-PARTIAL-ROOT iter=10 dE=  0.000000E+00 dVsh=  8.673617E-19 dFfold=  1.110223E-16
 GXTB-QUALIFICATION_ONLY KGROUP-PARTIAL-ROOT iter=10 dE=  1.110223E-16 dVsh=  8.673617E-19 dFfold=  5.551115E-17
    10 GXTB-FDIIS  0.10E+01   12.6     0.00000017      -579.0509287673 -1.14E-13
 GXTB-QUALIFICATION_ONLY KGROUP-PARTIAL-ROOT iter=11 dE=  1.110223E-16 dVsh=  8.673617E-19 dFfold=  5.551115E-17
 GXTB-QUALIFICATION_ONLY KGROUP-PARTIAL-ROOT iter=11 dE=  7.771561E-16 dVsh=  8.673617E-19 dFfold=  1.665335E-16
    11 GXTB-FDIIS  0.10E+01   12.6     1.9315E-09      -579.0509287673  0.00E+00
 GXTB-QUALIFICATION_ONLY KGROUP-PARTIAL-ROOT iter=12 dE=  7.771561E-16 dVsh=  8.673617E-19 dFfold=  1.665335E-16
 GXTB-QUALIFICATION_ONLY KGROUP-PARTIAL-ROOT iter=12 dE=  1.110223E-16 dVsh=  1.734723E-18 dFfold=  8.326673E-17
    12 GXTB-FDIIS  0.10E+01   12.7     1.3205E-10      -579.0509287673  1.14E-13
 GXTB-QUALIFICATION_ONLY KGROUP-PARTIAL-ROOT iter=13 dE=  1.110223E-16 dVsh=  1.734723E-18 dFfold=  8.326673E-17
 GXTB-QUALIFICATION_ONLY KGROUP-PARTIAL-ROOT iter=13 dE=  1.110223E-16 dVsh=  8.673617E-19 dFfold=  5.551115E-17
    13 GXTB-FDIIS  0.10E+01   12.7     2.0260E-12      -579.0509287673 -1.14E-13

  *** SCF run converged in    13 steps ***


  Core Hamiltonian energy:                                     -2.74939737717697
  Repulsive potential energy:                                   0.28052169269639
  Electrostatic energy:                                         0.02937811270198
  Self-consistent dispersion energy:                           -0.01740534592769
  Non-self consistent dispersion energy:                        0.00476636229403
  Correction for halogen bonding:                               0.00000000000000
  Electronic entropic energy:                                  -0.00000000000000
  Fermi energy:                                                -0.20804294486872

  Total energy:                                              -579.05092876734420
  Total energy (extrapolated to T->0):                       -579.05092876734420


 MULLIKEN POPULATION ANALYSIS

  # Atom   Element   Kind        Atomic population                    Net charge
       1     Si         1                 4.000000                     -0.000000
       2     Si         1                 4.000000                      0.000000
 # Total charge                           8.000000                     -0.000000

 GXTB-QUALIFICATION_ONLY ACP-PROJECTOR-CACHE repeatedHit=1 directBypass=1
 GXTB-QUALIFICATION_ONLY KGROUP-PARTIAL-ROOT iter=13 dE=  1.110223E-16 dVsh=  8.673617E-19 dFfold=  5.551115E-17
 GXTB-QUALIFICATION_ONLY KGROUP-PARTIAL-ROOT-REVERSE dOverlap=  5.55111512312578E-17 dForce=  1.66018457661843E-19 dStress=  8.32667268468867E-17
 GXTB KGROUP-PARTIAL-DISTRIBUTED-IMAGES-REVERSE nfull=8, importers=2, empty=0, batch=2, provider_peak_complex=7336; distributed nonlinear image kernel and all-k partial pulls
 GXTB-EXCHANGE-TRANSFORM stage=REVERSE backend=MIXED_RADIX_FFT fallback=0

 ENERGY| Total FORCE_EVAL ( QS ) energy [hartree]           -579.050928767344203

 FORCES| Atomic forces [hartree/bohr]
 FORCES|   Atom     x               y               z               |f|
 FORCES|      1 -1.27110219E-17  2.69145621E-16  4.18499340E-17   2.72676278E-16
 FORCES|      2  1.24767580E-17 -2.68620478E-16 -4.11768659E-17   2.72044417E-16
 FORCES| Sum    -2.34263993E-19  5.25143108E-19  6.73068087E-19
 FORCES| Total atomic force                                       8.85254513E-19

 STRESS| Stress tensor components (GPW/GAPW) [bar]
 STRESS|                                           1/3 Trace         Determinant
 STRESS| Overlap                           0.00000000000E+00   0.00000000000E+00
 STRESS| Kinetic energy                    0.00000000000E+00   0.00000000000E+00
 STRESS| Local pseudopotential/core        0.00000000000E+00   0.00000000000E+00
 STRESS| Nonlocal pseudopotential          0.00000000000E+00   0.00000000000E+00
 STRESS| Core charge overlap               0.00000000000E+00   0.00000000000E+00
 STRESS| Hartree                           0.00000000000E+00   0.00000000000E+00
 STRESS| Exchange-correlation              0.00000000000E+00   0.00000000000E+00
 STRESS| Exact exchange (EXX)              0.00000000000E+00   0.00000000000E+00
 STRESS| vdW correction                    0.00000000000E+00   0.00000000000E+00
 STRESS| Moller-Plesset (MP2)              0.00000000000E+00   0.00000000000E+00
 STRESS| Nonlinear core correction (NLCC)  0.00000000000E+00   0.00000000000E+00
 STRESS| Local atomic parts (GAPW)         0.00000000000E+00   0.00000000000E+00
 STRESS| Resolution-of-the-identity (LRI)  0.00000000000E+00   0.00000000000E+00
 STRESS| Sum of components                 0.00000000000E+00   0.00000000000E+00
 STRESS| Total                            -1.12905824541E+05  -1.43929242645E+15

 STRESS| Analytical stress tensor [bar]
 STRESS|                        x                   y                   z
 STRESS|      x       -1.12905824541E+05  -3.30216200050E-10   4.74526431211E-11
 STRESS|      y       -3.30216200050E-10  -1.12905824541E+05   2.79918586759E-11
 STRESS|      z        4.74526431211E-11   2.79918586759E-11  -1.12905824541E+05
 STRESS| 1/3 Trace                                            -1.12905824541E+05
 STRESS| Determinant                                          -1.43929242645E+15

 STRESS| Eigenvectors and eigenvalues of the analytical stress tensor [bar]
 STRESS|                        1                   2                   3
 STRESS| Eigenvalues  -1.12905824541E+05  -1.12905824541E+05  -1.12905824541E+05
 STRESS|      x           0.000000000000      1.000000000000      0.000000000000
 STRESS|      y           1.000000000000      0.000000000000      0.000000000000
 STRESS|      z           0.000000000000      0.000000000000      1.000000000000

 -------------------------------------------------------------------------------
 -                                                                             -
 -                                DBCSR STATISTICS                             -
 -                                                                             -
 -------------------------------------------------------------------------------
 COUNTER                                    TOTAL       BLAS       SMM       ACC
 flops inhomo. stacks                           0       0.0%      0.0%      0.0%
 flops total                         0.000000E+00       0.0%      0.0%      0.0%
 flops max/rank                      0.000000E+00       0.0%      0.0%      0.0%
 matmuls inhomo. stacks                         0       0.0%      0.0%      0.0%
 matmuls total                                  0       0.0%      0.0%      0.0%
 number of processed stacks                     0       0.0%      0.0%      0.0%
 average stack size                                     0.0       0.0       0.0
 marketing flops                     0.000000E+00
 -------------------------------------------------------------------------------
 -                                                                             -
 -                      DBCSR MESSAGE PASSING PERFORMANCE                      -
 -                                                                             -
 -------------------------------------------------------------------------------
 ROUTINE             CALLS      AVE VOLUME [Bytes]
 MP_Bcast                1                     12.
 MP_Allreduce           19                     21.
 MP_Alltoall          9024                    858.
 -------------------------------------------------------------------------------

 -------------------------------------------------------------------------------
 -                                                                             -
 -                          OFFLOAD MEMPOOL STATISTICS                         -
 -                                                                             -
 -------------------------------------------------------------------------------
 Memory consumption                Number of allocations  Used [MiB]  Size [MiB]
 Host                                                  1           0           0
 -------------------------------------------------------------------------------

 MEMORY| Estimated peak process memory [MiB]                                   0

 -------------------------------------------------------------------------------
 ----                             MULTIGRID INFO                            ----
 -------------------------------------------------------------------------------
 total grid count     :           264              cutoff [a.u.]            1.00

 -------------------------------------------------------------------------------
 -                                                                             -
 -                         MESSAGE PASSING PERFORMANCE                         -
 -                                                                             -
 -------------------------------------------------------------------------------

 ROUTINE             CALLS      AVE VOLUME [Bytes]
 MP_Group                2
 MP_Bcast            64485                      5.
 MP_Allreduce      1311161                    622.
 MP_Sync                 1
 MP_Wait              4968
 MP_comm_split           2
 MP_ISend             6072                    252.
 MP_IRecv             7728                    204.
 -------------------------------------------------------------------------------


 -------------------------------------------------------------------------------
 -                                                                             -
 -                           R E F E R E N C E S                               -
 -                                                                             -
 -------------------------------------------------------------------------------
 
 CP2K version 2026.2 (Development Version), the CP2K developers group (2026).
 CP2K is freely available from https://www.cp2k.org/ .
 
 M. Iannuzzi, J. Wilhelm, F. Stein, A. Bussy, H. Elgabarty, D. Golze, A. Hehn, 
 M. Graml, S. Marek, B. Sertcan Gökmen, C. Schran, H. Forbert, R. Z. 
 Khaliullin, A. Kozhevnikov, M. Taillefumier, R. Meli, V. V. Rybkin, M. Brehm, 
 R. Schade, O. Schütt, J. V. Pototschnig, H. Mirhosseini, A. Knüpfer, D. Marx, 
 M. Krack, J. Hutter, T. D. Kühne.
 J. Phys. Chem. B 130, 1237-1310 (2026).
 The CP2K Program Package Made Simple.
 https://doi.org/10.1021/acs.jpcb.5c05851

 A. Katbashev, M. Stahn, T. Rose, V. Alizadeh, M. Friede, C. Plett, P. 
 Steinbach, S. Ehlert.
 J. Phys. Chem. A 129, 2667-2682 (2025).
 Overview on Building Blocks and Applications of Efficient and Robust Extended 
 Tight Binding.
 https://doi.org/10.1021/acs.jpca.4c08263

 T. D. Kühne, M. Iannuzzi, M. Del Ben, V. V. Rybkin, P. Seewald, F. Stein, T. 
 Laino, R. Z. Khaliullin, O. Schütt, F. Schiffmann, D. Golze, J. Wilhelm, S. 
 Chulkov, M. H. Bani-Hashemian, V. Weber, U. Borstnik, M. Taillefumier, A. S. 
 Jakobovits, A. Lazzaro, H. Pabst, T. Müller, R. Schade, M. Guidon, S. 
 Andermatt, N. Holmberg, G. K. Schenter, A. Hehn, A. Bussy, F. Belleflamme, G. 
 Tabacchi, A. Glöß, M. Lass, I. Bethune, C. J. Mundy, C. Plessl, M. Watkins, 
 J. VandeVondele, M. Krack, J. Hutter.
 J. Chem. Phys. 152, 194103 (2020).
 CP2K: An electronic structure and molecular dynamics software package - 
 Quickstep: Efficient and accurate electronic structure calculations.
 https://doi.org/10.1063/5.0007045

 P. Pracht, E. Caldeweyher, S. Ehlert, S. Grimme.
 ChemRxiv, (2019).
 A Robust Non-Self-Consistent Tight-Binding Quantum Chemistry Method for large 
 Molecules.
 https://doi.org/10.26434/chemrxiv.8326202.v1

 S. Grimme, C. Bannwarth, P. Shushkov.
 J. Chem. Theory Comput. 13, 1989 (2017).
 A Robust and Accurate Tight-Binding Quantum Chemical Method for Structures, 
 Vibrational Frequencies, and Noncovalent Interactions of Large Molecular 
 Systems Parametrized for All spd-Block Elements (Z = 1-86).
 https://doi.org/10.1021/acs.jctc.7b00118

 O. Schuett, P. Messmer, J. Hutter, J. VandeVondele.
 Electronic Structure Calculations on Graphics Processing Units, 173-190 (2016).
 GPU-Accelerated Sparse Matrix-Matrix Multiplication for Linear Scaling Density 
 Functional Theory.
 https://doi.org/10.1002/9781118670712.ch8

 U. Borstnik, J. VandeVondele, V. Weber, J. Hutter.
 Parallel Comput. 40, 47-58 (2014).
 Sparse matrix multiplication: The distributed block-compressed sparse row 
 library.
 https://doi.org/10.1016/j.parco.2014.03.012

 M. Frigo, S. G. Johnson.
 Proc. IEEE 93, 216-231 (2005).
 The design and implementation of FFTW3.
 https://doi.org/10.1109/JPROC.2004.840301

 N. D. Mermin.
 Phys. Rev. 137, A1441-A1443 (1965).
 Thermal Properties of the Inhomogeneous Electron Gas.
 https://doi.org/10.1103/PhysRev.137.A1441


 -------------------------------------------------------------------------------
 -                                                                             -
 -                                T I M I N G                                  -
 -                                                                             -
 -------------------------------------------------------------------------------
 SUBROUTINE                       CALLS  ASD         SELF TIME        TOTAL TIME
                                MAXIMUM       AVERAGE  MAXIMUM  AVERAGE  MAXIMUM
 CP2K                                 1  1.0    0.026    0.027  184.352  184.352
 qs_forces                            1  2.0    0.002    0.003  184.270  184.270
 rskp_transform                  146592  7.4  128.496  171.066  128.496  171.066
 qs_energies                          1  3.0    0.004    0.004  167.244  167.244
 scf_env_do_scf                       1  4.0    0.000    0.000  163.693  163.693
 scf_env_do_scf_inner_loop           13  5.0    1.021    1.083  163.693  163.693
 rebuild_ks_matrix                   14  6.8    0.000    0.000   95.052   95.127
 build_tblite_ks_matrix              14  7.8    2.226    2.374   95.052   95.127
 mp_sum_dm                       373021  7.4   43.028   85.710   43.028   85.710
 qs_ks_update_qs_env                 13  6.0    0.000    0.000   81.523   81.599
 qs_ks_update_qs_env_forces           1  3.0    0.000    0.000   14.369   15.087
 build_tblite_matrices                2  4.0    0.410    0.424    5.097    6.534
 cp_dbcsr_alloc_block_from_nbl   125188  5.1    4.660    6.188    4.862    6.393
 -------------------------------------------------------------------------------

 The number of warnings for this run is : 1
 
 -------------------------------------------------------------------------------
  **** **** ******  **  PROGRAM ENDED AT                 2026-07-22 15:24:33.859
 ***** ** ***  *** **   PROGRAM RAN ON                fwu110.ad.fz-rossendorf.de
 **    ****   ******    PROGRAM RAN BY                                   tkuehne
 ***** **    ** ** **   PROGRAM PROCESS ID                                 25373
  **** **  *******  **  PROGRAM STOPPED IN /Users/tkuehne/work/Periodic-g-xTB-Be
                                           nchmarks-part-II-20260722/validation/
                                           accelerated_exchange/compact_partial_
                                           mixed_radix_20260722
