 DBCSR| CPU Multiplication driver                                           XSMM (U)
 DBCSR| Multrec recursion limit                                              512 (U)
 DBCSR| Multiplication stack size                                           1000 (D)
 DBCSR| Maximum elements for images                                    UNLIMITED (U)
 DBCSR| Multiplicative factor virtual images                                   1 (U)
 DBCSR| Use multiplication densification                                       T (D)
 DBCSR| Multiplication size stacks                                             3 (U)
 DBCSR| Use memory pool for CPU allocation                                     F (U)
 DBCSR| Number of 3D layers                                               SINGLE (U)
 DBCSR| Use MPI memory allocation                                              F (U)
 DBCSR| Use RMA algorithm                                                      F (U)
 DBCSR| Use Communication thread                                               T (U)
 DBCSR| Communication thread load                                             75 (D)
 DBCSR| MPI: My process id                                                     0
 DBCSR| MPI: Number of processes                                               1
 DBCSR| OMP: Current number of threads                                         4
 DBCSR| OMP: Max number of threads                                             4
 DBCSR| Split modifier for TAS multiplication algorithm                  1.0E+00 (U)


  **** **** ******  **  PROGRAM STARTED AT               2026-05-23 19:13:59.608
 ***** ** ***  *** **   PROGRAM STARTED ON                            spark-c86c
 **    ****   ******    PROGRAM STARTED BY                              kuehne88
 ***** **    ** ** **   PROGRAM PROCESS ID                               2107160
  **** **  *******  **  PROGRAM STARTED IN /home/kuehne88/dmc-ice13-cp2k-bench/r
                                           uns/GFN2/XVII

 CP2K| version string:                 CP2K version 2026.1 (Development Version)
 CP2K| source code revision number:                                   95e0cafc31
 CP2K| cp2kflags: omp libint fftw3 libxc parallel scalapack mpi_f08 xsmm spglib 
 CP2K|            libdftd4 dftd4_v3 mctc-lib tblite
 CP2K| is freely available from                            https://www.cp2k.org/
 CP2K| Program compiled at                                   2026-05-10 16:03:07
 CP2K| Program compiled on                                            spark-c86c
 CP2K| Program compiled for                                              aarch64
 CP2K| Data directory path                     /home/kuehne88/cp2k-xtb/cp2k/data
 CP2K| Input file name                                         ice_XVII_GFN2.inp

 GLOBAL| Force Environment number                                              1
 GLOBAL| Basis set file name                                           BASIS_SET
 GLOBAL| Potential file name                                           POTENTIAL
 GLOBAL| MM Potential file name                                     MM_POTENTIAL
 GLOBAL| Coordinate file name                                      __STD_INPUT__
 GLOBAL| Method name                                                        CP2K
 GLOBAL| Project name                                              ice_XVII_GFN2
 GLOBAL| Run type                                                         ENERGY
 GLOBAL| FFT library                                                       FFTW3
 GLOBAL| Diagonalization library                                       ScaLAPACK
 GLOBAL| Cholesky decomposition library                                ScaLAPACK
 GLOBAL| DGEMM library                                                      BLAS
 GLOBAL| Direct generalized diagonalization requested                          F
 GLOBAL| Orthonormality check for eigenvectors                          DISABLED
 GLOBAL| Matrix multiplication library                                 ScaLAPACK
 GLOBAL| All-to-all communication in single precision                          F
 GLOBAL| FFTs using library dependent lengths                                  F
 GLOBAL| Grid backend                                                       AUTO
 GLOBAL| Global print level                                                  LOW
 GLOBAL| MPI I/O enabled                                                       T
 GLOBAL| Total number of message passing processes                             1
 GLOBAL| Number of distributed systems (nodes)                                 1
 GLOBAL| Number of threads for this process                                    4
 GLOBAL| This output is from process                                           0
 GLOBAL| OpenMP stack size per thread (OMP_STACKSIZE)                    default
 GLOBAL| CPU model name                                                  UNKNOWN
 GLOBAL| CPUID                                                              2200
 GLOBAL| Compiled for CPUID                                                 2000

 *** HINT in environment.F:974 :: The compiler target flags (arm_arch64)   ***
 *** used to build this binary cannot exploit all extensions of this CPU   ***
 *** model (arm_sve256). Consider compiler target flags as part of FCFLAGS ***
 *** and CFLAGS (ARCH file).                                               ***


 MEMORY| system memory details [Kb]
 MEMORY|                        rank 0           min           max       average
 MEMORY| MemTotal            125508532     125508532     125508532     125508532
 MEMORY| MemFree             116401564     116401564     116401564     116401564
 MEMORY| Buffers                361324        361324        361324        361324
 MEMORY| Cached                5064052       5064052       5064052       5064052
 MEMORY| Slab                  1133364       1133364       1133364       1133364
 MEMORY| SReclaimable           475552        475552        475552        475552
 MEMORY| MemLikelyFree       122302492     122302492     122302492     122302492


 *** WARNING in cell_methods.F:457 :: Cell vectors are read but cell   ***
 *** matrix is not a lower triangle, not conforming to the program     ***
 *** convention that A lies along the X-axis and B is in the XY plane. ***


 GENERATE|  Preliminary Number of Bonds generated:                             0
 GENERATE|  Achieved consistency in connectivity generation.


                  #####   #####        #     #   #     #       #          
                 #     # #     #      #    ##### #     #   # #####  ####  
                 #     # #           #       #   ###   #       #   #    # 
                 #     #  #####     #        #   #  #  #   #   #   ###### 
                 #   # #       #   #         #   #   # #   #   #   #      
                 #    #  #     #  #          #   #  #  # # #   #    #   # 
                  #### #  #####  #           #   ###   ##  #   #     ###  

                                   GFN2-xTB  
                                 Version 0.0                       
                            Johann V. Pototschnig                  



 TOTAL NUMBERS AND MAXIMUM NUMBERS

  Total number of            - Atomic kinds:                                   2
                             - Atoms:                                         18
                             - Shell sets:                                    24
                             - Shells:                                        24
                             - Primitive Cartesian functions:                 84
                             - Cartesian basis functions:                     36
                             - Spherical basis functions:                     36

  Maximum angular momentum of the orbital basis functions:                     1


 SCF PARAMETERS         Density guess:                                     MOPAC
                        --------------------------------------------------------
                        max_scf:                                             300
                        max_scf_history:                                       0
                        max_diis:                                              4
                        --------------------------------------------------------
                        eps_scf:                                        1.00E-09
                        eps_scf_history:                                0.00E+00
                        eps_diis:                                       1.00E-01
                        eps_eigval:                                     1.00E-05
                        --------------------------------------------------------
                        level_shift [a.u.]:                             0.000000
                        added MOs                                        12    0
                        --------------------------------------------------------
                        Mixing method:                           DIRECT_P_MIXING
                        --------------------------------------------------------
                        Smear method:                                FERMI_DIRAC
                        Electronic temperature [K]:                        300.0
                        Electronic temperature [a.u.]:                  9.50E-04
                        Accuracy threshold:                             1.00E-06
                        --------------------------------------------------------
                        No outer SCF

 Extrapolation method: initial_guess

 Number of electrons:                                                         48
 Number of occupied orbitals:                                                 24
 Number of molecular orbitals:                                                36

 Number of orbital functions:                                                 36
 Number of independent orbital functions:                                     36


 SCF WAVEFUNCTION OPTIMIZATION

  Step     Update method      Time    Convergence         Total energy    Change
  ------------------------------------------------------------------------------
     1 TBLite/Diag 0.40E+00    0.0     0.73490403       -30.4390443823 -3.04E+01
     2 TBLite/Diag 0.40E+00    0.0     0.06599083       -30.5179411460 -7.89E-02
     3 TBLite/Diag 0.40E+00    0.0     0.09090389       -30.5501972506 -3.23E-02
     4 TBLite/Diag 0.40E+00    0.0     0.06036139       -30.5428033980  7.39E-03
     5 TBLite/Diag 0.40E+00    0.0     0.04085310       -30.5514564412 -8.65E-03
     6 TBLite/Diag 0.40E+00    0.0     0.00065991       -30.5514610860 -4.64E-06
     7 TBLite/Diag 0.40E+00    0.0     0.00126027       -30.5514675274 -6.44E-06
     8 TBLite/Diag 0.40E+00    0.0     0.00013022       -30.5514676517 -1.24E-07
     9 TBLite/Diag 0.40E+00    0.0     0.00004709       -30.5514676692 -1.75E-08
    10 TBLite/Diag 0.40E+00    0.0     0.00002622       -30.5514676707 -1.54E-09
    11 TBLite/Diag 0.40E+00    0.0     0.00000659       -30.5514676709 -1.91E-10
    12 TBLite/Diag 0.40E+00    0.0     0.00000041       -30.5514676709 -1.05E-12
    13 TBLite/Diag 0.40E+00    0.0     0.00000004       -30.5514676709 -3.55E-15
    14 TBLite/Diag 0.40E+00    0.0     0.00000003       -30.5514676709 -2.84E-14
    15 TBLite/Diag 0.40E+00    0.0     6.3100E-10       -30.5514676709  1.78E-14

  *** SCF run converged in    15 steps ***


  Core Hamiltonian energy:                                    -30.81825475333713
  Repulsive potential energy:                                   0.14000979605841
  Electrostatic energy:                                         0.14130485712008
  Self-consistent dispersion energy:                           -0.01719289619883
  Non-self consistent dispersion energy:                        0.00266532547164
  Correction for halogen bonding:                               0.00000000000000
  Electronic entropic energy:                                  -0.00000000000000
  Fermi energy:                                                -0.11090678420278

  Total energy:                                               -30.55146767088582
  Total energy (extrapolated to T->0):                        -30.55146767088582

 ENERGY| Total FORCE_EVAL ( QS ) energy [hartree]            -30.551467670885820

 -------------------------------------------------------------------------------
 -                                                                             -
 -                                DBCSR STATISTICS                             -
 -                                                                             -
 -------------------------------------------------------------------------------
 COUNTER                                    TOTAL       BLAS       SMM       ACC
 flops     1 x     1 x    36                84240       0.0%    100.0%      0.0%     
 flops     4 x     1 x    36               155520       0.0%    100.0%      0.0%     
 flops     1 x     4 x    36               155520       0.0%    100.0%      0.0%     
 flops     4 x     4 x    36               362880       0.0%    100.0%      0.0%     
 flops inhomo. stacks                           0       0.0%      0.0%      0.0%
 flops total                       758.160000E+03       0.0%    100.0%      0.0%
 flops max/rank                    758.160000E+03       0.0%    100.0%      0.0%
 matmuls inhomo. stacks                         0       0.0%      0.0%      0.0%
 matmuls total                               2565       0.0%    100.0%      0.0%
 number of processed stacks                   240       0.0%    100.0%      0.0%
 average stack size                                     0.0      10.7       0.0
 marketing flops                   933.120000E+03
 -------------------------------------------------------------------------------
 # multiplications                             15
 max memory usage/rank              14.034383E+09
 # max total images/rank                        1
 # max 3D layers                                1
 # MPI messages exchanged                       0
 -------------------------------------------------------------------------------
 -                                                                             -
 -                      DBCSR MESSAGE PASSING PERFORMANCE                      -
 -                                                                             -
 -------------------------------------------------------------------------------
 ROUTINE             CALLS      AVE VOLUME [Bytes]
 MP_Bcast                5                     12.
 MP_Allreduce          102                     12.
 MP_Alltoall           600                   8629.
 MP_ISend               60                    720.
 MP_IRecv               60                    720.
 -------------------------------------------------------------------------------

 -------------------------------------------------------------------------------
 -                                                                             -
 -                          OFFLOAD MEMPOOL STATISTICS                         -
 -                                                                             -
 -------------------------------------------------------------------------------
 Memory consumption                Number of allocations  Used [MiB]  Size [MiB]
 Device                                                1           0           0
 Host                                                  1           0           0
 -------------------------------------------------------------------------------

 MEMORY| Estimated peak process memory [MiB]                                 161

 -------------------------------------------------------------------------------
 -                                                                             -
 -                         MESSAGE PASSING PERFORMANCE                         -
 -                                                                             -
 -------------------------------------------------------------------------------

 ROUTINE             CALLS      AVE VOLUME [Bytes]
 MP_Group                1
 MP_Bcast               30                    146.
 MP_Allreduce          442                    130.
 MP_Sync                16
 MP_comm_split          15
 -------------------------------------------------------------------------------


 -------------------------------------------------------------------------------
 -                                                                             -
 -                           R E F E R E N C E S                               -
 -                                                                             -
 -------------------------------------------------------------------------------
 
 CP2K version 2026.1 (Development Version), the CP2K developers group (2026).
 CP2K is freely available from https://www.cp2k.org/ .
 
 M. Iannuzzi, J. Wilhelm, F. Stein, A. Bussy, H. Elgabarty, D. Golze, A. Hehn, 
 M. Graml, S. Marek, B. Sertcan Gökmen, C. Schran, H. Forbert, R. Z. 
 Khaliullin, A. Kozhevnikov, M. Taillefumier, R. Meli, V. V. Rybkin, M. Brehm, 
 R. Schade, O. Schütt, J. V. Pototschnig, H. Mirhosseini, A. Knüpfer, D. Marx, 
 M. Krack, J. Hutter, T. D. Kühne.
 J. Phys. Chem. B 130, 1237-1310 (2026).
 The CP2K Program Package Made Simple.
 https://doi.org/10.1021/acs.jpcb.5c05851

 A. Katbashev, M. Stahn, T. Rose, V. Alizadeh, M. Friede, C. Plett, P. 
 Steinbach, S. Ehlert.
 J. Phys. Chem. A 129, 2667-2682 (2025).
 Overview on Building Blocks and Applications of Efficient and Robust Extended 
 Tight Binding.
 https://doi.org/10.1021/acs.jpca.4c08263

 T. D. Kühne, M. Iannuzzi, M. Del Ben, V. V. Rybkin, P. Seewald, F. Stein, T. 
 Laino, R. Z. Khaliullin, O. Schütt, F. Schiffmann, D. Golze, J. Wilhelm, S. 
 Chulkov, M. H. Bani-Hashemian, V. Weber, U. Borstnik, M. Taillefumier, A. S. 
 Jakobovits, A. Lazzaro, H. Pabst, T. Müller, R. Schade, M. Guidon, S. 
 Andermatt, N. Holmberg, G. K. Schenter, A. Hehn, A. Bussy, F. Belleflamme, G. 
 Tabacchi, A. Glöß, M. Lass, I. Bethune, C. J. Mundy, C. Plessl, M. Watkins, 
 J. VandeVondele, M. Krack, J. Hutter.
 J. Chem. Phys. 152, 194103 (2020).
 CP2K: An electronic structure and molecular dynamics software package - 
 Quickstep: Efficient and accurate electronic structure calculations.
 https://doi.org/10.1063/5.0007045

 P. Pracht, E. Caldeweyher, S. Ehlert, S. Grimme.
 ChemRxiv, (2019).
 A Robust Non-Self-Consistent Tight-Binding Quantum Chemistry Method for large 
 Molecules.
 https://doi.org/10.26434/chemrxiv.8326202.v1

 S. Grimme, C. Bannwarth, P. Shushkov.
 J. Chem. Theory Comput. 13, 1989 (2017).
 A Robust and Accurate Tight-Binding Quantum Chemical Method for Structures, 
 Vibrational Frequencies, and Noncovalent Interactions of Large Molecular 
 Systems Parametrized for All spd-Block Elements (Z = 1-86).
 https://doi.org/10.1021/acs.jctc.7b00118

 O. Schuett, P. Messmer, J. Hutter, J. VandeVondele.
 Electronic Structure Calculations on Graphics Processing Units, 173-190 (2016).
 GPU-Accelerated Sparse Matrix-Matrix Multiplication for Linear Scaling Density 
 Functional Theory.
 https://doi.org/10.1002/9781118670712.ch8

 A. Heinecke, G. Henry, M. Hutchinson, H. Pabst.
 Proceedings of Intl. Supercomputing Conference, 981-991 (2016).
 LIBXSMM: Accelerating Small Matrix Multiplications by Runtime Code Generation.
 https://doi.org/10.1109/SC.2016.83

 U. Borstnik, J. VandeVondele, V. Weber, J. Hutter.
 Parallel Comput. 40, 47-58 (2014).
 Sparse matrix multiplication: The distributed block-compressed sparse row 
 library.
 https://doi.org/10.1016/j.parco.2014.03.012

 M. Frigo, S. G. Johnson.
 Proc. IEEE 93, 216-231 (2005).
 The design and implementation of FFTW3.
 https://doi.org/10.1109/JPROC.2004.840301

 N. D. Mermin.
 Phys. Rev. 137, A1441-A1443 (1965).
 Thermal Properties of the Inhomogeneous Electron Gas.
 https://doi.org/10.1103/PhysRev.137.A1441


 -------------------------------------------------------------------------------
 -                                                                             -
 -                                T I M I N G                                  -
 -                                                                             -
 -------------------------------------------------------------------------------
 SUBROUTINE                       CALLS  ASD         SELF TIME        TOTAL TIME
                                MAXIMUM       AVERAGE  MAXIMUM  AVERAGE  MAXIMUM
 CP2K                                 1  1.0    0.002    0.002    0.071    0.071
 qs_energies                          1  2.0    0.000    0.000    0.067    0.067
 qs_energies_init_hamiltonians        1  3.0    0.000    0.000    0.036    0.036
 build_tblite_matrices                1  4.0    0.032    0.032    0.035    0.035
 scf_env_do_scf                       1  3.0    0.000    0.000    0.030    0.030
 scf_env_do_scf_inner_loop           15  4.0    0.002    0.002    0.030    0.030
 qs_scf_new_mos                      15  5.0    0.000    0.000    0.021    0.021
 copy_dbcsr_to_fm                    30  6.4    0.000    0.000    0.010    0.010
 calculate_dm_sparse                 15  6.0    0.000    0.000    0.009    0.009
 cp_dbcsr_plus_fm_fm_t               15  7.0    0.000    0.000    0.009    0.009
 dbcsr_complete_redistribute         60  8.2    0.002    0.002    0.008    0.008
 dbcsr_finalize                     261  9.3    0.001    0.001    0.006    0.006
 dbcsr_multiply_generic              15  8.0    0.000    0.000    0.006    0.006
 qs_ks_update_qs_env                 15  5.0    0.000    0.000    0.006    0.006
 dbcsr_merge_all                    105 11.0    0.005    0.005    0.005    0.005
 rebuild_ks_matrix                   15  6.0    0.000    0.000    0.005    0.005
 build_tblite_ks_matrix              15  7.0    0.005    0.005    0.005    0.005
 make_m2s                            30  9.0    0.000    0.000    0.004    0.004
 tb_get_multipole                     1  5.0    0.002    0.002    0.003    0.003
 eigensolver                         15  6.0    0.000    0.000    0.003    0.003
 dbcsr_create_new                   430  9.4    0.002    0.002    0.003    0.003
 qs_diis_b_step                      14  6.0    0.000    0.000    0.002    0.002
 dbcsr_crop_matrix                   30 10.0    0.000    0.000    0.002    0.002
 copy_fm_to_dbcsr                    30  8.0    0.000    0.000    0.002    0.002
 cp_fm_syevd                         15  7.0    0.000    0.000    0.002    0.002
 dbcsr_copy_submatrix                30 11.0    0.000    0.000    0.002    0.002
 init_scf_run                         1  3.0    0.000    0.000    0.002    0.002
 qs_init_subsys                       1  2.0    0.000    0.000    0.001    0.001
 -------------------------------------------------------------------------------

 The number of warnings for this run is : 1
 
 -------------------------------------------------------------------------------
  **** **** ******  **  PROGRAM ENDED AT                 2026-05-23 19:14:00.058
 ***** ** ***  *** **   PROGRAM RAN ON                                spark-c86c
 **    ****   ******    PROGRAM RAN BY                                  kuehne88
 ***** **    ** ** **   PROGRAM PROCESS ID                               2107160
  **** **  *******  **  PROGRAM STOPPED IN /home/kuehne88/dmc-ice13-cp2k-bench/r
                                           uns/GFN2/XVII
