 DBCSR| CPU Multiplication driver                                           XSMM (U)
 DBCSR| Multrec recursion limit                                              512 (U)
 DBCSR| Multiplication stack size                                           1000 (D)
 DBCSR| Maximum elements for images                                    UNLIMITED (U)
 DBCSR| Multiplicative factor virtual images                                   1 (U)
 DBCSR| Use multiplication densification                                       T (D)
 DBCSR| Multiplication size stacks                                             3 (U)
 DBCSR| Use memory pool for CPU allocation                                     F (U)
 DBCSR| Number of 3D layers                                               SINGLE (U)
 DBCSR| Use MPI memory allocation                                              F (U)
 DBCSR| Use RMA algorithm                                                      F (U)
 DBCSR| Use Communication thread                                               T (U)
 DBCSR| Communication thread load                                             75 (D)
 DBCSR| MPI: My process id                                                     0
 DBCSR| MPI: Number of processes                                               1
 DBCSR| OMP: Current number of threads                                         4
 DBCSR| OMP: Max number of threads                                             4
 DBCSR| Split modifier for TAS multiplication algorithm                  1.0E+00 (U)


  **** **** ******  **  PROGRAM STARTED AT               2026-05-23 20:16:41.521
 ***** ** ***  *** **   PROGRAM STARTED ON                            spark-c86c
 **    ****   ******    PROGRAM STARTED BY                              kuehne88
 ***** **    ** ** **   PROGRAM PROCESS ID                               2115393
  **** **  *******  **  PROGRAM STARTED IN /home/kuehne88/periodic-gfn2-benchmar
                                           ks/DMC-ICE13/runs_kpoints/k555/GFN2/I
                                           V

 CP2K| version string:                 CP2K version 2026.1 (Development Version)
 CP2K| source code revision number:                                   95e0cafc31
 CP2K| cp2kflags: omp libint fftw3 libxc parallel scalapack mpi_f08 xsmm spglib 
 CP2K|            libdftd4 dftd4_v3 mctc-lib tblite
 CP2K| is freely available from                            https://www.cp2k.org/
 CP2K| Program compiled at                                   2026-05-10 16:03:07
 CP2K| Program compiled on                                            spark-c86c
 CP2K| Program compiled for                                              aarch64
 CP2K| Data directory path                     /home/kuehne88/cp2k-xtb/cp2k/data
 CP2K| Input file name                                      ice_IV_GFN2_k555.inp

 GLOBAL| Force Environment number                                              1
 GLOBAL| Basis set file name                                           BASIS_SET
 GLOBAL| Potential file name                                           POTENTIAL
 GLOBAL| MM Potential file name                                     MM_POTENTIAL
 GLOBAL| Coordinate file name                                      __STD_INPUT__
 GLOBAL| Method name                                                        CP2K
 GLOBAL| Project name                                           ice_IV_GFN2_k555
 GLOBAL| Run type                                                         ENERGY
 GLOBAL| FFT library                                                       FFTW3
 GLOBAL| Diagonalization library                                       ScaLAPACK
 GLOBAL| Cholesky decomposition library                                ScaLAPACK
 GLOBAL| DGEMM library                                                      BLAS
 GLOBAL| Direct generalized diagonalization requested                          F
 GLOBAL| Orthonormality check for eigenvectors                          DISABLED
 GLOBAL| Matrix multiplication library                                 ScaLAPACK
 GLOBAL| All-to-all communication in single precision                          F
 GLOBAL| FFTs using library dependent lengths                                  F
 GLOBAL| Grid backend                                                       AUTO
 GLOBAL| Global print level                                                  LOW
 GLOBAL| MPI I/O enabled                                                       T
 GLOBAL| Total number of message passing processes                             1
 GLOBAL| Number of distributed systems (nodes)                                 1
 GLOBAL| Number of threads for this process                                    4
 GLOBAL| This output is from process                                           0
 GLOBAL| OpenMP stack size per thread (OMP_STACKSIZE)                    default
 GLOBAL| CPU model name                                                  UNKNOWN
 GLOBAL| CPUID                                                              2200
 GLOBAL| Compiled for CPUID                                                 2000

 *** HINT in environment.F:974 :: The compiler target flags (arm_arch64)   ***
 *** used to build this binary cannot exploit all extensions of this CPU   ***
 *** model (arm_sve256). Consider compiler target flags as part of FCFLAGS ***
 *** and CFLAGS (ARCH file).                                               ***


 MEMORY| system memory details [Kb]
 MEMORY|                        rank 0           min           max       average
 MEMORY| MemTotal            125508532     125508532     125508532     125508532
 MEMORY| MemFree             114404416     114404416     114404416     114404416
 MEMORY| Buffers                363420        363420        363420        363420
 MEMORY| Cached                5074824       5074824       5074824       5074824
 MEMORY| Slab                  1134968       1134968       1134968       1134968
 MEMORY| SReclaimable           476828        476828        476828        476828
 MEMORY| MemLikelyFree       120319488     120319488     120319488     120319488


 *** WARNING in cell_methods.F:457 :: Cell vectors are read but cell   ***
 *** matrix is not a lower triangle, not conforming to the program     ***
 *** convention that A lies along the X-axis and B is in the XY plane. ***


 GENERATE|  Preliminary Number of Bonds generated:                             0
 GENERATE|  Achieved consistency in connectivity generation.


                  #####   #####        #     #   #     #       #          
                 #     # #     #      #    ##### #     #   # #####  ####  
                 #     # #           #       #   ###   #       #   #    # 
                 #     #  #####     #        #   #  #  #   #   #   ###### 
                 #   # #       #   #         #   #   # #   #   #   #      
                 #    #  #     #  #          #   #  #  # # #   #    #   # 
                  #### #  #####  #           #   ###   ##  #   #     ###  

                                   GFN2-xTB  
                                 Version 0.0                       
                            Johann V. Pototschnig                  



 TOTAL NUMBERS AND MAXIMUM NUMBERS

  Total number of            - Atomic kinds:                                   2
                             - Atoms:                                         48
                             - Shell sets:                                    64
                             - Shells:                                        64
                             - Primitive Cartesian functions:                224
                             - Cartesian basis functions:                     96
                             - Spherical basis functions:                     96

  Maximum angular momentum of the orbital basis functions:                     1


 SCF PARAMETERS         Density guess:                                     MOPAC
                        --------------------------------------------------------
                        max_scf:                                             300
                        max_scf_history:                                       0
                        max_diis:                                              4
                        --------------------------------------------------------
                        eps_scf:                                        1.00E-09
                        eps_scf_history:                                0.00E+00
                        eps_diis:                                       1.00E-01
                        eps_eigval:                                     1.00E-05
                        --------------------------------------------------------
                        level_shift [a.u.]:                             0.000000
                        added MOs                                        32    0
                        --------------------------------------------------------
                        Mixing method:                           DIRECT_P_MIXING
                        --------------------------------------------------------
                        Smear method:                                FERMI_DIRAC
                        Electronic temperature [K]:                        300.0
                        Electronic temperature [a.u.]:                  9.50E-04
                        Accuracy threshold:                             1.00E-06
                        --------------------------------------------------------
                        No outer SCF

 Extrapolation method: initial_guess

 Number of electrons:                                                        128
 Number of occupied orbitals:                                                 64
 Number of molecular orbitals:                                                96

 Number of orbital functions:                                                 96
 Number of independent orbital functions:                                     96


 SCF WAVEFUNCTION OPTIMIZATION

  Step     Update method      Time    Convergence         Total energy    Change
  ------------------------------------------------------------------------------
     1 TBLite/Diag 0.40E+00    1.8     0.73355911       -81.1293588149 -8.11E+01
     2 TBLite/Diag 0.40E+00    1.7     0.08202070       -81.3661730749 -2.37E-01
     3 TBLite/Diag 0.40E+00    1.8     0.10329442       -81.4540681798 -8.79E-02
     4 TBLite/Diag 0.40E+00    1.9     0.06132180       -81.4374960210  1.66E-02
     5 TBLite/Diag 0.40E+00    1.8     0.04281023       -81.4578520359 -2.04E-02
     6 TBLite/Diag 0.40E+00    1.9     0.00153035       -81.4578429166  9.12E-06
     7 TBLite/Diag 0.40E+00    1.7     0.00073236       -81.4578556330 -1.27E-05
     8 TBLite/Diag 0.40E+00    1.8     0.00038888       -81.4578565424 -9.09E-07
     9 TBLite/Diag 0.40E+00    1.9     0.00009215       -81.4578566388 -9.64E-08
    10 TBLite/Diag 0.40E+00    1.8     0.00000899       -81.4578566386  2.35E-10
    11 TBLite/Diag 0.40E+00    1.8     0.00000538       -81.4578566391 -5.01E-10
    12 TBLite/Diag 0.40E+00    1.8     0.00000202       -81.4578566392 -4.77E-11
    13 TBLite/Diag 0.40E+00    1.8     0.00000049       -81.4578566392 -1.45E-12
    14 TBLite/Diag 0.40E+00    1.7     0.00000005       -81.4578566392 -5.68E-14
    15 TBLite/Diag 0.40E+00    1.8     0.00000002       -81.4578566392  0.00E+00
    16 TBLite/Diag 0.40E+00    1.8     3.0031E-09       -81.4578566392  4.26E-14
    17 TBLite/Diag 0.40E+00    1.6     1.5325E-09       -81.4578566392 -1.42E-13
    18 TBLite/Diag 0.40E+00    1.8     2.3548E-10       -81.4578566392  7.11E-14

  *** SCF run converged in    18 steps ***


  Core Hamiltonian energy:                                    -82.18762832419418
  Repulsive potential energy:                                   0.40161446586354
  Electrostatic energy:                                         0.38121057037015
  Self-consistent dispersion energy:                           -0.06605913107842
  Non-self consistent dispersion energy:                        0.01300577987521
  Correction for halogen bonding:                               0.00000000000000
  Electronic entropic energy:                                  -0.00000000000000
  Fermi energy:                                                -0.17569646359351

  Total energy:                                               -81.45785663916368
  Total energy (extrapolated to T->0):                        -81.45785663916368

 ENERGY| Total FORCE_EVAL ( QS ) energy [hartree]            -81.457856639163680

 -------------------------------------------------------------------------------
 -                                                                             -
 -                                DBCSR STATISTICS                             -
 -                                                                             -
 -------------------------------------------------------------------------------
 COUNTER                                    TOTAL       BLAS       SMM       ACC
 flops inhomo. stacks                           0       0.0%      0.0%      0.0%
 flops total                         0.000000E+00       0.0%      0.0%      0.0%
 flops max/rank                      0.000000E+00       0.0%      0.0%      0.0%
 matmuls inhomo. stacks                         0       0.0%      0.0%      0.0%
 matmuls total                                  0       0.0%      0.0%      0.0%
 number of processed stacks                     0       0.0%      0.0%      0.0%
 average stack size                                     0.0       0.0       0.0
 marketing flops                     0.000000E+00
 -------------------------------------------------------------------------------
 -                                                                             -
 -                      DBCSR MESSAGE PASSING PERFORMANCE                      -
 -                                                                             -
 -------------------------------------------------------------------------------
 ROUTINE             CALLS      AVE VOLUME [Bytes]
 MP_Bcast                1                     12.
 MP_Allreduce           19                     21.
 MP_Alltoall        188750                  68192.
 -------------------------------------------------------------------------------

 -------------------------------------------------------------------------------
 -                                                                             -
 -                          OFFLOAD MEMPOOL STATISTICS                         -
 -                                                                             -
 -------------------------------------------------------------------------------
 Memory consumption                Number of allocations  Used [MiB]  Size [MiB]
 Device                                                1           0           0
 Host                                                  1           0           0
 -------------------------------------------------------------------------------

 MEMORY| Estimated peak process memory [MiB]                                 485

 -------------------------------------------------------------------------------
 -                                                                             -
 -                         MESSAGE PASSING PERFORMANCE                         -
 -                                                                             -
 -------------------------------------------------------------------------------

 ROUTINE             CALLS      AVE VOLUME [Bytes]
 MP_Group                1
 MP_Bcast            82518                      7.
 MP_Allreduce        26091                    376.
 MP_Sync                 1
 MP_Wait             68750
 MP_ISend            96250                  10538.
 MP_IRecv            96250                  10538.
 -------------------------------------------------------------------------------


 -------------------------------------------------------------------------------
 -                                                                             -
 -                           R E F E R E N C E S                               -
 -                                                                             -
 -------------------------------------------------------------------------------
 
 CP2K version 2026.1 (Development Version), the CP2K developers group (2026).
 CP2K is freely available from https://www.cp2k.org/ .
 
 M. Iannuzzi, J. Wilhelm, F. Stein, A. Bussy, H. Elgabarty, D. Golze, A. Hehn, 
 M. Graml, S. Marek, B. Sertcan Gökmen, C. Schran, H. Forbert, R. Z. 
 Khaliullin, A. Kozhevnikov, M. Taillefumier, R. Meli, V. V. Rybkin, M. Brehm, 
 R. Schade, O. Schütt, J. V. Pototschnig, H. Mirhosseini, A. Knüpfer, D. Marx, 
 M. Krack, J. Hutter, T. D. Kühne.
 J. Phys. Chem. B 130, 1237-1310 (2026).
 The CP2K Program Package Made Simple.
 https://doi.org/10.1021/acs.jpcb.5c05851

 A. Katbashev, M. Stahn, T. Rose, V. Alizadeh, M. Friede, C. Plett, P. 
 Steinbach, S. Ehlert.
 J. Phys. Chem. A 129, 2667-2682 (2025).
 Overview on Building Blocks and Applications of Efficient and Robust Extended 
 Tight Binding.
 https://doi.org/10.1021/acs.jpca.4c08263

 T. D. Kühne, M. Iannuzzi, M. Del Ben, V. V. Rybkin, P. Seewald, F. Stein, T. 
 Laino, R. Z. Khaliullin, O. Schütt, F. Schiffmann, D. Golze, J. Wilhelm, S. 
 Chulkov, M. H. Bani-Hashemian, V. Weber, U. Borstnik, M. Taillefumier, A. S. 
 Jakobovits, A. Lazzaro, H. Pabst, T. Müller, R. Schade, M. Guidon, S. 
 Andermatt, N. Holmberg, G. K. Schenter, A. Hehn, A. Bussy, F. Belleflamme, G. 
 Tabacchi, A. Glöß, M. Lass, I. Bethune, C. J. Mundy, C. Plessl, M. Watkins, 
 J. VandeVondele, M. Krack, J. Hutter.
 J. Chem. Phys. 152, 194103 (2020).
 CP2K: An electronic structure and molecular dynamics software package - 
 Quickstep: Efficient and accurate electronic structure calculations.
 https://doi.org/10.1063/5.0007045

 P. Pracht, E. Caldeweyher, S. Ehlert, S. Grimme.
 ChemRxiv, (2019).
 A Robust Non-Self-Consistent Tight-Binding Quantum Chemistry Method for large 
 Molecules.
 https://doi.org/10.26434/chemrxiv.8326202.v1

 A. Togo, I. Tanaka.
 arXiv, 1808.01590 (2018).
 Spglib : a software library for crystal symmetry search.

 S. Grimme, C. Bannwarth, P. Shushkov.
 J. Chem. Theory Comput. 13, 1989 (2017).
 A Robust and Accurate Tight-Binding Quantum Chemical Method for Structures, 
 Vibrational Frequencies, and Noncovalent Interactions of Large Molecular 
 Systems Parametrized for All spd-Block Elements (Z = 1-86).
 https://doi.org/10.1021/acs.jctc.7b00118

 O. Schuett, P. Messmer, J. Hutter, J. VandeVondele.
 Electronic Structure Calculations on Graphics Processing Units, 173-190 (2016).
 GPU-Accelerated Sparse Matrix-Matrix Multiplication for Linear Scaling Density 
 Functional Theory.
 https://doi.org/10.1002/9781118670712.ch8

 A. Heinecke, G. Henry, M. Hutchinson, H. Pabst.
 Proceedings of Intl. Supercomputing Conference, 981-991 (2016).
 LIBXSMM: Accelerating Small Matrix Multiplications by Runtime Code Generation.
 https://doi.org/10.1109/SC.2016.83

 U. Borstnik, J. VandeVondele, V. Weber, J. Hutter.
 Parallel Comput. 40, 47-58 (2014).
 Sparse matrix multiplication: The distributed block-compressed sparse row 
 library.
 https://doi.org/10.1016/j.parco.2014.03.012

 M. Frigo, S. G. Johnson.
 Proc. IEEE 93, 216-231 (2005).
 The design and implementation of FFTW3.
 https://doi.org/10.1109/JPROC.2004.840301

 N. D. Mermin.
 Phys. Rev. 137, A1441-A1443 (1965).
 Thermal Properties of the Inhomogeneous Electron Gas.
 https://doi.org/10.1103/PhysRev.137.A1441


 -------------------------------------------------------------------------------
 -                                                                             -
 -                                T I M I N G                                  -
 -                                                                             -
 -------------------------------------------------------------------------------
 SUBROUTINE                       CALLS  ASD         SELF TIME        TOTAL TIME
                                MAXIMUM       AVERAGE  MAXIMUM  AVERAGE  MAXIMUM
 CP2K                                 1  1.0    0.013    0.013   32.708   32.708
 qs_energies                          1  2.0    0.000    0.000   32.691   32.691
 scf_env_do_scf                       1  3.0    0.000    0.000   31.992   31.992
 scf_env_do_scf_inner_loop           18  4.0    0.659    0.659   31.992   31.992
 qs_scf_new_mos_kp                   18  5.0    0.000    0.000   30.299   30.299
 do_general_diag_kp                  18  6.0    0.045    0.045   30.299   30.299
 kpoint_density_transform            18  7.0    0.008    0.008   11.944   11.944
 copy_fm_to_dbcsr                  4500  8.0    0.014    0.014    9.173    9.173
 dbcsr_complete_redistribute      13750  8.3    3.715    3.715    7.573    7.573
 copy_dbcsr_to_fm                  9250  6.9    0.046    0.046    7.437    7.437
 dbcsr_copy                        6084  8.3    0.021    0.021    5.511    5.511
 dbcsr_copy_into_existing          4500 10.0    5.477    5.477    5.488    5.488
 rskp_transform                    4625  6.9    5.010    5.010    5.010    5.010
 dbcsr_finalize                   35302  8.6    0.080    0.080    3.934    3.934
 dbcsr_merge_all                  13750 10.3    2.971    2.971    3.434    3.434
 cp_cfm_geeig                      2250  7.0    0.005    0.005    3.156    3.156
 dbcsr_desymmetrize_deep          18500  7.4    1.838    1.838    2.461    2.461
 transform_dmat                    2250  8.0    2.453    2.453    2.453    2.453
 cp_cfm_heevd                      2250  8.0    0.001    0.001    2.407    2.407
 cp_cfm_heevd_base                 2250  9.0    2.406    2.406    2.406    2.406
 dbcsr_create_new                 48690  8.3    1.861    1.861    1.892    1.892
 qs_ks_update_qs_env                 18  5.0    0.000    0.000    0.923    0.923
 rebuild_ks_matrix                   18  6.0    0.000    0.000    0.877    0.877
 build_tblite_ks_matrix              18  7.0    0.858    0.858    0.877    0.877
 -------------------------------------------------------------------------------

 The number of warnings for this run is : 1
 
 -------------------------------------------------------------------------------
  **** **** ******  **  PROGRAM ENDED AT                 2026-05-23 20:17:14.463
 ***** ** ***  *** **   PROGRAM RAN ON                                spark-c86c
 **    ****   ******    PROGRAM RAN BY                                  kuehne88
 ***** **    ** ** **   PROGRAM PROCESS ID                               2115393
  **** **  *******  **  PROGRAM STOPPED IN /home/kuehne88/periodic-gfn2-benchmar
                                           ks/DMC-ICE13/runs_kpoints/k555/GFN2/I
                                           V
