 DBCSR| CPU Multiplication driver                                           XSMM (U)
 DBCSR| Multrec recursion limit                                              512 (U)
 DBCSR| Multiplication stack size                                           1000 (D)
 DBCSR| Maximum elements for images                                    UNLIMITED (U)
 DBCSR| Multiplicative factor virtual images                                   1 (U)
 DBCSR| Use multiplication densification                                       T (D)
 DBCSR| Multiplication size stacks                                             3 (U)
 DBCSR| Use memory pool for CPU allocation                                     F (U)
 DBCSR| Number of 3D layers                                               SINGLE (U)
 DBCSR| Use MPI memory allocation                                              F (U)
 DBCSR| Use RMA algorithm                                                      F (U)
 DBCSR| Use Communication thread                                               T (U)
 DBCSR| Communication thread load                                             87 (D)
 DBCSR| MPI: My process id                                                     0
 DBCSR| MPI: Number of processes                                               1
 DBCSR| OMP: Current number of threads                                         1
 DBCSR| OMP: Max number of threads                                             1
 DBCSR| Split modifier for TAS multiplication algorithm                  1.0E+00 (U)


  **** **** ******  **  PROGRAM STARTED AT               2026-05-23 22:46:18.305
 ***** ** ***  *** **   PROGRAM STARTED ON                            spark-c86c
 **    ****   ******    PROGRAM STARTED BY                              kuehne88
 ***** **    ** ** **   PROGRAM PROCESS ID                               2222449
  **** **  *******  **  PROGRAM STARTED IN /home/kuehne88/periodic-gfn2-benchmar
                                           ks/X23b/runs/molecule_geoopt/GFN1/tri
                                           azine_GFN1_mol_geoopt

 CP2K| version string:                 CP2K version 2026.1 (Development Version)
 CP2K| source code revision number:                                   0622d442e4
 CP2K| cp2kflags: omp fftw3 libxc parallel scalapack mpi_f08 xsmm spglib libdftd
 CP2K|            4 dftd4_v3 mctc-lib tblite
 CP2K| is freely available from                            https://www.cp2k.org/
 CP2K| Program compiled at                                   2026-05-23 22:05:08
 CP2K| Program compiled on                                            spark-c86c
 CP2K| Program compiled for                                              aarch64
 CP2K| Data directory path    /home/kuehne88/cp2k-master-tblite-20260523/install
 CP2K| Input file name                              triazine_GFN1_mol_geoopt.inp

 GLOBAL| Force Environment number                                              1
 GLOBAL| Basis set file name                                           BASIS_SET
 GLOBAL| Potential file name                                           POTENTIAL
 GLOBAL| MM Potential file name                                     MM_POTENTIAL
 GLOBAL| Coordinate file name                                      __STD_INPUT__
 GLOBAL| Method name                                                        CP2K
 GLOBAL| Project name                                   triazine_GFN1_mol_geoopt
 GLOBAL| Run type                                                        GEO_OPT
 GLOBAL| FFT library                                                       FFTW3
 GLOBAL| Diagonalization library                                       ScaLAPACK
 GLOBAL| Cholesky decomposition library                                ScaLAPACK
 GLOBAL| DGEMM library                                                      BLAS
 GLOBAL| Direct generalized diagonalization requested                          F
 GLOBAL| Orthonormality check for eigenvectors                          DISABLED
 GLOBAL| Matrix multiplication library                                 ScaLAPACK
 GLOBAL| All-to-all communication in single precision                          F
 GLOBAL| FFTs using library dependent lengths                                  F
 GLOBAL| Grid backend                                                       AUTO
 GLOBAL| Global print level                                                  LOW
 GLOBAL| MPI I/O enabled                                                       T
 GLOBAL| Total number of message passing processes                             1
 GLOBAL| Number of distributed systems (nodes)                                 1
 GLOBAL| Number of threads for this process                                    1
 GLOBAL| This output is from process                                           0
 GLOBAL| OpenMP stack size per thread (OMP_STACKSIZE)                    default
 GLOBAL| CPU model name                                                  UNKNOWN
 GLOBAL| CPUID                                                              2200
 GLOBAL| Compiled for CPUID                                                 2000

 *** HINT in environment.F:970 :: The compiler target flags (arm_arch64)   ***
 *** used to build this binary cannot exploit all extensions of this CPU   ***
 *** model (arm_sve256). Consider compiler target flags as part of FCFLAGS ***
 *** and CFLAGS (ARCH file).                                               ***


 MEMORY| system memory details [Kb]
 MEMORY|                        rank 0           min           max       average
 MEMORY| MemTotal            125508532     125508532     125508532     125508532
 MEMORY| MemFree             105859148     105859148     105859148     105859148
 MEMORY| Buffers                865972        865972        865972        865972
 MEMORY| Cached               13214800      13214800      13214800      13214800
 MEMORY| Slab                  1565140       1565140       1565140       1565140
 MEMORY| SReclaimable           888284        888284        888284        888284
 MEMORY| MemLikelyFree       120828204     120828204     120828204     120828204


 GENERATE|  Preliminary Number of Bonds generated:                             0
 GENERATE|  Achieved consistency in connectivity generation.


                  #####   #####        #     #   #     #       #          
                 #     # #     #      #    ##### #     #   # #####  ####  
                 #     # #           #       #   ###   #       #   #    # 
                 #     #  #####     #        #   #  #  #   #   #   ###### 
                 #   # #       #   #         #   #   # #   #   #   #      
                 #    #  #     #  #          #   #  #  # # #   #    #   # 
                  #### #  #####  #           #   ###   ##  #   #     ###  

                                   GFN1-xTB  
                                 Version 0.0                       
                            Johann V. Pototschnig                  



 TOTAL NUMBERS AND MAXIMUM NUMBERS

  Total number of            - Atomic kinds:                                   3
                             - Atoms:                                          9
                             - Shell sets:                                    18
                             - Shells:                                        18
                             - Primitive Cartesian functions:                105
                             - Cartesian basis functions:                     30
                             - Spherical basis functions:                     30

  Maximum angular momentum of the orbital basis functions:                     1


 SCF PARAMETERS         Density guess:                                     MOPAC
                        --------------------------------------------------------
                        max_scf:                                             300
                        max_scf_history:                                       0
                        max_diis:                                              4
                        --------------------------------------------------------
                        eps_scf:                                        1.00E-09
                        eps_scf_history:                                0.00E+00
                        eps_diis:                                       1.00E-01
                        eps_eigval:                                     1.00E-05
                        --------------------------------------------------------
                        level_shift [a.u.]:                             0.000000
                        added MOs                                        15    0
                        --------------------------------------------------------
                        Mixing method:                           DIRECT_P_MIXING
                        --------------------------------------------------------
                        Smear method:                                FERMI_DIRAC
                        Electronic temperature [K]:                        300.0
                        Electronic temperature [a.u.]:                  9.50E-04
                        Accuracy threshold:                             1.00E-06
                        --------------------------------------------------------
                        No outer SCF

 BFGS| Use rational function optimization for step estimation:                NO
 BFGS| Use model Hessian for initial guess:                                  YES
 BFGS| Restart Hessian:                                                       NO
 BFGS| Trust radius:                                                       0.472

 *******************************************************************************
 ***                     STARTING GEOMETRY OPTIMIZATION                      ***
 ***                                   BFGS                                  ***
 *******************************************************************************

 Extrapolation method: initial_guess

 Number of electrons:                                                         30
 Number of occupied orbitals:                                                 15
 Number of molecular orbitals:                                                30

 Number of orbital functions:                                                 30
 Number of independent orbital functions:                                     30


 SCF WAVEFUNCTION OPTIMIZATION

  Step     Update method      Time    Convergence         Total energy    Change
  ------------------------------------------------------------------------------
     1 TBLite/Diag 0.40E+00    0.0     1.46341401       -17.2293249961 -1.72E+01
     2 TBLite/Diag 0.40E+00    0.0     0.40573473       -17.4824642821 -2.53E-01
     3 TBLite/Diag 0.40E+00    0.0     0.07191771       -17.4867817660 -4.32E-03
     4 TBLite/Diag 0.40E+00    0.0     0.03976080       -17.4872954507 -5.14E-04
     5 TBLite/Diag 0.40E+00    0.0     0.02352855       -17.4876056464 -3.10E-04
     6 TBLite/Diag 0.40E+00    0.0     0.00758596       -17.4877023747 -9.67E-05
     7 TBLite/Diag 0.40E+00    0.0     0.00024071       -17.4877024281 -5.34E-08
     8 TBLite/Diag 0.40E+00    0.0     0.00002906       -17.4877024255  2.59E-09
     9 TBLite/Diag 0.40E+00    0.0     0.00004667       -17.4877024293 -3.78E-09
    10 TBLite/Diag 0.40E+00    0.0     0.00000067       -17.4877024293 -8.14E-13
    11 TBLite/Diag 0.40E+00    0.0     0.00000008       -17.4877024293  0.00E+00
    12 TBLite/Diag 0.40E+00    0.0     6.5491E-10       -17.4877024293 -7.11E-15

  *** SCF run converged in    12 steps ***


  Core Hamiltonian energy:                                    -17.72666618260663
  Repulsive potential energy:                                   0.19689501613883
  Electrostatic energy:                                         0.04528741066311
  Self-consistent dispersion energy:                            0.00000000000000
  Non-self consistent dispersion energy:                       -0.00321867347435
  Correction for halogen bonding:                               0.00000000000000
  Electronic entropic energy:                                  -0.00000000000000
  Fermi energy:                                                -0.34128715770103

  Total energy:                                               -17.48770242927904
  Total energy (extrapolated to T->0):                        -17.48770242927904

 ENERGY| Total FORCE_EVAL ( QS ) energy [hartree]            -17.487702429279036

 OPT| **************************************************************************
 OPT| Step number                                                              0
 OPT| Optimization method                                                   BFGS
 OPT| Total energy [hartree]                                      -17.4877024293
 OPT| Used time [s]                                                        0.011
 OPT| **************************************************************************
 OPT| Estimated peak process memory [MiB]                                    166

 --------------------------
 OPTIMIZATION STEP:      1
 --------------------------

 Extrapolation method: ASPC

 Number of electrons:                                                         30
 Number of occupied orbitals:                                                 15
 Number of molecular orbitals:                                                30

 Number of orbital functions:                                                 30
 Number of independent orbital functions:                                     30


 SCF WAVEFUNCTION OPTIMIZATION

  Step     Update method      Time    Convergence         Total energy    Change
  ------------------------------------------------------------------------------
     1 TBLite/Diag 0.40E+00    0.0     0.04685546       -17.4887294440 -1.75E+01
     2 TBLite/Diag 0.40E+00    0.0     0.00642480       -17.4887709687 -4.15E-05
     3 TBLite/Diag 0.40E+00    0.0     0.00187050       -17.4887735137 -2.54E-06
     4 TBLite/Diag 0.40E+00    0.0     0.00061991       -17.4887741258 -6.12E-07
     5 TBLite/Diag 0.40E+00    0.0     0.00005109       -17.4887741299 -4.02E-09
     6 TBLite/Diag 0.40E+00    0.0     0.00000247       -17.4887741299 -8.59E-12
     7 TBLite/Diag 0.40E+00    0.0     0.00000080       -17.4887741299 -7.92E-13
     8 TBLite/Diag 0.40E+00    0.0     0.00000005       -17.4887741299 -1.07E-14
     9 TBLite/Diag 0.40E+00    0.0     5.1425E-09       -17.4887741299  7.11E-15
    10 TBLite/Diag 0.40E+00    0.0     2.4371E-10       -17.4887741299 -3.55E-15

  *** SCF run converged in    10 steps ***


  Core Hamiltonian energy:                                    -17.73745891234450
  Repulsive potential energy:                                   0.20593653608493
  Electrostatic energy:                                         0.04597748475903
  Self-consistent dispersion energy:                            0.00000000000000
  Non-self consistent dispersion energy:                       -0.00322923836579
  Correction for halogen bonding:                               0.00000000000000
  Electronic entropic energy:                                  -0.00000000000000
  Fermi energy:                                                -0.33788346580086

  Total energy:                                               -17.48877412986633
  Total energy (extrapolated to T->0):                        -17.48877412986633

 ENERGY| Total FORCE_EVAL ( QS ) energy [hartree]            -17.488774129866329

 OPT| **************************************************************************
 OPT| Step number                                                              1
 OPT| Optimization method                                                   BFGS
 OPT| Total energy [hartree]                                      -17.4887741299
 OPT| Effective energy change [hartree]                            -0.0010717006
 OPT| Predicted energy change [hartree]                            -0.0015321755
 OPT| Scaling factor                                                0.0000000000
 OPT| Step size                                                     0.0456282407
 OPT| Trust radius                                                  0.4724315332
 OPT| Decrease in energy                                                     YES
 OPT| Used time [s]                                                        0.009
 OPT|
 OPT| Maximum step size                                             0.0456282407
 OPT| Convergence limit for maximum step size                       0.0030000000
 OPT| Maximum step size is converged                                          NO
 OPT|
 OPT| RMS step size                                                 0.0180226005
 OPT| Convergence limit for RMS step size                           0.0015000000
 OPT| RMS step size is converged                                              NO
 OPT|
 OPT| Maximum gradient                                              0.0102838915
 OPT| Convergence limit for maximum gradient                        0.0004500000
 OPT| Maximum gradient is converged                                           NO
 OPT|
 OPT| RMS gradient                                                  0.0034970134
 OPT| Convergence limit for RMS gradient                            0.0003000000
 OPT| RMS gradient is converged                                               NO
 OPT| **************************************************************************
 OPT| Estimated peak process memory after this step [MiB]                    166

 --------------------------
 OPTIMIZATION STEP:      2
 --------------------------

 Extrapolation method: ASPC

 Number of electrons:                                                         30
 Number of occupied orbitals:                                                 15
 Number of molecular orbitals:                                                30

 Number of orbital functions:                                                 30
 Number of independent orbital functions:                                     30


 SCF WAVEFUNCTION OPTIMIZATION

  Step     Update method      Time    Convergence         Total energy    Change
  ------------------------------------------------------------------------------
     1 TBLite/Diag 0.40E+00    0.0     0.01134171       -17.4891355994 -1.75E+01
     2 TBLite/Diag 0.40E+00    0.0     0.00053058       -17.4891362898 -6.90E-07
     3 TBLite/Diag 0.40E+00    0.0     0.00020608       -17.4891363549 -6.51E-08
     4 TBLite/Diag 0.40E+00    0.0     0.00006911       -17.4891363599 -5.03E-09
     5 TBLite/Diag 0.40E+00    0.0     0.00002528       -17.4891363611 -1.16E-09
     6 TBLite/Diag 0.40E+00    0.0     0.00000252       -17.4891363611 -6.67E-12
     7 TBLite/Diag 0.40E+00    0.0     0.00000017       -17.4891363611 -6.04E-14
     8 TBLite/Diag 0.40E+00    0.0     0.00000001       -17.4891363611  1.07E-14
     9 TBLite/Diag 0.40E+00    0.0     1.0453E-09       -17.4891363611 -7.11E-15
    10 TBLite/Diag 0.40E+00    0.0     2.4972E-10       -17.4891363611  1.07E-14

  *** SCF run converged in    10 steps ***


  Core Hamiltonian energy:                                    -17.74207614920299
  Repulsive potential energy:                                   0.21041994435330
  Electrostatic energy:                                         0.04574093127162
  Self-consistent dispersion energy:                            0.00000000000000
  Non-self consistent dispersion energy:                       -0.00322108751190
  Correction for halogen bonding:                               0.00000000000000
  Electronic entropic energy:                                  -0.00000000000000
  Fermi energy:                                                -0.33738652643208

  Total energy:                                               -17.48913636108996
  Total energy (extrapolated to T->0):                        -17.48913636108996

 ENERGY| Total FORCE_EVAL ( QS ) energy [hartree]            -17.489136361089962

 OPT| **************************************************************************
 OPT| Step number                                                              2
 OPT| Optimization method                                                   BFGS
 OPT| Total energy [hartree]                                      -17.4891363611
 OPT| Effective energy change [hartree]                            -0.0003622312
 OPT| Predicted energy change [hartree]                            -0.0003438565
 OPT| Scaling factor                                                0.0000000000
 OPT| Step size                                                     0.0207953571
 OPT| Trust radius                                                  0.4724315332
 OPT| Decrease in energy                                                     YES
 OPT| Used time [s]                                                        0.010
 OPT|
 OPT| Maximum step size                                             0.0207953571
 OPT| Convergence limit for maximum step size                       0.0030000000
 OPT| Maximum step size is converged                                          NO
 OPT|
 OPT| RMS step size                                                 0.0094370147
 OPT| Convergence limit for RMS step size                           0.0015000000
 OPT| RMS step size is converged                                              NO
 OPT|
 OPT| Maximum gradient                                              0.0009031076
 OPT| Convergence limit for maximum gradient                        0.0004500000
 OPT| Maximum gradient is converged                                           NO
 OPT|
 OPT| RMS gradient                                                  0.0003226857
 OPT| Convergence limit for RMS gradient                            0.0003000000
 OPT| RMS gradient is converged                                               NO
 OPT| **************************************************************************
 OPT| Estimated peak process memory after this step [MiB]                    167

 --------------------------
 OPTIMIZATION STEP:      3
 --------------------------

 Extrapolation method: ASPC

 Number of electrons:                                                         30
 Number of occupied orbitals:                                                 15
 Number of molecular orbitals:                                                30

 Number of orbital functions:                                                 30
 Number of independent orbital functions:                                     30


 SCF WAVEFUNCTION OPTIMIZATION

  Step     Update method      Time    Convergence         Total energy    Change
  ------------------------------------------------------------------------------
     1 TBLite/Diag 0.40E+00    0.0     0.00057323       -17.4891379684 -1.75E+01
     2 TBLite/Diag 0.40E+00    0.0     0.00011841       -17.4891379902 -2.18E-08
     3 TBLite/Diag 0.40E+00    0.0     0.00003669       -17.4891379918 -1.64E-09
     4 TBLite/Diag 0.40E+00    0.0     0.00001195       -17.4891379919 -8.89E-11
     5 TBLite/Diag 0.40E+00    0.0     0.00000408       -17.4891379920 -2.40E-11
     6 TBLite/Diag 0.40E+00    0.0     0.00000018       -17.4891379920 -3.20E-14
     7 TBLite/Diag 0.40E+00    0.0     0.00000002       -17.4891379920  0.00E+00
     8 TBLite/Diag 0.40E+00    0.0     6.5368E-09       -17.4891379920 -7.11E-15
     9 TBLite/Diag 0.40E+00    0.0     1.9934E-11       -17.4891379920 -3.55E-15

  *** SCF run converged in     9 steps ***


  Core Hamiltonian energy:                                    -17.74244282951085
  Repulsive potential energy:                                   0.21079394119114
  Electrostatic energy:                                         0.04573131075732
  Self-consistent dispersion energy:                            0.00000000000000
  Non-self consistent dispersion energy:                       -0.00322041439297
  Correction for halogen bonding:                               0.00000000000000
  Electronic entropic energy:                                  -0.00000000000000
  Fermi energy:                                                -0.33729488875000

  Total energy:                                               -17.48913799195535
  Total energy (extrapolated to T->0):                        -17.48913799195535

 ENERGY| Total FORCE_EVAL ( QS ) energy [hartree]            -17.489137991955353

 OPT| **************************************************************************
 OPT| Step number                                                              3
 OPT| Optimization method                                                   BFGS
 OPT| Total energy [hartree]                                      -17.4891379920
 OPT| Effective energy change [hartree]                            -0.0000016309
 OPT| Predicted energy change [hartree]                            -0.0000015431
 OPT| Scaling factor                                                0.0000000000
 OPT| Step size                                                     0.0011560357
 OPT| Trust radius                                                  0.4724315332
 OPT| Decrease in energy                                                     YES
 OPT| Used time [s]                                                        0.009
 OPT|
 OPT| Maximum step size                                             0.0011560357
 OPT| Convergence limit for maximum step size                       0.0030000000
 OPT| Maximum step size is converged                                         YES
 OPT|
 OPT| RMS step size                                                 0.0004823813
 OPT| Convergence limit for RMS step size                           0.0015000000
 OPT| RMS step size is converged                                             YES
 OPT|
 OPT| Maximum gradient                                              0.0001131736
 OPT| Convergence limit for maximum gradient                        0.0004500000
 OPT| Maximum gradient is converged                                          YES
 OPT|
 OPT| RMS gradient                                                  0.0000515758
 OPT| Convergence limit for RMS gradient                            0.0003000000
 OPT| RMS gradient is converged                                              YES
 OPT| **************************************************************************
 OPT| Estimated peak process memory after this step [MiB]                    167

 *******************************************************************************
 ***                    GEOMETRY OPTIMIZATION COMPLETED                      ***
 *******************************************************************************

 write_final_structure: Optimization converged, writing XYZ file gladly:
  triazine_GFN1_mol_geoopt-FINAL-1_3.xyz

 write_final_structure: Optimization converged, writing CIF file gladly:
  triazine_GFN1_mol_geoopt-FINAL-1_3.cif

 write_final_structure: Done!

                    Reevaluating energy at the minimum

 Extrapolation method: ASPC

 Number of electrons:                                                         30
 Number of occupied orbitals:                                                 15
 Number of molecular orbitals:                                                30

 Number of orbital functions:                                                 30
 Number of independent orbital functions:                                     30


 SCF WAVEFUNCTION OPTIMIZATION

  Step     Update method      Time    Convergence         Total energy    Change
  ------------------------------------------------------------------------------
     1 TBLite/Diag 0.40E+00    0.0     1.1623E-10       -17.4891379920 -1.75E+01

  *** SCF run converged in     1 steps ***


  Core Hamiltonian energy:                                    -17.74244282946884
  Repulsive potential energy:                                   0.21079394119114
  Electrostatic energy:                                         0.04573131071531
  Self-consistent dispersion energy:                            0.00000000000000
  Non-self consistent dispersion energy:                       -0.00322041439297
  Correction for halogen bonding:                               0.00000000000000
  Electronic entropic energy:                                  -0.00000000000000
  Fermi energy:                                                -0.33729488876095

  Total energy:                                               -17.48913799195536
  Total energy (extrapolated to T->0):                        -17.48913799195536

 ENERGY| Total FORCE_EVAL ( QS ) energy [hartree]            -17.489137991955356

 -------------------------------------------------------------------------------
 -                                                                             -
 -                                DBCSR STATISTICS                             -
 -                                                                             -
 -------------------------------------------------------------------------------
 COUNTER                                    TOTAL       BLAS       SMM       ACC
 flops     2 x    30 x     2                21600       0.0%    100.0%      0.0%     
 flops     2 x     2 x    30                72000       0.0%    100.0%      0.0%     
 flops     2 x    30 x     4                86400       0.0%    100.0%      0.0%     
 flops     4 x    30 x     2                86400       0.0%    100.0%      0.0%     
 flops     2 x     4 x    30               216000       0.0%    100.0%      0.0%     
 flops     4 x     2 x    30               216000       0.0%    100.0%      0.0%     
 flops     4 x    30 x     4               345600       0.0%    100.0%      0.0%     
 flops     4 x     4 x    30              1008000       0.0%    100.0%      0.0%     
 flops inhomo. stacks                           0       0.0%      0.0%      0.0%
 flops total                         2.052000E+06       0.0%    100.0%      0.0%
 flops max/rank                      2.052000E+06       0.0%    100.0%      0.0%
 matmuls inhomo. stacks                         0       0.0%      0.0%      0.0%
 matmuls total                               3060       0.0%    100.0%      0.0%
 number of processed stacks                   240       0.0%    100.0%      0.0%
 average stack size                                     0.0      12.8       0.0
 marketing flops                     1.890000E+06
 -------------------------------------------------------------------------------
 # multiplications                             60
 max memory usage/rank              13.671862E+09
 # max total images/rank                        1
 # max 3D layers                                1
 # MPI messages exchanged                       0
 -------------------------------------------------------------------------------
 -                                                                             -
 -                      DBCSR MESSAGE PASSING PERFORMANCE                      -
 -                                                                             -
 -------------------------------------------------------------------------------
 ROUTINE             CALLS      AVE VOLUME [Bytes]
 MP_Bcast                9                     12.
 MP_Allreduce          315                     10.
 MP_Alltoall          2018                   4938.
 MP_ISend              240                    300.
 MP_IRecv              240                    300.
 -------------------------------------------------------------------------------

 -------------------------------------------------------------------------------
 -                                                                             -
 -                          OFFLOAD MEMPOOL STATISTICS                         -
 -                                                                             -
 -------------------------------------------------------------------------------
 Memory consumption                Number of allocations  Used [MiB]  Size [MiB]
 Device                                                1           0           0
 Host                                                  1           0           0
 -------------------------------------------------------------------------------

 MEMORY| Estimated peak process memory [MiB]                                 167

 -------------------------------------------------------------------------------
 -                                                                             -
 -                         MESSAGE PASSING PERFORMANCE                         -
 -                                                                             -
 -------------------------------------------------------------------------------

 ROUTINE             CALLS      AVE VOLUME [Bytes]
 MP_Group                1
 MP_Bcast               95                    127.
 MP_Allreduce          769                     66.
 MP_Sync                51
 MP_comm_split          50
 -------------------------------------------------------------------------------


 -------------------------------------------------------------------------------
 -                                                                             -
 -                           R E F E R E N C E S                               -
 -                                                                             -
 -------------------------------------------------------------------------------
 
 CP2K version 2026.1 (Development Version), the CP2K developers group (2026).
 CP2K is freely available from https://www.cp2k.org/ .
 
 M. Iannuzzi, J. Wilhelm, F. Stein, A. Bussy, H. Elgabarty, D. Golze, A. Hehn, 
 M. Graml, S. Marek, B. Sertcan Gökmen, C. Schran, H. Forbert, R. Z. 
 Khaliullin, A. Kozhevnikov, M. Taillefumier, R. Meli, V. V. Rybkin, M. Brehm, 
 R. Schade, O. Schütt, J. V. Pototschnig, H. Mirhosseini, A. Knüpfer, D. Marx, 
 M. Krack, J. Hutter, T. D. Kühne.
 J. Phys. Chem. B 130, 1237-1310 (2026).
 The CP2K Program Package Made Simple.
 https://doi.org/10.1021/acs.jpcb.5c05851

 A. Katbashev, M. Stahn, T. Rose, V. Alizadeh, M. Friede, C. Plett, P. 
 Steinbach, S. Ehlert.
 J. Phys. Chem. A 129, 2667-2682 (2025).
 Overview on Building Blocks and Applications of Efficient and Robust Extended 
 Tight Binding.
 https://doi.org/10.1021/acs.jpca.4c08263

 T. D. Kühne, M. Iannuzzi, M. Del Ben, V. V. Rybkin, P. Seewald, F. Stein, T. 
 Laino, R. Z. Khaliullin, O. Schütt, F. Schiffmann, D. Golze, J. Wilhelm, S. 
 Chulkov, M. H. Bani-Hashemian, V. Weber, U. Borstnik, M. Taillefumier, A. S. 
 Jakobovits, A. Lazzaro, H. Pabst, T. Müller, R. Schade, M. Guidon, S. 
 Andermatt, N. Holmberg, G. K. Schenter, A. Hehn, A. Bussy, F. Belleflamme, G. 
 Tabacchi, A. Glöß, M. Lass, I. Bethune, C. J. Mundy, C. Plessl, M. Watkins, 
 J. VandeVondele, M. Krack, J. Hutter.
 J. Chem. Phys. 152, 194103 (2020).
 CP2K: An electronic structure and molecular dynamics software package - 
 Quickstep: Efficient and accurate electronic structure calculations.
 https://doi.org/10.1063/5.0007045

 P. Pracht, E. Caldeweyher, S. Ehlert, S. Grimme.
 ChemRxiv, (2019).
 A Robust Non-Self-Consistent Tight-Binding Quantum Chemistry Method for large 
 Molecules.
 https://doi.org/10.26434/chemrxiv.8326202.v1

 S. Grimme, C. Bannwarth, P. Shushkov.
 J. Chem. Theory Comput. 13, 1989 (2017).
 A Robust and Accurate Tight-Binding Quantum Chemical Method for Structures, 
 Vibrational Frequencies, and Noncovalent Interactions of Large Molecular 
 Systems Parametrized for All spd-Block Elements (Z = 1-86).
 https://doi.org/10.1021/acs.jctc.7b00118

 O. Schuett, P. Messmer, J. Hutter, J. VandeVondele.
 Electronic Structure Calculations on Graphics Processing Units, 173-190 (2016).
 GPU-Accelerated Sparse Matrix-Matrix Multiplication for Linear Scaling Density 
 Functional Theory.
 https://doi.org/10.1002/9781118670712.ch8

 A. Heinecke, G. Henry, M. Hutchinson, H. Pabst.
 Proceedings of Intl. Supercomputing Conference, 981-991 (2016).
 LIBXSMM: Accelerating Small Matrix Multiplications by Runtime Code Generation.
 https://doi.org/10.1109/SC.2016.83

 U. Borstnik, J. VandeVondele, V. Weber, J. Hutter.
 Parallel Comput. 40, 47-58 (2014).
 Sparse matrix multiplication: The distributed block-compressed sparse row 
 library.
 https://doi.org/10.1016/j.parco.2014.03.012

 T. D. Kühne, M. Krack, F. R. Mohamed, M. Parrinello.
 Phys. Rev. Lett. 98, 066401 (2007).
 Efficient and accurate Car-Parrinello-like approach to Born-Oppenheimer 
 molecular dynamics.
 https://doi.org/10.1103/PhysRevLett.98.066401

 M. Frigo, S. G. Johnson.
 Proc. IEEE 93, 216-231 (2005).
 The design and implementation of FFTW3.
 https://doi.org/10.1109/JPROC.2004.840301

 J. Kolafa.
 J. Comput. Chem. 25, 335-342 (2004).
 Time-reversible always stable predictor-corrector method for molecular dynamics 
 of polarizable molecules.
 https://doi.org/10.1002/jcc.10385

 N. D. Mermin.
 Phys. Rev. 137, A1441-A1443 (1965).
 Thermal Properties of the Inhomogeneous Electron Gas.
 https://doi.org/10.1103/PhysRev.137.A1441


 -------------------------------------------------------------------------------
 -                                                                             -
 -                                T I M I N G                                  -
 -                                                                             -
 -------------------------------------------------------------------------------
 SUBROUTINE                       CALLS  ASD         SELF TIME        TOTAL TIME
                                MAXIMUM       AVERAGE  MAXIMUM  AVERAGE  MAXIMUM
 CP2K                                 1  1.0    0.001    0.001    0.050    0.050
 cp_geo_opt                           1  2.0    0.000    0.000    0.044    0.044
 geoopt_bfgs                          1  3.0    0.000    0.000    0.043    0.043
 cp_eval_at                           5  4.0    0.000    0.000    0.041    0.041
 qs_forces                            4  5.0    0.000    0.000    0.038    0.038
 qs_energies                          5  5.8    0.000    0.000    0.035    0.035
 scf_env_do_scf                       5  6.8    0.000    0.000    0.027    0.027
 scf_env_do_scf_inner_loop           42  8.0    0.001    0.001    0.027    0.027
 qs_scf_new_mos                      42  9.0    0.000    0.000    0.023    0.023
 cp_dbcsr_plus_fm_fm_t               50 10.8    0.000    0.000    0.013    0.013
 calculate_dm_sparse                 46 10.0    0.000    0.000    0.012    0.012
 dbcsr_multiply_generic              60 11.9    0.001    0.001    0.011    0.011
 copy_dbcsr_to_fm                    94 10.4    0.000    0.000    0.006    0.006
 make_m2s                           120 12.9    0.000    0.000    0.006    0.006
 dbcsr_complete_redistribute        204 12.1    0.003    0.003    0.006    0.006
 eigensolver                         42 10.0    0.000    0.000    0.005    0.005
 cp_fm_syevd                         50 10.6    0.000    0.000    0.005    0.005
 init_scf_run                         5  6.8    0.000    0.000    0.005    0.005
 scf_env_initial_rho_setup            5  7.8    0.000    0.000    0.004    0.004
 rebuild_ks_matrix                   46  9.7    0.000    0.000    0.004    0.004
 wfi_extrapolate                      5  8.8    0.000    0.000    0.004    0.004
 build_tblite_ks_matrix              46 10.7    0.004    0.004    0.004    0.004
 qs_init_subsys                       1  2.0    0.001    0.001    0.004    0.004
 build_tblite_matrices                9  7.0    0.003    0.003    0.004    0.004
 qs_diis_b_step                      37 10.0    0.000    0.000    0.004    0.004
 cp_fm_syevd_base                    50 11.6    0.003    0.003    0.003    0.003
 qs_ks_update_qs_env_forces           4  6.0    0.000    0.000    0.003    0.003
 copy_fm_to_dbcsr                   110 11.8    0.000    0.000    0.003    0.003
 make_images                        120 13.9    0.001    0.001    0.003    0.003
 qs_energies_init_hamiltonians        5  6.8    0.000    0.000    0.002    0.002
 multiply_cannon                     60 12.9    0.001    0.001    0.002    0.002
 cp_dbcsr_sm_fm_multiply             10 10.4    0.000    0.000    0.002    0.002
 dbcsr_finalize                     778 13.2    0.001    0.001    0.002    0.002
 dbcsr_crop_matrix                  100 13.8    0.000    0.000    0.002    0.002
 qs_env_setup                         1  3.0    0.000    0.000    0.002    0.002
 dbcsr_create_new                  1465 13.3    0.001    0.001    0.002    0.002
 qs_env_rebuild_pw_env               10  6.2    0.000    0.000    0.002    0.002
 pw_env_rebuild                       1  5.0    0.000    0.000    0.002    0.002
 reorthogonalize_vectors              4  9.8    0.000    0.000    0.002    0.002
 make_basis_lowdin                    4 10.8    0.000    0.000    0.002    0.002
 dbcsr_desymmetrize_deep             94 11.4    0.001    0.001    0.002    0.002
 dbcsr_copy_submatrix               100 14.8    0.000    0.000    0.001    0.001
 cp_dbcsr_sm_fm_multiply_core        10 11.4    0.000    0.000    0.001    0.001
 qs_ks_update_qs_env                 42  9.0    0.000    0.000    0.001    0.001
 dbcsr_merge_all                    354 14.8    0.001    0.001    0.001    0.001
 pw_grid_setup                        1  6.0    0.000    0.000    0.001    0.001
 pw_grid_setup_internal               1  7.0    0.000    0.000    0.001    0.001
 cp_fm_redistribute_start            50 11.6    0.001    0.001    0.001    0.001
 parallel_gemm_fm_gemm               98 10.6    0.000    0.000    0.001    0.001
 compute_matrix_w                     5  6.8    0.000    0.000    0.001    0.001
 calculate_w_matrix_1                 4  8.0    0.000    0.000    0.001    0.001
 cp_fm_gemm                          98 11.6    0.001    0.001    0.001    0.001
 -------------------------------------------------------------------------------

 The number of warnings for this run is : 0
 
 -------------------------------------------------------------------------------
  **** **** ******  **  PROGRAM ENDED AT                 2026-05-23 22:46:19.607
 ***** ** ***  *** **   PROGRAM RAN ON                                spark-c86c
 **    ****   ******    PROGRAM RAN BY                                  kuehne88
 ***** **    ** ** **   PROGRAM PROCESS ID                               2222449
  **** **  *******  **  PROGRAM STOPPED IN /home/kuehne88/periodic-gfn2-benchmar
                                           ks/X23b/runs/molecule_geoopt/GFN1/tri
                                           azine_GFN1_mol_geoopt
