 DBCSR| CPU Multiplication driver                                           XSMM (U)
 DBCSR| Multrec recursion limit                                              512 (U)
 DBCSR| Multiplication stack size                                           1000 (D)
 DBCSR| Maximum elements for images                                    UNLIMITED (U)
 DBCSR| Multiplicative factor virtual images                                   1 (U)
 DBCSR| Use multiplication densification                                       T (D)
 DBCSR| Multiplication size stacks                                             3 (U)
 DBCSR| Use memory pool for CPU allocation                                     F (U)
 DBCSR| Number of 3D layers                                               SINGLE (U)
 DBCSR| Use MPI memory allocation                                              F (U)
 DBCSR| Use RMA algorithm                                                      F (U)
 DBCSR| Use Communication thread                                               T (U)
 DBCSR| Communication thread load                                             87 (D)
 DBCSR| MPI: My process id                                                     0
 DBCSR| MPI: Number of processes                                               1
 DBCSR| OMP: Current number of threads                                         1
 DBCSR| OMP: Max number of threads                                             1
 DBCSR| Split modifier for TAS multiplication algorithm                  1.0E+00 (U)


  **** **** ******  **  PROGRAM STARTED AT               2026-05-23 22:46:18.297
 ***** ** ***  *** **   PROGRAM STARTED ON                            spark-c86c
 **    ****   ******    PROGRAM STARTED BY                              kuehne88
 ***** **    ** ** **   PROGRAM PROCESS ID                               2222311
  **** **  *******  **  PROGRAM STARTED IN /home/kuehne88/periodic-gfn2-benchmar
                                           ks/X23b/runs/molecule_geoopt/GFN1/ace
                                           tic_acid_GFN1_mol_geoopt

 CP2K| version string:                 CP2K version 2026.1 (Development Version)
 CP2K| source code revision number:                                   0622d442e4
 CP2K| cp2kflags: omp fftw3 libxc parallel scalapack mpi_f08 xsmm spglib libdftd
 CP2K|            4 dftd4_v3 mctc-lib tblite
 CP2K| is freely available from                            https://www.cp2k.org/
 CP2K| Program compiled at                                   2026-05-23 22:05:08
 CP2K| Program compiled on                                            spark-c86c
 CP2K| Program compiled for                                              aarch64
 CP2K| Data directory path    /home/kuehne88/cp2k-master-tblite-20260523/install
 CP2K| Input file name                           acetic_acid_GFN1_mol_geoopt.inp

 GLOBAL| Force Environment number                                              1
 GLOBAL| Basis set file name                                           BASIS_SET
 GLOBAL| Potential file name                                           POTENTIAL
 GLOBAL| MM Potential file name                                     MM_POTENTIAL
 GLOBAL| Coordinate file name                                      __STD_INPUT__
 GLOBAL| Method name                                                        CP2K
 GLOBAL| Project name                                acetic_acid_GFN1_mol_geoopt
 GLOBAL| Run type                                                        GEO_OPT
 GLOBAL| FFT library                                                       FFTW3
 GLOBAL| Diagonalization library                                       ScaLAPACK
 GLOBAL| Cholesky decomposition library                                ScaLAPACK
 GLOBAL| DGEMM library                                                      BLAS
 GLOBAL| Direct generalized diagonalization requested                          F
 GLOBAL| Orthonormality check for eigenvectors                          DISABLED
 GLOBAL| Matrix multiplication library                                 ScaLAPACK
 GLOBAL| All-to-all communication in single precision                          F
 GLOBAL| FFTs using library dependent lengths                                  F
 GLOBAL| Grid backend                                                       AUTO
 GLOBAL| Global print level                                                  LOW
 GLOBAL| MPI I/O enabled                                                       T
 GLOBAL| Total number of message passing processes                             1
 GLOBAL| Number of distributed systems (nodes)                                 1
 GLOBAL| Number of threads for this process                                    1
 GLOBAL| This output is from process                                           0
 GLOBAL| OpenMP stack size per thread (OMP_STACKSIZE)                    default
 GLOBAL| CPU model name                                                  UNKNOWN
 GLOBAL| CPUID                                                              2200
 GLOBAL| Compiled for CPUID                                                 2000

 *** HINT in environment.F:970 :: The compiler target flags (arm_arch64)   ***
 *** used to build this binary cannot exploit all extensions of this CPU   ***
 *** model (arm_sve256). Consider compiler target flags as part of FCFLAGS ***
 *** and CFLAGS (ARCH file).                                               ***


 MEMORY| system memory details [Kb]
 MEMORY|                        rank 0           min           max       average
 MEMORY| MemTotal            125508532     125508532     125508532     125508532
 MEMORY| MemFree             106584268     106584268     106584268     106584268
 MEMORY| Buffers                865972        865972        865972        865972
 MEMORY| Cached               13214800      13214800      13214800      13214800
 MEMORY| Slab                  1565140       1565140       1565140       1565140
 MEMORY| SReclaimable           888284        888284        888284        888284
 MEMORY| MemLikelyFree       121553324     121553324     121553324     121553324


 GENERATE|  Preliminary Number of Bonds generated:                             0
 GENERATE|  Achieved consistency in connectivity generation.


                  #####   #####        #     #   #     #       #          
                 #     # #     #      #    ##### #     #   # #####  ####  
                 #     # #           #       #   ###   #       #   #    # 
                 #     #  #####     #        #   #  #  #   #   #   ###### 
                 #   # #       #   #         #   #   # #   #   #   #      
                 #    #  #     #  #          #   #  #  # # #   #    #   # 
                  #### #  #####  #           #   ###   ##  #   #     ###  

                                   GFN1-xTB  
                                 Version 0.0                       
                            Johann V. Pototschnig                  



 TOTAL NUMBERS AND MAXIMUM NUMBERS

  Total number of            - Atomic kinds:                                   3
                             - Atoms:                                          8
                             - Shell sets:                                    16
                             - Shells:                                        16
                             - Primitive Cartesian functions:                 92
                             - Cartesian basis functions:                     24
                             - Spherical basis functions:                     24

  Maximum angular momentum of the orbital basis functions:                     1


 SCF PARAMETERS         Density guess:                                     MOPAC
                        --------------------------------------------------------
                        max_scf:                                             300
                        max_scf_history:                                       0
                        max_diis:                                              4
                        --------------------------------------------------------
                        eps_scf:                                        1.00E-09
                        eps_scf_history:                                0.00E+00
                        eps_diis:                                       1.00E-01
                        eps_eigval:                                     1.00E-05
                        --------------------------------------------------------
                        level_shift [a.u.]:                             0.000000
                        added MOs                                        12    0
                        --------------------------------------------------------
                        Mixing method:                           DIRECT_P_MIXING
                        --------------------------------------------------------
                        Smear method:                                FERMI_DIRAC
                        Electronic temperature [K]:                        300.0
                        Electronic temperature [a.u.]:                  9.50E-04
                        Accuracy threshold:                             1.00E-06
                        --------------------------------------------------------
                        No outer SCF

 BFGS| Use rational function optimization for step estimation:                NO
 BFGS| Use model Hessian for initial guess:                                  YES
 BFGS| Restart Hessian:                                                       NO
 BFGS| Trust radius:                                                       0.472

 *******************************************************************************
 ***                     STARTING GEOMETRY OPTIMIZATION                      ***
 ***                                   BFGS                                  ***
 *******************************************************************************

 Extrapolation method: initial_guess

 Number of electrons:                                                         24
 Number of occupied orbitals:                                                 12
 Number of molecular orbitals:                                                24

 Number of orbital functions:                                                 24
 Number of independent orbital functions:                                     24


 SCF WAVEFUNCTION OPTIMIZATION

  Step     Update method      Time    Convergence         Total energy    Change
  ------------------------------------------------------------------------------
     1 TBLite/Diag 0.40E+00    0.0     1.57641910       -15.4564287998 -1.55E+01
     2 TBLite/Diag 0.40E+00    0.0     0.39234388       -15.7933215337 -3.37E-01
     3 TBLite/Diag 0.40E+00    0.0     0.05367137       -15.7987427052 -5.42E-03
     4 TBLite/Diag 0.40E+00    0.0     0.06088972       -15.7988626030 -1.20E-04
     5 TBLite/Diag 0.40E+00    0.0     0.04642347       -15.7995575590 -6.95E-04
     6 TBLite/Diag 0.40E+00    0.0     0.01842344       -15.7998682313 -3.11E-04
     7 TBLite/Diag 0.40E+00    0.0     0.00204838       -15.7998754140 -7.18E-06
     8 TBLite/Diag 0.40E+00    0.0     0.00102714       -15.7998756594 -2.45E-07
     9 TBLite/Diag 0.40E+00    0.0     0.00043357       -15.7998758798 -2.20E-07
    10 TBLite/Diag 0.40E+00    0.0     0.00002424       -15.7998758794  4.20E-10
    11 TBLite/Diag 0.40E+00    0.0     0.00001719       -15.7998758798 -4.35E-10
    12 TBLite/Diag 0.40E+00    0.0     0.00000315       -15.7998758798 -5.30E-12
    13 TBLite/Diag 0.40E+00    0.0     0.00000086       -15.7998758798 -8.38E-13
    14 TBLite/Diag 0.40E+00    0.0     8.0292E-10       -15.7998758798 -1.78E-15

  *** SCF run converged in    14 steps ***


  Core Hamiltonian energy:                                    -16.01788262900338
  Repulsive potential energy:                                   0.13058804992753
  Electrostatic energy:                                         0.08912369922534
  Self-consistent dispersion energy:                            0.00000000000000
  Non-self consistent dispersion energy:                       -0.00170499997360
  Correction for halogen bonding:                               0.00000000000000
  Electronic entropic energy:                                  -0.00000000000000
  Fermi energy:                                                -0.30275024528339

  Total energy:                                               -15.79987587982413
  Total energy (extrapolated to T->0):                        -15.79987587982413

 ENERGY| Total FORCE_EVAL ( QS ) energy [hartree]            -15.799875879824127

 OPT| **************************************************************************
 OPT| Step number                                                              0
 OPT| Optimization method                                                   BFGS
 OPT| Total energy [hartree]                                      -15.7998758798
 OPT| Used time [s]                                                        0.011
 OPT| **************************************************************************
 OPT| Estimated peak process memory [MiB]                                    166

 --------------------------
 OPTIMIZATION STEP:      1
 --------------------------

 Extrapolation method: ASPC

 Number of electrons:                                                         24
 Number of occupied orbitals:                                                 12
 Number of molecular orbitals:                                                24

 Number of orbital functions:                                                 24
 Number of independent orbital functions:                                     24


 SCF WAVEFUNCTION OPTIMIZATION

  Step     Update method      Time    Convergence         Total energy    Change
  ------------------------------------------------------------------------------
     1 TBLite/Diag 0.40E+00    0.0     0.01963873       -15.8005678623 -1.58E+01
     2 TBLite/Diag 0.40E+00    0.0     0.00498205       -15.8005913639 -2.35E-05
     3 TBLite/Diag 0.40E+00    0.0     0.00200532       -15.8005945287 -3.16E-06
     4 TBLite/Diag 0.40E+00    0.0     0.00036473       -15.8005947064 -1.78E-07
     5 TBLite/Diag 0.40E+00    0.0     0.00009656       -15.8005947218 -1.54E-08
     6 TBLite/Diag 0.40E+00    0.0     0.00001190       -15.8005947222 -4.30E-10
     7 TBLite/Diag 0.40E+00    0.0     0.00000485       -15.8005947222 -3.42E-11
     8 TBLite/Diag 0.40E+00    0.0     0.00000031       -15.8005947222 -9.77E-14
     9 TBLite/Diag 0.40E+00    0.0     0.00000002       -15.8005947222 -1.24E-14
    10 TBLite/Diag 0.40E+00    0.0     3.6181E-09       -15.8005947222  1.78E-14
    11 TBLite/Diag 0.40E+00    0.0     4.2034E-10       -15.8005947222 -3.55E-15

  *** SCF run converged in    11 steps ***


  Core Hamiltonian energy:                                    -16.02493090847407
  Repulsive potential energy:                                   0.13721954411318
  Electrostatic energy:                                         0.08882268653504
  Self-consistent dispersion energy:                            0.00000000000000
  Non-self consistent dispersion energy:                       -0.00170604442057
  Correction for halogen bonding:                               0.00000000000000
  Electronic entropic energy:                                  -0.00000000000000
  Fermi energy:                                                -0.29532673439614

  Total energy:                                               -15.80059472224642
  Total energy (extrapolated to T->0):                        -15.80059472224642

 ENERGY| Total FORCE_EVAL ( QS ) energy [hartree]            -15.800594722246418

 OPT| **************************************************************************
 OPT| Step number                                                              1
 OPT| Optimization method                                                   BFGS
 OPT| Total energy [hartree]                                      -15.8005947222
 OPT| Effective energy change [hartree]                            -0.0007188424
 OPT| Predicted energy change [hartree]                            -0.0006442834
 OPT| Scaling factor                                                0.0000000000
 OPT| Step size                                                     0.0284247002
 OPT| Trust radius                                                  0.4724315332
 OPT| Decrease in energy                                                     YES
 OPT| Used time [s]                                                        0.009
 OPT|
 OPT| Maximum step size                                             0.0284247002
 OPT| Convergence limit for maximum step size                       0.0030000000
 OPT| Maximum step size is converged                                          NO
 OPT|
 OPT| RMS step size                                                 0.0113362495
 OPT| Convergence limit for RMS step size                           0.0015000000
 OPT| RMS step size is converged                                              NO
 OPT|
 OPT| Maximum gradient                                              0.0069136387
 OPT| Convergence limit for maximum gradient                        0.0004500000
 OPT| Maximum gradient is converged                                           NO
 OPT|
 OPT| RMS gradient                                                  0.0021845378
 OPT| Convergence limit for RMS gradient                            0.0003000000
 OPT| RMS gradient is converged                                               NO
 OPT| **************************************************************************
 OPT| Estimated peak process memory after this step [MiB]                    166

 --------------------------
 OPTIMIZATION STEP:      2
 --------------------------

 Extrapolation method: ASPC

 Number of electrons:                                                         24
 Number of occupied orbitals:                                                 12
 Number of molecular orbitals:                                                24

 Number of orbital functions:                                                 24
 Number of independent orbital functions:                                     24


 SCF WAVEFUNCTION OPTIMIZATION

  Step     Update method      Time    Convergence         Total energy    Change
  ------------------------------------------------------------------------------
     1 TBLite/Diag 0.40E+00    0.0     0.01747710       -15.8006696856 -1.58E+01
     2 TBLite/Diag 0.40E+00    0.0     0.00231155       -15.8006769112 -7.23E-06
     3 TBLite/Diag 0.40E+00    0.0     0.00087904       -15.8006776358 -7.25E-07
     4 TBLite/Diag 0.40E+00    0.0     0.00024138       -15.8006776900 -5.41E-08
     5 TBLite/Diag 0.40E+00    0.0     0.00005005       -15.8006776956 -5.62E-09
     6 TBLite/Diag 0.40E+00    0.0     0.00001153       -15.8006776960 -4.04E-10
     7 TBLite/Diag 0.40E+00    0.0     0.00000263       -15.8006776960 -1.26E-11
     8 TBLite/Diag 0.40E+00    0.0     0.00000052       -15.8006776960 -2.63E-13
     9 TBLite/Diag 0.40E+00    0.0     7.6479E-09       -15.8006776960 -3.55E-15
    10 TBLite/Diag 0.40E+00    0.0     2.4734E-09       -15.8006776960  3.55E-15
    11 TBLite/Diag 0.40E+00    0.0     1.5931E-10       -15.8006776960 -8.88E-15

  *** SCF run converged in    11 steps ***


  Core Hamiltonian energy:                                    -16.02715403349718
  Repulsive potential energy:                                   0.13976778878529
  Electrostatic energy:                                         0.08841572108209
  Self-consistent dispersion energy:                            0.00000000000000
  Non-self consistent dispersion energy:                       -0.00170717237324
  Correction for halogen bonding:                               0.00000000000000
  Electronic entropic energy:                                  -0.00000000000000
  Fermi energy:                                                -0.29311942098258

  Total energy:                                               -15.80067769600305
  Total energy (extrapolated to T->0):                        -15.80067769600305

 ENERGY| Total FORCE_EVAL ( QS ) energy [hartree]            -15.800677696003049

 OPT| **************************************************************************
 OPT| Step number                                                              2
 OPT| Optimization method                                                   BFGS
 OPT| Total energy [hartree]                                      -15.8006776960
 OPT| Effective energy change [hartree]                            -0.0000829738
 OPT| Predicted energy change [hartree]                            -0.0001085870
 OPT| Scaling factor                                                0.0000000000
 OPT| Step size                                                     0.0123081498
 OPT| Trust radius                                                  0.4724315332
 OPT| Decrease in energy                                                     YES
 OPT| Used time [s]                                                        0.009
 OPT|
 OPT| Maximum step size                                             0.0123081498
 OPT| Convergence limit for maximum step size                       0.0030000000
 OPT| Maximum step size is converged                                          NO
 OPT|
 OPT| RMS step size                                                 0.0067700553
 OPT| Convergence limit for RMS step size                           0.0015000000
 OPT| RMS step size is converged                                              NO
 OPT|
 OPT| Maximum gradient                                              0.0035559299
 OPT| Convergence limit for maximum gradient                        0.0004500000
 OPT| Maximum gradient is converged                                           NO
 OPT|
 OPT| RMS gradient                                                  0.0012236749
 OPT| Convergence limit for RMS gradient                            0.0003000000
 OPT| RMS gradient is converged                                               NO
 OPT| **************************************************************************
 OPT| Estimated peak process memory after this step [MiB]                    166

 --------------------------
 OPTIMIZATION STEP:      3
 --------------------------

 Extrapolation method: ASPC

 Number of electrons:                                                         24
 Number of occupied orbitals:                                                 12
 Number of molecular orbitals:                                                24

 Number of orbital functions:                                                 24
 Number of independent orbital functions:                                     24


 SCF WAVEFUNCTION OPTIMIZATION

  Step     Update method      Time    Convergence         Total energy    Change
  ------------------------------------------------------------------------------
     1 TBLite/Diag 0.40E+00    0.0     0.00405144       -15.8006979548 -1.58E+01
     2 TBLite/Diag 0.40E+00    0.0     0.00086410       -15.8006986203 -6.66E-07
     3 TBLite/Diag 0.40E+00    0.0     0.00009146       -15.8006986308 -1.05E-08
     4 TBLite/Diag 0.40E+00    0.0     0.00005615       -15.8006986305  2.95E-10
     5 TBLite/Diag 0.40E+00    0.0     0.00003010       -15.8006986317 -1.25E-09
     6 TBLite/Diag 0.40E+00    0.0     0.00000376       -15.8006986318 -2.99E-11
     7 TBLite/Diag 0.40E+00    0.0     0.00000086       -15.8006986318 -7.09E-13
     8 TBLite/Diag 0.40E+00    0.0     0.00000004       -15.8006986318 -1.24E-14
     9 TBLite/Diag 0.40E+00    0.0     1.7368E-09       -15.8006986318  7.11E-15
    10 TBLite/Diag 0.40E+00    0.0     4.4333E-10       -15.8006986318 -7.11E-15

  *** SCF run converged in    10 steps ***


  Core Hamiltonian energy:                                    -16.02677537026658
  Repulsive potential energy:                                   0.13926922090533
  Electrostatic energy:                                         0.08851466343163
  Self-consistent dispersion energy:                            0.00000000000000
  Non-self consistent dispersion energy:                       -0.00170714582387
  Correction for halogen bonding:                               0.00000000000000
  Electronic entropic energy:                                  -0.00000000000000
  Fermi energy:                                                -0.29319943896102

  Total energy:                                               -15.80069863175349
  Total energy (extrapolated to T->0):                        -15.80069863175349

 ENERGY| Total FORCE_EVAL ( QS ) energy [hartree]            -15.800698631753486

 OPT| **************************************************************************
 OPT| Step number                                                              3
 OPT| Optimization method                                                   BFGS
 OPT| Total energy [hartree]                                      -15.8006986318
 OPT| Effective energy change [hartree]                            -0.0000209358
 OPT| Predicted energy change [hartree]                            -0.0000176526
 OPT| Scaling factor                                                0.0000000000
 OPT| Step size                                                     0.0051377540
 OPT| Trust radius                                                  0.4724315332
 OPT| Decrease in energy                                                     YES
 OPT| Used time [s]                                                        0.008
 OPT|
 OPT| Maximum step size                                             0.0051377540
 OPT| Convergence limit for maximum step size                       0.0030000000
 OPT| Maximum step size is converged                                          NO
 OPT|
 OPT| RMS step size                                                 0.0022692934
 OPT| Convergence limit for RMS step size                           0.0015000000
 OPT| RMS step size is converged                                              NO
 OPT|
 OPT| Maximum gradient                                              0.0017321765
 OPT| Convergence limit for maximum gradient                        0.0004500000
 OPT| Maximum gradient is converged                                           NO
 OPT|
 OPT| RMS gradient                                                  0.0004910193
 OPT| Convergence limit for RMS gradient                            0.0003000000
 OPT| RMS gradient is converged                                               NO
 OPT| **************************************************************************
 OPT| Estimated peak process memory after this step [MiB]                    166

 --------------------------
 OPTIMIZATION STEP:      4
 --------------------------

 Extrapolation method: ASPC

 Number of electrons:                                                         24
 Number of occupied orbitals:                                                 12
 Number of molecular orbitals:                                                24

 Number of orbital functions:                                                 24
 Number of independent orbital functions:                                     24


 SCF WAVEFUNCTION OPTIMIZATION

  Step     Update method      Time    Convergence         Total energy    Change
  ------------------------------------------------------------------------------
     1 TBLite/Diag 0.40E+00    0.0     0.00229839       -15.8007015651 -1.58E+01
     2 TBLite/Diag 0.40E+00    0.0     0.00071896       -15.8007019908 -4.26E-07
     3 TBLite/Diag 0.40E+00    0.0     0.00009713       -15.8007020005 -9.71E-09
     4 TBLite/Diag 0.40E+00    0.0     0.00002647       -15.8007020007 -2.12E-10
     5 TBLite/Diag 0.40E+00    0.0     0.00001597       -15.8007020011 -4.54E-10
     6 TBLite/Diag 0.40E+00    0.0     0.00000278       -15.8007020012 -1.01E-11
     7 TBLite/Diag 0.40E+00    0.0     0.00000042       -15.8007020012 -3.57E-13
     8 TBLite/Diag 0.40E+00    0.0     0.00000006       -15.8007020012  5.33E-15
     9 TBLite/Diag 0.40E+00    0.0     6.9103E-10       -15.8007020012  5.33E-15

  *** SCF run converged in     9 steps ***


  Core Hamiltonian energy:                                    -16.02657375333802
  Repulsive potential energy:                                   0.13902786800283
  Electrostatic energy:                                         0.08855103560735
  Self-consistent dispersion energy:                            0.00000000000000
  Non-self consistent dispersion energy:                       -0.00170715142650
  Correction for halogen bonding:                               0.00000000000000
  Electronic entropic energy:                                  -0.00000000000000
  Fermi energy:                                                -0.29328087569971

  Total energy:                                               -15.80070200115434
  Total energy (extrapolated to T->0):                        -15.80070200115434

 ENERGY| Total FORCE_EVAL ( QS ) energy [hartree]            -15.800702001154342

 OPT| **************************************************************************
 OPT| Step number                                                              4
 OPT| Optimization method                                                   BFGS
 OPT| Total energy [hartree]                                      -15.8007020012
 OPT| Effective energy change [hartree]                            -0.0000033694
 OPT| Predicted energy change [hartree]                            -0.0000032983
 OPT| Scaling factor                                                0.0000000000
 OPT| Step size                                                     0.0024604966
 OPT| Trust radius                                                  0.4724315332
 OPT| Decrease in energy                                                     YES
 OPT| Used time [s]                                                        0.008
 OPT|
 OPT| Maximum step size                                             0.0024604966
 OPT| Convergence limit for maximum step size                       0.0030000000
 OPT| Maximum step size is converged                                         YES
 OPT|
 OPT| RMS step size                                                 0.0012402287
 OPT| Convergence limit for RMS step size                           0.0015000000
 OPT| RMS step size is converged                                             YES
 OPT|
 OPT| Maximum gradient                                              0.0002229649
 OPT| Convergence limit for maximum gradient                        0.0004500000
 OPT| Maximum gradient is converged                                          YES
 OPT|
 OPT| RMS gradient                                                  0.0000819528
 OPT| Convergence limit for RMS gradient                            0.0003000000
 OPT| RMS gradient is converged                                              YES
 OPT| **************************************************************************
 OPT| Estimated peak process memory after this step [MiB]                    166

 *******************************************************************************
 ***                    GEOMETRY OPTIMIZATION COMPLETED                      ***
 *******************************************************************************

 write_final_structure: Optimization converged, writing XYZ file gladly:
  acetic_acid_GFN1_mol_geoopt-FINAL-1_4.xyz

 write_final_structure: Optimization converged, writing CIF file gladly:
  acetic_acid_GFN1_mol_geoopt-FINAL-1_4.cif

 write_final_structure: Done!

                    Reevaluating energy at the minimum

 Extrapolation method: ASPC

 Number of electrons:                                                         24
 Number of occupied orbitals:                                                 12
 Number of molecular orbitals:                                                24

 Number of orbital functions:                                                 24
 Number of independent orbital functions:                                     24


 SCF WAVEFUNCTION OPTIMIZATION

  Step     Update method      Time    Convergence         Total energy    Change
  ------------------------------------------------------------------------------
     1 TBLite/Diag 0.40E+00    0.0     5.2836E-10       -15.8007020012 -1.58E+01

  *** SCF run converged in     1 steps ***


  Core Hamiltonian energy:                                    -16.02657375363475
  Repulsive potential energy:                                   0.13902786800283
  Electrostatic energy:                                         0.08855103590409
  Self-consistent dispersion energy:                            0.00000000000000
  Non-self consistent dispersion energy:                       -0.00170715142650
  Correction for halogen bonding:                               0.00000000000000
  Electronic entropic energy:                                  -0.00000000000000
  Fermi energy:                                                -0.29328087575172

  Total energy:                                               -15.80070200115434
  Total energy (extrapolated to T->0):                        -15.80070200115434

 ENERGY| Total FORCE_EVAL ( QS ) energy [hartree]            -15.800702001154338

 -------------------------------------------------------------------------------
 -                                                                             -
 -                                DBCSR STATISTICS                             -
 -                                                                             -
 -------------------------------------------------------------------------------
 COUNTER                                    TOTAL       BLAS       SMM       ACC
 flops     2 x    24 x     2                46080       0.0%    100.0%      0.0%     
 flops     4 x    24 x     2                92160       0.0%    100.0%      0.0%     
 flops     2 x    24 x     4                92160       0.0%    100.0%      0.0%     
 flops     2 x     2 x    24               126720       0.0%    100.0%      0.0%     
 flops     4 x     2 x    24               177408       0.0%    100.0%      0.0%     
 flops     4 x    24 x     4               184320       0.0%    100.0%      0.0%     
 flops     2 x     4 x    24               228096       0.0%    100.0%      0.0%     
 flops     4 x     4 x    24               506880       0.0%    100.0%      0.0%     
 flops inhomo. stacks                           0       0.0%      0.0%      0.0%
 flops total                         1.453824E+06       0.0%    100.0%      0.0%
 flops max/rank                      1.453824E+06       0.0%    100.0%      0.0%
 matmuls inhomo. stacks                         0       0.0%      0.0%      0.0%
 matmuls total                               3336       0.0%    100.0%      0.0%
 number of processed stacks                   324       0.0%    100.0%      0.0%
 average stack size                                     0.0      10.3       0.0
 marketing flops                     1.327104E+06
 -------------------------------------------------------------------------------
 # multiplications                             81
 max memory usage/rank              13.670986E+09
 # max total images/rank                        1
 # max 3D layers                                1
 # MPI messages exchanged                       0
 -------------------------------------------------------------------------------
 -                                                                             -
 -                      DBCSR MESSAGE PASSING PERFORMANCE                      -
 -                                                                             -
 -------------------------------------------------------------------------------
 ROUTINE             CALLS      AVE VOLUME [Bytes]
 MP_Bcast                9                     12.
 MP_Allreduce          410                      9.
 MP_Alltoall          2715                   3139.
 MP_ISend              324                    264.
 MP_IRecv              324                    264.
 -------------------------------------------------------------------------------

 -------------------------------------------------------------------------------
 -                                                                             -
 -                          OFFLOAD MEMPOOL STATISTICS                         -
 -                                                                             -
 -------------------------------------------------------------------------------
 Memory consumption                Number of allocations  Used [MiB]  Size [MiB]
 Device                                                1           0           0
 Host                                                  1           0           0
 -------------------------------------------------------------------------------

 MEMORY| Estimated peak process memory [MiB]                                 167

 -------------------------------------------------------------------------------
 -                                                                             -
 -                         MESSAGE PASSING PERFORMANCE                         -
 -                                                                             -
 -------------------------------------------------------------------------------

 ROUTINE             CALLS      AVE VOLUME [Bytes]
 MP_Group                1
 MP_Bcast              126                    102.
 MP_Allreduce          983                     60.
 MP_Sync                67
 MP_comm_split          66
 -------------------------------------------------------------------------------


 -------------------------------------------------------------------------------
 -                                                                             -
 -                           R E F E R E N C E S                               -
 -                                                                             -
 -------------------------------------------------------------------------------
 
 CP2K version 2026.1 (Development Version), the CP2K developers group (2026).
 CP2K is freely available from https://www.cp2k.org/ .
 
 M. Iannuzzi, J. Wilhelm, F. Stein, A. Bussy, H. Elgabarty, D. Golze, A. Hehn, 
 M. Graml, S. Marek, B. Sertcan Gökmen, C. Schran, H. Forbert, R. Z. 
 Khaliullin, A. Kozhevnikov, M. Taillefumier, R. Meli, V. V. Rybkin, M. Brehm, 
 R. Schade, O. Schütt, J. V. Pototschnig, H. Mirhosseini, A. Knüpfer, D. Marx, 
 M. Krack, J. Hutter, T. D. Kühne.
 J. Phys. Chem. B 130, 1237-1310 (2026).
 The CP2K Program Package Made Simple.
 https://doi.org/10.1021/acs.jpcb.5c05851

 A. Katbashev, M. Stahn, T. Rose, V. Alizadeh, M. Friede, C. Plett, P. 
 Steinbach, S. Ehlert.
 J. Phys. Chem. A 129, 2667-2682 (2025).
 Overview on Building Blocks and Applications of Efficient and Robust Extended 
 Tight Binding.
 https://doi.org/10.1021/acs.jpca.4c08263

 T. D. Kühne, M. Iannuzzi, M. Del Ben, V. V. Rybkin, P. Seewald, F. Stein, T. 
 Laino, R. Z. Khaliullin, O. Schütt, F. Schiffmann, D. Golze, J. Wilhelm, S. 
 Chulkov, M. H. Bani-Hashemian, V. Weber, U. Borstnik, M. Taillefumier, A. S. 
 Jakobovits, A. Lazzaro, H. Pabst, T. Müller, R. Schade, M. Guidon, S. 
 Andermatt, N. Holmberg, G. K. Schenter, A. Hehn, A. Bussy, F. Belleflamme, G. 
 Tabacchi, A. Glöß, M. Lass, I. Bethune, C. J. Mundy, C. Plessl, M. Watkins, 
 J. VandeVondele, M. Krack, J. Hutter.
 J. Chem. Phys. 152, 194103 (2020).
 CP2K: An electronic structure and molecular dynamics software package - 
 Quickstep: Efficient and accurate electronic structure calculations.
 https://doi.org/10.1063/5.0007045

 P. Pracht, E. Caldeweyher, S. Ehlert, S. Grimme.
 ChemRxiv, (2019).
 A Robust Non-Self-Consistent Tight-Binding Quantum Chemistry Method for large 
 Molecules.
 https://doi.org/10.26434/chemrxiv.8326202.v1

 S. Grimme, C. Bannwarth, P. Shushkov.
 J. Chem. Theory Comput. 13, 1989 (2017).
 A Robust and Accurate Tight-Binding Quantum Chemical Method for Structures, 
 Vibrational Frequencies, and Noncovalent Interactions of Large Molecular 
 Systems Parametrized for All spd-Block Elements (Z = 1-86).
 https://doi.org/10.1021/acs.jctc.7b00118

 O. Schuett, P. Messmer, J. Hutter, J. VandeVondele.
 Electronic Structure Calculations on Graphics Processing Units, 173-190 (2016).
 GPU-Accelerated Sparse Matrix-Matrix Multiplication for Linear Scaling Density 
 Functional Theory.
 https://doi.org/10.1002/9781118670712.ch8

 A. Heinecke, G. Henry, M. Hutchinson, H. Pabst.
 Proceedings of Intl. Supercomputing Conference, 981-991 (2016).
 LIBXSMM: Accelerating Small Matrix Multiplications by Runtime Code Generation.
 https://doi.org/10.1109/SC.2016.83

 U. Borstnik, J. VandeVondele, V. Weber, J. Hutter.
 Parallel Comput. 40, 47-58 (2014).
 Sparse matrix multiplication: The distributed block-compressed sparse row 
 library.
 https://doi.org/10.1016/j.parco.2014.03.012

 T. D. Kühne, M. Krack, F. R. Mohamed, M. Parrinello.
 Phys. Rev. Lett. 98, 066401 (2007).
 Efficient and accurate Car-Parrinello-like approach to Born-Oppenheimer 
 molecular dynamics.
 https://doi.org/10.1103/PhysRevLett.98.066401

 M. Frigo, S. G. Johnson.
 Proc. IEEE 93, 216-231 (2005).
 The design and implementation of FFTW3.
 https://doi.org/10.1109/JPROC.2004.840301

 J. Kolafa.
 J. Comput. Chem. 25, 335-342 (2004).
 Time-reversible always stable predictor-corrector method for molecular dynamics 
 of polarizable molecules.
 https://doi.org/10.1002/jcc.10385

 N. D. Mermin.
 Phys. Rev. 137, A1441-A1443 (1965).
 Thermal Properties of the Inhomogeneous Electron Gas.
 https://doi.org/10.1103/PhysRev.137.A1441


 -------------------------------------------------------------------------------
 -                                                                             -
 -                                T I M I N G                                  -
 -                                                                             -
 -------------------------------------------------------------------------------
 SUBROUTINE                       CALLS  ASD         SELF TIME        TOTAL TIME
                                MAXIMUM       AVERAGE  MAXIMUM  AVERAGE  MAXIMUM
 CP2K                                 1  1.0    0.001    0.001    0.055    0.055
 cp_geo_opt                           1  2.0    0.000    0.000    0.049    0.049
 geoopt_bfgs                          1  3.0    0.000    0.000    0.049    0.049
 cp_eval_at                           6  4.0    0.000    0.000    0.046    0.046
 qs_forces                            5  5.0    0.000    0.000    0.043    0.043
 qs_energies                          6  5.8    0.000    0.000    0.041    0.041
 scf_env_do_scf                       6  6.8    0.000    0.000    0.031    0.031
 scf_env_do_scf_inner_loop           56  8.0    0.001    0.001    0.031    0.031
 qs_scf_new_mos                      56  9.0    0.000    0.000    0.027    0.027
 cp_dbcsr_plus_fm_fm_t               66 10.8    0.000    0.000    0.015    0.015
 calculate_dm_sparse                 61 10.0    0.000    0.000    0.014    0.014
 dbcsr_multiply_generic              81 11.9    0.001    0.001    0.013    0.013
 copy_dbcsr_to_fm                   127 10.4    0.000    0.000    0.008    0.008
 make_m2s                           162 12.9    0.000    0.000    0.008    0.008
 dbcsr_complete_redistribute        274 12.2    0.003    0.003    0.007    0.007
 init_scf_run                         6  6.8    0.000    0.000    0.006    0.006
 scf_env_initial_rho_setup            6  7.8    0.000    0.000    0.005    0.005
 wfi_extrapolate                      6  8.8    0.000    0.000    0.005    0.005
 eigensolver                         56 10.0    0.000    0.000    0.005    0.005
 cp_fm_syevd                         66 10.6    0.000    0.000    0.005    0.005
 qs_diis_b_step                      50 10.0    0.000    0.000    0.004    0.004
 copy_fm_to_dbcsr                   147 11.8    0.000    0.000    0.004    0.004
 rebuild_ks_matrix                   61  9.7    0.000    0.000    0.004    0.004
 build_tblite_ks_matrix              61 10.7    0.004    0.004    0.004    0.004
 qs_init_subsys                       1  2.0    0.001    0.001    0.004    0.004
 build_tblite_matrices               11  7.0    0.003    0.003    0.003    0.003
 cp_dbcsr_sm_fm_multiply             15 10.3    0.000    0.000    0.003    0.003
 make_images                        162 13.9    0.001    0.001    0.003    0.003
 dbcsr_finalize                    1025 13.3    0.001    0.001    0.003    0.003
 cp_fm_syevd_base                    66 11.6    0.003    0.003    0.003    0.003
 qs_ks_update_qs_env_forces           5  6.0    0.000    0.000    0.003    0.003
 multiply_cannon                     81 12.9    0.001    0.001    0.003    0.003
 dbcsr_desymmetrize_deep            127 11.4    0.001    0.001    0.002    0.002
 qs_energies_init_hamiltonians        6  6.8    0.000    0.000    0.002    0.002
 dbcsr_crop_matrix                  132 13.8    0.000    0.000    0.002    0.002
 dbcsr_create_new                  1954 13.4    0.002    0.002    0.002    0.002
 cp_dbcsr_sm_fm_multiply_core        15 11.3    0.000    0.000    0.002    0.002
 dbcsr_copy_submatrix               132 14.8    0.000    0.000    0.002    0.002
 reorthogonalize_vectors              5  9.8    0.000    0.000    0.002    0.002
 make_basis_lowdin                    5 10.8    0.000    0.000    0.002    0.002
 qs_env_setup                         1  3.0    0.000    0.000    0.002    0.002
 qs_env_rebuild_pw_env               12  6.2    0.000    0.000    0.002    0.002
 pw_env_rebuild                       1  5.0    0.000    0.000    0.002    0.002
 qs_ks_update_qs_env                 56  9.0    0.000    0.000    0.001    0.001
 dbcsr_merge_all                    472 14.9    0.001    0.001    0.001    0.001
 write_restart                        5  4.0    0.001    0.001    0.001    0.001
 cp_fm_redistribute_start            66 11.6    0.001    0.001    0.001    0.001
 parallel_gemm_fm_gemm              135 10.6    0.000    0.000    0.001    0.001
 cp_fm_gemm                         135 11.6    0.001    0.001    0.001    0.001
 compute_matrix_w                     6  6.8    0.000    0.000    0.001    0.001
 calculate_w_matrix_1                 5  8.0    0.000    0.000    0.001    0.001
 make_images_data                   162 14.9    0.000    0.000    0.001    0.001
 dbcsr_destroy                     1837 12.8    0.001    0.001    0.001    0.001
 dbcsr_make_images_dense            132 13.8    0.000    0.000    0.001    0.001
 -------------------------------------------------------------------------------

 The number of warnings for this run is : 0
 
 -------------------------------------------------------------------------------
  **** **** ******  **  PROGRAM ENDED AT                 2026-05-23 22:46:19.534
 ***** ** ***  *** **   PROGRAM RAN ON                                spark-c86c
 **    ****   ******    PROGRAM RAN BY                                  kuehne88
 ***** **    ** ** **   PROGRAM PROCESS ID                               2222311
  **** **  *******  **  PROGRAM STOPPED IN /home/kuehne88/periodic-gfn2-benchmar
                                           ks/X23b/runs/molecule_geoopt/GFN1/ace
                                           tic_acid_GFN1_mol_geoopt
