 DBCSR| CPU Multiplication driver                                           XSMM (U)
 DBCSR| Multrec recursion limit                                              512 (U)
 DBCSR| Multiplication stack size                                           1000 (D)
 DBCSR| Maximum elements for images                                    UNLIMITED (U)
 DBCSR| Multiplicative factor virtual images                                   1 (U)
 DBCSR| Use multiplication densification                                       T (D)
 DBCSR| Multiplication size stacks                                             3 (U)
 DBCSR| Use memory pool for CPU allocation                                     F (U)
 DBCSR| Number of 3D layers                                               SINGLE (U)
 DBCSR| Use MPI memory allocation                                              F (U)
 DBCSR| Use RMA algorithm                                                      F (U)
 DBCSR| Use Communication thread                                               T (U)
 DBCSR| Communication thread load                                             87 (D)
 DBCSR| MPI: My process id                                                     0
 DBCSR| MPI: Number of processes                                               1
 DBCSR| OMP: Current number of threads                                         1
 DBCSR| OMP: Max number of threads                                             1
 DBCSR| Split modifier for TAS multiplication algorithm                  1.0E+00 (U)


  **** **** ******  **  PROGRAM STARTED AT               2026-05-23 22:46:20.854
 ***** ** ***  *** **   PROGRAM STARTED ON                            spark-c86c
 **    ****   ******    PROGRAM STARTED BY                              kuehne88
 ***** **    ** ** **   PROGRAM PROCESS ID                               2229692
  **** **  *******  **  PROGRAM STARTED IN /home/kuehne88/periodic-gfn2-benchmar
                                           ks/X23b/runs/molecule_geoopt/GFN2/tri
                                           azine_GFN2_mol_geoopt

 CP2K| version string:                 CP2K version 2026.1 (Development Version)
 CP2K| source code revision number:                                   0622d442e4
 CP2K| cp2kflags: omp fftw3 libxc parallel scalapack mpi_f08 xsmm spglib libdftd
 CP2K|            4 dftd4_v3 mctc-lib tblite
 CP2K| is freely available from                            https://www.cp2k.org/
 CP2K| Program compiled at                                   2026-05-23 22:05:08
 CP2K| Program compiled on                                            spark-c86c
 CP2K| Program compiled for                                              aarch64
 CP2K| Data directory path    /home/kuehne88/cp2k-master-tblite-20260523/install
 CP2K| Input file name                              triazine_GFN2_mol_geoopt.inp

 GLOBAL| Force Environment number                                              1
 GLOBAL| Basis set file name                                           BASIS_SET
 GLOBAL| Potential file name                                           POTENTIAL
 GLOBAL| MM Potential file name                                     MM_POTENTIAL
 GLOBAL| Coordinate file name                                      __STD_INPUT__
 GLOBAL| Method name                                                        CP2K
 GLOBAL| Project name                                   triazine_GFN2_mol_geoopt
 GLOBAL| Run type                                                        GEO_OPT
 GLOBAL| FFT library                                                       FFTW3
 GLOBAL| Diagonalization library                                       ScaLAPACK
 GLOBAL| Cholesky decomposition library                                ScaLAPACK
 GLOBAL| DGEMM library                                                      BLAS
 GLOBAL| Direct generalized diagonalization requested                          F
 GLOBAL| Orthonormality check for eigenvectors                          DISABLED
 GLOBAL| Matrix multiplication library                                 ScaLAPACK
 GLOBAL| All-to-all communication in single precision                          F
 GLOBAL| FFTs using library dependent lengths                                  F
 GLOBAL| Grid backend                                                       AUTO
 GLOBAL| Global print level                                                  LOW
 GLOBAL| MPI I/O enabled                                                       T
 GLOBAL| Total number of message passing processes                             1
 GLOBAL| Number of distributed systems (nodes)                                 1
 GLOBAL| Number of threads for this process                                    1
 GLOBAL| This output is from process                                           0
 GLOBAL| OpenMP stack size per thread (OMP_STACKSIZE)                    default
 GLOBAL| CPU model name                                                  UNKNOWN
 GLOBAL| CPUID                                                              2200
 GLOBAL| Compiled for CPUID                                                 2000

 *** HINT in environment.F:970 :: The compiler target flags (arm_arch64)   ***
 *** used to build this binary cannot exploit all extensions of this CPU   ***
 *** model (arm_sve256). Consider compiler target flags as part of FCFLAGS ***
 *** and CFLAGS (ARCH file).                                               ***


 MEMORY| system memory details [Kb]
 MEMORY|                        rank 0           min           max       average
 MEMORY| MemTotal            125508532     125508532     125508532     125508532
 MEMORY| MemFree             106129356     106129356     106129356     106129356
 MEMORY| Buffers                866252        866252        866252        866252
 MEMORY| Cached               13216944      13216944      13216944      13216944
 MEMORY| Slab                  1565152       1565152       1565152       1565152
 MEMORY| SReclaimable           888664        888664        888664        888664
 MEMORY| MemLikelyFree       121101216     121101216     121101216     121101216


 GENERATE|  Preliminary Number of Bonds generated:                             0
 GENERATE|  Achieved consistency in connectivity generation.


                  #####   #####        #     #   #     #       #          
                 #     # #     #      #    ##### #     #   # #####  ####  
                 #     # #           #       #   ###   #       #   #    # 
                 #     #  #####     #        #   #  #  #   #   #   ###### 
                 #   # #       #   #         #   #   # #   #   #   #      
                 #    #  #     #  #          #   #  #  # # #   #    #   # 
                  #### #  #####  #           #   ###   ##  #   #     ###  

                                   GFN2-xTB  
                                 Version 0.0                       
                            Johann V. Pototschnig                  



 TOTAL NUMBERS AND MAXIMUM NUMBERS

  Total number of            - Atomic kinds:                                   3
                             - Atoms:                                          9
                             - Shell sets:                                    15
                             - Shells:                                        15
                             - Primitive Cartesian functions:                 57
                             - Cartesian basis functions:                     27
                             - Spherical basis functions:                     27

  Maximum angular momentum of the orbital basis functions:                     1


 SCF PARAMETERS         Density guess:                                     MOPAC
                        --------------------------------------------------------
                        max_scf:                                             300
                        max_scf_history:                                       0
                        max_diis:                                              4
                        --------------------------------------------------------
                        eps_scf:                                        1.00E-09
                        eps_scf_history:                                0.00E+00
                        eps_diis:                                       1.00E-01
                        eps_eigval:                                     1.00E-05
                        --------------------------------------------------------
                        level_shift [a.u.]:                             0.000000
                        added MOs                                        12    0
                        --------------------------------------------------------
                        Mixing method:                           DIRECT_P_MIXING
                        --------------------------------------------------------
                        Smear method:                                FERMI_DIRAC
                        Electronic temperature [K]:                        300.0
                        Electronic temperature [a.u.]:                  9.50E-04
                        Accuracy threshold:                             1.00E-06
                        --------------------------------------------------------
                        No outer SCF

 BFGS| Use rational function optimization for step estimation:                NO
 BFGS| Use model Hessian for initial guess:                                  YES
 BFGS| Restart Hessian:                                                       NO
 BFGS| Trust radius:                                                       0.472

 *******************************************************************************
 ***                     STARTING GEOMETRY OPTIMIZATION                      ***
 ***                                   BFGS                                  ***
 *******************************************************************************

 Extrapolation method: initial_guess

 Number of electrons:                                                         30
 Number of occupied orbitals:                                                 15
 Number of molecular orbitals:                                                27

 Number of orbital functions:                                                 27
 Number of independent orbital functions:                                     27


 SCF WAVEFUNCTION OPTIMIZATION

  Step     Update method      Time    Convergence         Total energy    Change
  ------------------------------------------------------------------------------
     1 TBLite/Diag 0.40E+00    0.0     0.66317697       -16.5178726258 -1.65E+01
     2 TBLite/Diag 0.40E+00    0.0     0.37211134       -16.6756736518 -1.58E-01
     3 TBLite/Diag 0.40E+00    0.0     0.16071877       -16.6860439030 -1.04E-02
     4 TBLite/Diag 0.40E+00    0.0     0.09336671       -16.6945108179 -8.47E-03
     5 TBLite/Diag 0.40E+00    0.0     0.05662877       -16.6944964342  1.44E-05
     6 TBLite/Diag 0.40E+00    0.0     0.02144877       -16.6959343716 -1.44E-03
     7 TBLite/Diag 0.40E+00    0.0     0.00574117       -16.6960056922 -7.13E-05
     8 TBLite/Diag 0.40E+00    0.0     0.00075121       -16.6960063145 -6.22E-07
     9 TBLite/Diag 0.40E+00    0.0     0.00008132       -16.6960063226 -8.09E-09
    10 TBLite/Diag 0.40E+00    0.0     0.00004068       -16.6960063252 -2.65E-09
    11 TBLite/Diag 0.40E+00    0.0     0.00000148       -16.6960063252  6.55E-12
    12 TBLite/Diag 0.40E+00    0.0     0.00000198       -16.6960063252 -8.53E-12
    13 TBLite/Diag 0.40E+00    0.0     0.00000039       -16.6960063252 -1.78E-13
    14 TBLite/Diag 0.40E+00    0.0     0.00000004       -16.6960063252  0.00E+00
    15 TBLite/Diag 0.40E+00    0.0     7.2485E-09       -16.6960063252  0.00E+00
    16 TBLite/Diag 0.40E+00    0.0     1.2497E-09       -16.6960063252 -3.55E-15
    17 TBLite/Diag 0.40E+00    0.0     1.3073E-09       -16.6960063252  0.00E+00
    18 TBLite/Diag 0.40E+00    0.0     6.3734E-11       -16.6960063252  7.11E-15

  *** SCF run converged in    18 steps ***


  Core Hamiltonian energy:                                    -16.95018421204766
  Repulsive potential energy:                                   0.20704661526191
  Electrostatic energy:                                         0.05293018814315
  Self-consistent dispersion energy:                           -0.00580090561288
  Non-self consistent dispersion energy:                        0.00000198902574
  Correction for halogen bonding:                               0.00000000000000
  Electronic entropic energy:                                  -0.00000000000000
  Fermi energy:                                                -0.33418993312343

  Total energy:                                               -16.69600632522975
  Total energy (extrapolated to T->0):                        -16.69600632522975

 ENERGY| Total FORCE_EVAL ( QS ) energy [hartree]            -16.696006325229753

 OPT| **************************************************************************
 OPT| Step number                                                              0
 OPT| Optimization method                                                   BFGS
 OPT| Total energy [hartree]                                      -16.6960063252
 OPT| Used time [s]                                                        0.017
 OPT| **************************************************************************
 OPT| Estimated peak process memory [MiB]                                    162

 --------------------------
 OPTIMIZATION STEP:      1
 --------------------------

 Extrapolation method: ASPC

 Number of electrons:                                                         30
 Number of occupied orbitals:                                                 15
 Number of molecular orbitals:                                                27

 Number of orbital functions:                                                 27
 Number of independent orbital functions:                                     27


 SCF WAVEFUNCTION OPTIMIZATION

  Step     Update method      Time    Convergence         Total energy    Change
  ------------------------------------------------------------------------------
     1 TBLite/Diag 0.40E+00    0.0     0.03021909       -16.6974835271 -1.67E+01
     2 TBLite/Diag 0.40E+00    0.0     0.00524456       -16.6975012457 -1.77E-05
     3 TBLite/Diag 0.40E+00    0.0     0.00297482       -16.6975028694 -1.62E-06
     4 TBLite/Diag 0.40E+00    0.0     0.00184494       -16.6975076825 -4.81E-06
     5 TBLite/Diag 0.40E+00    0.0     0.00013032       -16.6975077191 -3.66E-08
     6 TBLite/Diag 0.40E+00    0.0     0.00001746       -16.6975077196 -4.35E-10
     7 TBLite/Diag 0.40E+00    0.0     0.00000937       -16.6975077197 -8.98E-11
     8 TBLite/Diag 0.40E+00    0.0     0.00000348       -16.6975077197 -1.08E-11
     9 TBLite/Diag 0.40E+00    0.0     0.00000043       -16.6975077197 -1.39E-13
    10 TBLite/Diag 0.40E+00    0.0     0.00000013       -16.6975077197 -2.84E-14
    11 TBLite/Diag 0.40E+00    0.0     3.7777E-09       -16.6975077197 -7.11E-15
    12 TBLite/Diag 0.40E+00    0.0     3.9874E-10       -16.6975077197  1.07E-14

  *** SCF run converged in    12 steps ***


  Core Hamiltonian energy:                                    -16.96661817027605
  Repulsive potential energy:                                   0.22185784602288
  Electrostatic energy:                                         0.05306828105548
  Self-consistent dispersion energy:                           -0.00581759895491
  Non-self consistent dispersion energy:                        0.00000192248292
  Correction for halogen bonding:                               0.00000000000000
  Electronic entropic energy:                                  -0.00000000000000
  Fermi energy:                                                -0.33076364517219

  Total energy:                                               -16.69750771966967
  Total energy (extrapolated to T->0):                        -16.69750771966967

 ENERGY| Total FORCE_EVAL ( QS ) energy [hartree]            -16.697507719669673

 OPT| **************************************************************************
 OPT| Step number                                                              1
 OPT| Optimization method                                                   BFGS
 OPT| Total energy [hartree]                                      -16.6975077197
 OPT| Effective energy change [hartree]                            -0.0015013944
 OPT| Predicted energy change [hartree]                            -0.0012273699
 OPT| Scaling factor                                                0.0000000000
 OPT| Step size                                                     0.0303115304
 OPT| Trust radius                                                  0.4724315332
 OPT| Decrease in energy                                                     YES
 OPT| Used time [s]                                                        0.012
 OPT|
 OPT| Maximum step size                                             0.0303115304
 OPT| Convergence limit for maximum step size                       0.0030000000
 OPT| Maximum step size is converged                                          NO
 OPT|
 OPT| RMS step size                                                 0.0122539820
 OPT| Convergence limit for RMS step size                           0.0015000000
 OPT| RMS step size is converged                                              NO
 OPT|
 OPT| Maximum gradient                                              0.0057445137
 OPT| Convergence limit for maximum gradient                        0.0004500000
 OPT| Maximum gradient is converged                                           NO
 OPT|
 OPT| RMS gradient                                                  0.0022203863
 OPT| Convergence limit for RMS gradient                            0.0003000000
 OPT| RMS gradient is converged                                               NO
 OPT| **************************************************************************
 OPT| Estimated peak process memory after this step [MiB]                    163

 --------------------------
 OPTIMIZATION STEP:      2
 --------------------------

 Extrapolation method: ASPC

 Number of electrons:                                                         30
 Number of occupied orbitals:                                                 15
 Number of molecular orbitals:                                                27

 Number of orbital functions:                                                 27
 Number of independent orbital functions:                                     27


 SCF WAVEFUNCTION OPTIMIZATION

  Step     Update method      Time    Convergence         Total energy    Change
  ------------------------------------------------------------------------------
     1 TBLite/Diag 0.40E+00    0.0     0.00609171       -16.6976074490 -1.67E+01
     2 TBLite/Diag 0.40E+00    0.0     0.00136643       -16.6976099156 -2.47E-06
     3 TBLite/Diag 0.40E+00    0.0     0.00110051       -16.6976093014  6.14E-07
     4 TBLite/Diag 0.40E+00    0.0     0.00095711       -16.6976107507 -1.45E-06
     5 TBLite/Diag 0.40E+00    0.0     0.00009764       -16.6976107651 -1.44E-08
     6 TBLite/Diag 0.40E+00    0.0     0.00003140       -16.6976107662 -1.10E-09
     7 TBLite/Diag 0.40E+00    0.0     0.00000840       -16.6976107663 -6.84E-11
     8 TBLite/Diag 0.40E+00    0.0     0.00000197       -16.6976107663 -2.90E-12
     9 TBLite/Diag 0.40E+00    0.0     0.00000063       -16.6976107663 -3.30E-13
    10 TBLite/Diag 0.40E+00    0.0     0.00000012       -16.6976107663 -3.55E-14
    11 TBLite/Diag 0.40E+00    0.0     6.2688E-09       -16.6976107663  0.00E+00
    12 TBLite/Diag 0.40E+00    0.0     2.2097E-10       -16.6976107663  7.11E-15

  *** SCF run converged in    12 steps ***


  Core Hamiltonian energy:                                    -16.97320586502893
  Repulsive potential energy:                                   0.22873345110933
  Electrostatic energy:                                         0.05268904828865
  Self-consistent dispersion energy:                           -0.00582927494047
  Non-self consistent dispersion energy:                        0.00000187425474
  Correction for halogen bonding:                               0.00000000000000
  Electronic entropic energy:                                  -0.00000000000000
  Fermi energy:                                                -0.32994620326179

  Total energy:                                               -16.69761076631669
  Total energy (extrapolated to T->0):                        -16.69761076631669

 ENERGY| Total FORCE_EVAL ( QS ) energy [hartree]            -16.697610766316693

 OPT| **************************************************************************
 OPT| Step number                                                              2
 OPT| Optimization method                                                   BFGS
 OPT| Total energy [hartree]                                      -16.6976107663
 OPT| Effective energy change [hartree]                            -0.0001030466
 OPT| Predicted energy change [hartree]                            -0.0001918083
 OPT| Scaling factor                                                0.0000000000
 OPT| Step size                                                     0.0201087912
 OPT| Trust radius                                                  0.4724315332
 OPT| Decrease in energy                                                     YES
 OPT| Used time [s]                                                        0.012
 OPT|
 OPT| Maximum step size                                             0.0201087912
 OPT| Convergence limit for maximum step size                       0.0030000000
 OPT| Maximum step size is converged                                          NO
 OPT|
 OPT| RMS step size                                                 0.0088154477
 OPT| Convergence limit for RMS step size                           0.0015000000
 OPT| RMS step size is converged                                              NO
 OPT|
 OPT| Maximum gradient                                              0.0026476589
 OPT| Convergence limit for maximum gradient                        0.0004500000
 OPT| Maximum gradient is converged                                           NO
 OPT|
 OPT| RMS gradient                                                  0.0009858069
 OPT| Convergence limit for RMS gradient                            0.0003000000
 OPT| RMS gradient is converged                                               NO
 OPT| **************************************************************************
 OPT| Estimated peak process memory after this step [MiB]                    163

 --------------------------
 OPTIMIZATION STEP:      3
 --------------------------

 Extrapolation method: ASPC

 Number of electrons:                                                         30
 Number of occupied orbitals:                                                 15
 Number of molecular orbitals:                                                27

 Number of orbital functions:                                                 27
 Number of independent orbital functions:                                     27


 SCF WAVEFUNCTION OPTIMIZATION

  Step     Update method      Time    Convergence         Total energy    Change
  ------------------------------------------------------------------------------
     1 TBLite/Diag 0.40E+00    0.0     0.00486539       -16.6976462151 -1.67E+01
     2 TBLite/Diag 0.40E+00    0.0     0.00018134       -16.6976464634 -2.48E-07
     3 TBLite/Diag 0.40E+00    0.0     0.00021107       -16.6976465446 -8.12E-08
     4 TBLite/Diag 0.40E+00    0.0     0.00009389       -16.6976465570 -1.24E-08
     5 TBLite/Diag 0.40E+00    0.0     0.00003339       -16.6976465580 -9.69E-10
     6 TBLite/Diag 0.40E+00    0.0     0.00001015       -16.6976465581 -1.37E-10
     7 TBLite/Diag 0.40E+00    0.0     0.00000204       -16.6976465581 -2.35E-12
     8 TBLite/Diag 0.40E+00    0.0     0.00000016       -16.6976465581 -1.78E-14
     9 TBLite/Diag 0.40E+00    0.0     0.00000013       -16.6976465581  3.55E-15
    10 TBLite/Diag 0.40E+00    0.0     0.00000007       -16.6976465581  3.55E-15
    11 TBLite/Diag 0.40E+00    0.0     1.3652E-09       -16.6976465581 -1.42E-14
    12 TBLite/Diag 0.40E+00    0.0     1.0451E-10       -16.6976465581  3.55E-15

  *** SCF run converged in    12 steps ***


  Core Hamiltonian energy:                                    -16.97216562386136
  Repulsive potential energy:                                   0.22746838785581
  Electrostatic energy:                                         0.05287498364227
  Self-consistent dispersion energy:                           -0.00582619373874
  Non-self consistent dispersion energy:                        0.00000188800066
  Correction for halogen bonding:                               0.00000000000000
  Electronic entropic energy:                                  -0.00000000000000
  Fermi energy:                                                -0.32986981129807

  Total energy:                                               -16.69764655810136
  Total energy (extrapolated to T->0):                        -16.69764655810136

 ENERGY| Total FORCE_EVAL ( QS ) energy [hartree]            -16.697646558101358

 OPT| **************************************************************************
 OPT| Step number                                                              3
 OPT| Optimization method                                                   BFGS
 OPT| Total energy [hartree]                                      -16.6976465581
 OPT| Effective energy change [hartree]                            -0.0000357918
 OPT| Predicted energy change [hartree]                            -0.0000377248
 OPT| Scaling factor                                                0.0000000000
 OPT| Step size                                                     0.0075093963
 OPT| Trust radius                                                  0.4724315332
 OPT| Decrease in energy                                                     YES
 OPT| Used time [s]                                                        0.012
 OPT|
 OPT| Maximum step size                                             0.0075093963
 OPT| Convergence limit for maximum step size                       0.0030000000
 OPT| Maximum step size is converged                                          NO
 OPT|
 OPT| RMS step size                                                 0.0033025081
 OPT| Convergence limit for RMS step size                           0.0015000000
 OPT| RMS step size is converged                                              NO
 OPT|
 OPT| Maximum gradient                                              0.0003367839
 OPT| Convergence limit for maximum gradient                        0.0004500000
 OPT| Maximum gradient is converged                                          YES
 OPT|
 OPT| RMS gradient                                                  0.0001306429
 OPT| Convergence limit for RMS gradient                            0.0003000000
 OPT| RMS gradient is converged                                              YES
 OPT| **************************************************************************
 OPT| Estimated peak process memory after this step [MiB]                    163

 --------------------------
 OPTIMIZATION STEP:      4
 --------------------------

 Extrapolation method: ASPC

 Number of electrons:                                                         30
 Number of occupied orbitals:                                                 15
 Number of molecular orbitals:                                                27

 Number of orbital functions:                                                 27
 Number of independent orbital functions:                                     27


 SCF WAVEFUNCTION OPTIMIZATION

  Step     Update method      Time    Convergence         Total energy    Change
  ------------------------------------------------------------------------------
     1 TBLite/Diag 0.40E+00    0.0     0.00067683       -16.6976468923 -1.67E+01
     2 TBLite/Diag 0.40E+00    0.0     0.00009205       -16.6976468982 -5.86E-09
     3 TBLite/Diag 0.40E+00    0.0     0.00006302       -16.6976468972  1.00E-09
     4 TBLite/Diag 0.40E+00    0.0     0.00004217       -16.6976469003 -3.11E-09
     5 TBLite/Diag 0.40E+00    0.0     0.00000255       -16.6976469003 -5.96E-12
     6 TBLite/Diag 0.40E+00    0.0     0.00000028       -16.6976469003 -1.67E-13
     7 TBLite/Diag 0.40E+00    0.0     0.00000014       -16.6976469003 -2.13E-14
     8 TBLite/Diag 0.40E+00    0.0     0.00000005       -16.6976469003  7.11E-15
     9 TBLite/Diag 0.40E+00    0.0     0.00000001       -16.6976469003 -7.11E-15
    10 TBLite/Diag 0.40E+00    0.0     8.1453E-10       -16.6976469003 -3.55E-15

  *** SCF run converged in    10 steps ***


  Core Hamiltonian energy:                                    -16.97192626630774
  Repulsive potential energy:                                   0.22723929411613
  Electrostatic energy:                                         0.05286425285379
  Self-consistent dispersion energy:                           -0.00582606948069
  Non-self consistent dispersion energy:                        0.00000188849552
  Correction for halogen bonding:                               0.00000000000000
  Electronic entropic energy:                                  -0.00000000000000
  Fermi energy:                                                -0.32993170870401

  Total energy:                                               -16.69764690032298
  Total energy (extrapolated to T->0):                        -16.69764690032298

 ENERGY| Total FORCE_EVAL ( QS ) energy [hartree]            -16.697646900322983

 OPT| **************************************************************************
 OPT| Step number                                                              4
 OPT| Optimization method                                                   BFGS
 OPT| Total energy [hartree]                                      -16.6976469003
 OPT| Effective energy change [hartree]                            -0.0000003422
 OPT| Predicted energy change [hartree]                            -0.0000003823
 OPT| Scaling factor                                                0.0000000000
 OPT| Step size                                                     0.0006341618
 OPT| Trust radius                                                  0.4724315332
 OPT| Decrease in energy                                                     YES
 OPT| Used time [s]                                                        0.011
 OPT|
 OPT| Maximum step size                                             0.0006341618
 OPT| Convergence limit for maximum step size                       0.0030000000
 OPT| Maximum step size is converged                                         YES
 OPT|
 OPT| RMS step size                                                 0.0002302446
 OPT| Convergence limit for RMS step size                           0.0015000000
 OPT| RMS step size is converged                                             YES
 OPT|
 OPT| Maximum gradient                                              0.0000547754
 OPT| Convergence limit for maximum gradient                        0.0004500000
 OPT| Maximum gradient is converged                                          YES
 OPT|
 OPT| RMS gradient                                                  0.0000285296
 OPT| Convergence limit for RMS gradient                            0.0003000000
 OPT| RMS gradient is converged                                              YES
 OPT| **************************************************************************
 OPT| Estimated peak process memory after this step [MiB]                    163

 *******************************************************************************
 ***                    GEOMETRY OPTIMIZATION COMPLETED                      ***
 *******************************************************************************

 write_final_structure: Optimization converged, writing XYZ file gladly:
  triazine_GFN2_mol_geoopt-FINAL-1_4.xyz

 write_final_structure: Optimization converged, writing CIF file gladly:
  triazine_GFN2_mol_geoopt-FINAL-1_4.cif

 write_final_structure: Done!

                    Reevaluating energy at the minimum

 Extrapolation method: ASPC

 Number of electrons:                                                         30
 Number of occupied orbitals:                                                 15
 Number of molecular orbitals:                                                27

 Number of orbital functions:                                                 27
 Number of independent orbital functions:                                     27


 SCF WAVEFUNCTION OPTIMIZATION

  Step     Update method      Time    Convergence         Total energy    Change
  ------------------------------------------------------------------------------
     1 TBLite/Diag 0.40E+00    0.0     4.1622E-10       -16.6976469003 -1.67E+01

  *** SCF run converged in     1 steps ***


  Core Hamiltonian energy:                                    -16.97192626643997
  Repulsive potential energy:                                   0.22723929411613
  Electrostatic energy:                                         0.05286425298622
  Self-consistent dispersion energy:                           -0.00582606948091
  Non-self consistent dispersion energy:                        0.00000188849552
  Correction for halogen bonding:                               0.00000000000000
  Electronic entropic energy:                                  -0.00000000000000
  Fermi energy:                                                -0.32993170875836

  Total energy:                                               -16.69764690032300
  Total energy (extrapolated to T->0):                        -16.69764690032300

 ENERGY| Total FORCE_EVAL ( QS ) energy [hartree]            -16.697646900323001

 -------------------------------------------------------------------------------
 -                                                                             -
 -                                DBCSR STATISTICS                             -
 -                                                                             -
 -------------------------------------------------------------------------------
 COUNTER                                    TOTAL       BLAS       SMM       ACC
 flops     1 x    27 x     1                 7290       0.0%    100.0%      0.0%     
 flops     1 x     1 x    27                24300       0.0%    100.0%      0.0%     
 flops     1 x    27 x     4                58320       0.0%    100.0%      0.0%     
 flops     4 x    27 x     1                58320       0.0%    100.0%      0.0%     
 flops     1 x     4 x    27               145800       0.0%    100.0%      0.0%     
 flops     4 x     1 x    27               145800       0.0%    100.0%      0.0%     
 flops     4 x    27 x     4               466560       0.0%    100.0%      0.0%     
 flops     4 x     4 x    27              1360800       0.0%    100.0%      0.0%     
 flops inhomo. stacks                           0       0.0%      0.0%      0.0%
 flops total                         2.267190E+06       0.0%    100.0%      0.0%
 flops max/rank                      2.267190E+06       0.0%    100.0%      0.0%
 matmuls inhomo. stacks                         0       0.0%      0.0%      0.0%
 matmuls total                               4590       0.0%    100.0%      0.0%
 number of processed stacks                   360       0.0%    100.0%      0.0%
 average stack size                                     0.0      12.8       0.0
 marketing flops                     2.230740E+06
 -------------------------------------------------------------------------------
 # multiplications                             90
 max memory usage/rank              13.670207E+09
 # max total images/rank                        1
 # max 3D layers                                1
 # MPI messages exchanged                       0
 -------------------------------------------------------------------------------
 -                                                                             -
 -                      DBCSR MESSAGE PASSING PERFORMANCE                      -
 -                                                                             -
 -------------------------------------------------------------------------------
 ROUTINE             CALLS      AVE VOLUME [Bytes]
 MP_Bcast                9                     12.
 MP_Allreduce          455                      9.
 MP_Alltoall          3075                   4143.
 MP_ISend              360                    300.
 MP_IRecv              360                    300.
 -------------------------------------------------------------------------------

 -------------------------------------------------------------------------------
 -                                                                             -
 -                          OFFLOAD MEMPOOL STATISTICS                         -
 -                                                                             -
 -------------------------------------------------------------------------------
 Memory consumption                Number of allocations  Used [MiB]  Size [MiB]
 Device                                                1           0           0
 Host                                                  1           0           0
 -------------------------------------------------------------------------------

 MEMORY| Estimated peak process memory [MiB]                                 163

 -------------------------------------------------------------------------------
 -                                                                             -
 -                         MESSAGE PASSING PERFORMANCE                         -
 -                                                                             -
 -------------------------------------------------------------------------------

 ROUTINE             CALLS      AVE VOLUME [Bytes]
 MP_Group                1
 MP_Bcast              144                    114.
 MP_Allreduce         2279                     70.
 MP_Sync                76
 MP_comm_split          75
 -------------------------------------------------------------------------------


 -------------------------------------------------------------------------------
 -                                                                             -
 -                           R E F E R E N C E S                               -
 -                                                                             -
 -------------------------------------------------------------------------------
 
 CP2K version 2026.1 (Development Version), the CP2K developers group (2026).
 CP2K is freely available from https://www.cp2k.org/ .
 
 M. Iannuzzi, J. Wilhelm, F. Stein, A. Bussy, H. Elgabarty, D. Golze, A. Hehn, 
 M. Graml, S. Marek, B. Sertcan Gökmen, C. Schran, H. Forbert, R. Z. 
 Khaliullin, A. Kozhevnikov, M. Taillefumier, R. Meli, V. V. Rybkin, M. Brehm, 
 R. Schade, O. Schütt, J. V. Pototschnig, H. Mirhosseini, A. Knüpfer, D. Marx, 
 M. Krack, J. Hutter, T. D. Kühne.
 J. Phys. Chem. B 130, 1237-1310 (2026).
 The CP2K Program Package Made Simple.
 https://doi.org/10.1021/acs.jpcb.5c05851

 A. Katbashev, M. Stahn, T. Rose, V. Alizadeh, M. Friede, C. Plett, P. 
 Steinbach, S. Ehlert.
 J. Phys. Chem. A 129, 2667-2682 (2025).
 Overview on Building Blocks and Applications of Efficient and Robust Extended 
 Tight Binding.
 https://doi.org/10.1021/acs.jpca.4c08263

 T. D. Kühne, M. Iannuzzi, M. Del Ben, V. V. Rybkin, P. Seewald, F. Stein, T. 
 Laino, R. Z. Khaliullin, O. Schütt, F. Schiffmann, D. Golze, J. Wilhelm, S. 
 Chulkov, M. H. Bani-Hashemian, V. Weber, U. Borstnik, M. Taillefumier, A. S. 
 Jakobovits, A. Lazzaro, H. Pabst, T. Müller, R. Schade, M. Guidon, S. 
 Andermatt, N. Holmberg, G. K. Schenter, A. Hehn, A. Bussy, F. Belleflamme, G. 
 Tabacchi, A. Glöß, M. Lass, I. Bethune, C. J. Mundy, C. Plessl, M. Watkins, 
 J. VandeVondele, M. Krack, J. Hutter.
 J. Chem. Phys. 152, 194103 (2020).
 CP2K: An electronic structure and molecular dynamics software package - 
 Quickstep: Efficient and accurate electronic structure calculations.
 https://doi.org/10.1063/5.0007045

 P. Pracht, E. Caldeweyher, S. Ehlert, S. Grimme.
 ChemRxiv, (2019).
 A Robust Non-Self-Consistent Tight-Binding Quantum Chemistry Method for large 
 Molecules.
 https://doi.org/10.26434/chemrxiv.8326202.v1

 S. Grimme, C. Bannwarth, P. Shushkov.
 J. Chem. Theory Comput. 13, 1989 (2017).
 A Robust and Accurate Tight-Binding Quantum Chemical Method for Structures, 
 Vibrational Frequencies, and Noncovalent Interactions of Large Molecular 
 Systems Parametrized for All spd-Block Elements (Z = 1-86).
 https://doi.org/10.1021/acs.jctc.7b00118

 O. Schuett, P. Messmer, J. Hutter, J. VandeVondele.
 Electronic Structure Calculations on Graphics Processing Units, 173-190 (2016).
 GPU-Accelerated Sparse Matrix-Matrix Multiplication for Linear Scaling Density 
 Functional Theory.
 https://doi.org/10.1002/9781118670712.ch8

 A. Heinecke, G. Henry, M. Hutchinson, H. Pabst.
 Proceedings of Intl. Supercomputing Conference, 981-991 (2016).
 LIBXSMM: Accelerating Small Matrix Multiplications by Runtime Code Generation.
 https://doi.org/10.1109/SC.2016.83

 U. Borstnik, J. VandeVondele, V. Weber, J. Hutter.
 Parallel Comput. 40, 47-58 (2014).
 Sparse matrix multiplication: The distributed block-compressed sparse row 
 library.
 https://doi.org/10.1016/j.parco.2014.03.012

 T. D. Kühne, M. Krack, F. R. Mohamed, M. Parrinello.
 Phys. Rev. Lett. 98, 066401 (2007).
 Efficient and accurate Car-Parrinello-like approach to Born-Oppenheimer 
 molecular dynamics.
 https://doi.org/10.1103/PhysRevLett.98.066401

 M. Frigo, S. G. Johnson.
 Proc. IEEE 93, 216-231 (2005).
 The design and implementation of FFTW3.
 https://doi.org/10.1109/JPROC.2004.840301

 J. Kolafa.
 J. Comput. Chem. 25, 335-342 (2004).
 Time-reversible always stable predictor-corrector method for molecular dynamics 
 of polarizable molecules.
 https://doi.org/10.1002/jcc.10385

 N. D. Mermin.
 Phys. Rev. 137, A1441-A1443 (1965).
 Thermal Properties of the Inhomogeneous Electron Gas.
 https://doi.org/10.1103/PhysRev.137.A1441


 -------------------------------------------------------------------------------
 -                                                                             -
 -                                T I M I N G                                  -
 -                                                                             -
 -------------------------------------------------------------------------------
 SUBROUTINE                       CALLS  ASD         SELF TIME        TOTAL TIME
                                MAXIMUM       AVERAGE  MAXIMUM  AVERAGE  MAXIMUM
 CP2K                                 1  1.0    0.001    0.001    0.072    0.072
 cp_geo_opt                           1  2.0    0.000    0.000    0.068    0.068
 geoopt_bfgs                          1  3.0    0.000    0.000    0.067    0.067
 cp_eval_at                           6  4.0    0.000    0.000    0.065    0.065
 qs_forces                            5  5.0    0.000    0.000    0.061    0.061
 qs_energies                          6  5.8    0.000    0.000    0.059    0.059
 scf_env_do_scf                       6  6.8    0.000    0.000    0.047    0.047
 scf_env_do_scf_inner_loop           65  8.0    0.004    0.004    0.047    0.047
 qs_scf_new_mos                      65  9.0    0.000    0.000    0.034    0.034
 cp_dbcsr_plus_fm_fm_t               75 10.8    0.000    0.000    0.018    0.018
 calculate_dm_sparse                 70 10.0    0.000    0.000    0.017    0.017
 dbcsr_multiply_generic              90 11.9    0.001    0.001    0.015    0.015
 copy_dbcsr_to_fm                   145 10.4    0.000    0.000    0.010    0.010
 rebuild_ks_matrix                   70  9.8    0.000    0.000    0.009    0.009
 build_tblite_ks_matrix              70 10.8    0.008    0.008    0.009    0.009
 make_m2s                           180 12.9    0.001    0.001    0.009    0.009
 dbcsr_complete_redistribute        310 12.2    0.004    0.004    0.009    0.009
 qs_ks_update_qs_env                 65  9.0    0.000    0.000    0.007    0.007
 eigensolver                         65 10.0    0.001    0.001    0.007    0.007
 cp_fm_syevd                         75 10.6    0.000    0.000    0.006    0.006
 init_scf_run                         6  6.8    0.000    0.000    0.006    0.006
 build_tblite_matrices               11  7.0    0.002    0.002    0.006    0.006
 qs_diis_b_step                      59 10.0    0.000    0.000    0.006    0.006
 scf_env_initial_rho_setup            6  7.8    0.000    0.000    0.005    0.005
 wfi_extrapolate                      6  8.8    0.000    0.000    0.005    0.005
 copy_fm_to_dbcsr                   165 11.8    0.000    0.000    0.005    0.005
 cp_fm_syevd_base                    75 11.6    0.004    0.004    0.004    0.004
 make_images                        180 13.9    0.001    0.001    0.004    0.004
 qs_energies_init_hamiltonians        6  6.8    0.000    0.000    0.004    0.004
 tb_get_multipole                    11  8.0    0.002    0.002    0.003    0.003
 dbcsr_finalize                    1736 12.1    0.001    0.001    0.003    0.003
 cp_dbcsr_sm_fm_multiply             15 10.3    0.000    0.000    0.003    0.003
 multiply_cannon                     90 12.9    0.001    0.001    0.003    0.003
 dbcsr_create_new                  2395 13.0    0.002    0.002    0.003    0.003
 qs_init_subsys                       1  2.0    0.000    0.000    0.003    0.003
 qs_ks_update_qs_env_forces           5  6.0    0.000    0.000    0.002    0.002
 dbcsr_crop_matrix                  150 13.8    0.000    0.000    0.002    0.002
 dbcsr_desymmetrize_deep            145 11.4    0.001    0.001    0.002    0.002
 dbcsr_copy_submatrix               150 14.8    0.001    0.001    0.002    0.002
 reorthogonalize_vectors              5  9.8    0.000    0.000    0.002    0.002
 make_basis_lowdin                    5 10.8    0.000    0.000    0.002    0.002
 cp_dbcsr_sm_fm_multiply_core        15 11.3    0.000    0.000    0.002    0.002
 dbcsr_iterator_start              4038 12.6    0.001    0.001    0.002    0.002
 dbcsr_merge_all                    535 14.9    0.001    0.001    0.002    0.002
 parallel_gemm_fm_gemm              153 10.6    0.000    0.000    0.002    0.002
 cp_fm_gemm                         153 11.6    0.002    0.002    0.002    0.002
 cp_fm_redistribute_start            75 11.6    0.001    0.001    0.002    0.002
 -------------------------------------------------------------------------------

 The number of warnings for this run is : 0
 
 -------------------------------------------------------------------------------
  **** **** ******  **  PROGRAM ENDED AT                 2026-05-23 22:46:21.238
 ***** ** ***  *** **   PROGRAM RAN ON                                spark-c86c
 **    ****   ******    PROGRAM RAN BY                                  kuehne88
 ***** **    ** ** **   PROGRAM PROCESS ID                               2229692
  **** **  *******  **  PROGRAM STOPPED IN /home/kuehne88/periodic-gfn2-benchmar
                                           ks/X23b/runs/molecule_geoopt/GFN2/tri
                                           azine_GFN2_mol_geoopt
