 DBCSR| CPU Multiplication driver                                           XSMM (U)
 DBCSR| Multrec recursion limit                                              512 (U)
 DBCSR| Multiplication stack size                                           1000 (D)
 DBCSR| Maximum elements for images                                    UNLIMITED (U)
 DBCSR| Multiplicative factor virtual images                                   1 (U)
 DBCSR| Use multiplication densification                                       T (D)
 DBCSR| Multiplication size stacks                                             3 (U)
 DBCSR| Use memory pool for CPU allocation                                     F (U)
 DBCSR| Number of 3D layers                                               SINGLE (U)
 DBCSR| Use MPI memory allocation                                              F (U)
 DBCSR| Use RMA algorithm                                                      F (U)
 DBCSR| Use Communication thread                                               T (U)
 DBCSR| Communication thread load                                             87 (D)
 DBCSR| MPI: My process id                                                     0
 DBCSR| MPI: Number of processes                                               1
 DBCSR| OMP: Current number of threads                                         1
 DBCSR| OMP: Max number of threads                                             1
 DBCSR| Split modifier for TAS multiplication algorithm                  1.0E+00 (U)


  **** **** ******  **  PROGRAM STARTED AT               2026-05-23 22:47:02.494
 ***** ** ***  *** **   PROGRAM STARTED ON                            spark-c86c
 **    ****   ******    PROGRAM STARTED BY                              kuehne88
 ***** **    ** ** **   PROGRAM PROCESS ID                               2267029
  **** **  *******  **  PROGRAM STARTED IN /home/kuehne88/periodic-gfn2-benchmar
                                           ks/X23b/runs/cellopt_gamma/GFN1/triox
                                           ane_GFN1_gamma_cellopt

 CP2K| version string:                 CP2K version 2026.1 (Development Version)
 CP2K| source code revision number:                                   0622d442e4
 CP2K| cp2kflags: omp fftw3 libxc parallel scalapack mpi_f08 xsmm spglib libdftd
 CP2K|            4 dftd4_v3 mctc-lib tblite
 CP2K| is freely available from                            https://www.cp2k.org/
 CP2K| Program compiled at                                   2026-05-23 22:05:08
 CP2K| Program compiled on                                            spark-c86c
 CP2K| Program compiled for                                              aarch64
 CP2K| Data directory path    /home/kuehne88/cp2k-master-tblite-20260523/install
 CP2K| Input file name                           trioxane_GFN1_gamma_cellopt.inp

 GLOBAL| Force Environment number                                              1
 GLOBAL| Basis set file name                                           BASIS_SET
 GLOBAL| Potential file name                                           POTENTIAL
 GLOBAL| MM Potential file name                                     MM_POTENTIAL
 GLOBAL| Coordinate file name                                      __STD_INPUT__
 GLOBAL| Method name                                                        CP2K
 GLOBAL| Project name                               trioxane_GFN1_gamma_cell_opt
 GLOBAL| Run type                                                       CELL_OPT
 GLOBAL| FFT library                                                       FFTW3
 GLOBAL| Diagonalization library                                       ScaLAPACK
 GLOBAL| Cholesky decomposition library                                ScaLAPACK
 GLOBAL| DGEMM library                                                      BLAS
 GLOBAL| Direct generalized diagonalization requested                          F
 GLOBAL| Orthonormality check for eigenvectors                          DISABLED
 GLOBAL| Matrix multiplication library                                 ScaLAPACK
 GLOBAL| All-to-all communication in single precision                          F
 GLOBAL| FFTs using library dependent lengths                                  F
 GLOBAL| Grid backend                                                       AUTO
 GLOBAL| Global print level                                                  LOW
 GLOBAL| MPI I/O enabled                                                       T
 GLOBAL| Total number of message passing processes                             1
 GLOBAL| Number of distributed systems (nodes)                                 1
 GLOBAL| Number of threads for this process                                    1
 GLOBAL| This output is from process                                           0
 GLOBAL| OpenMP stack size per thread (OMP_STACKSIZE)                    default
 GLOBAL| CPU model name                                                  UNKNOWN
 GLOBAL| CPUID                                                              2200
 GLOBAL| Compiled for CPUID                                                 2000

 *** HINT in environment.F:970 :: The compiler target flags (arm_arch64)   ***
 *** used to build this binary cannot exploit all extensions of this CPU   ***
 *** model (arm_sve256). Consider compiler target flags as part of FCFLAGS ***
 *** and CFLAGS (ARCH file).                                               ***


 MEMORY| system memory details [Kb]
 MEMORY|                        rank 0           min           max       average
 MEMORY| MemTotal            125508532     125508532     125508532     125508532
 MEMORY| MemFree             103536452     103536452     103536452     103536452
 MEMORY| Buffers                867624        867624        867624        867624
 MEMORY| Cached               14021748      14021748      14021748      14021748
 MEMORY| Slab                  1593124       1593124       1593124       1593124
 MEMORY| SReclaimable           914580        914580        914580        914580
 MEMORY| MemLikelyFree       119340404     119340404     119340404     119340404


 GENERATE|  Preliminary Number of Bonds generated:                             0
 GENERATE|  Achieved consistency in connectivity generation.


                  #####   #####        #     #   #     #       #          
                 #     # #     #      #    ##### #     #   # #####  ####  
                 #     # #           #       #   ###   #       #   #    # 
                 #     #  #####     #        #   #  #  #   #   #   ###### 
                 #   # #       #   #         #   #   # #   #   #   #      
                 #    #  #     #  #          #   #  #  # # #   #    #   # 
                  #### #  #####  #           #   ###   ##  #   #     ###  

                                   GFN1-xTB  
                                 Version 0.0                       
                            Johann V. Pototschnig                  



 TOTAL NUMBERS AND MAXIMUM NUMBERS

  Total number of            - Atomic kinds:                                   3
                             - Atoms:                                         72
                             - Shell sets:                                   144
                             - Shells:                                       144
                             - Primitive Cartesian functions:                828
                             - Cartesian basis functions:                    216
                             - Spherical basis functions:                    216

  Maximum angular momentum of the orbital basis functions:                     1


 SCF PARAMETERS         Density guess:                                     MOPAC
                        --------------------------------------------------------
                        max_scf:                                             300
                        max_scf_history:                                       0
                        max_diis:                                              4
                        --------------------------------------------------------
                        eps_scf:                                        1.00E-09
                        eps_scf_history:                                0.00E+00
                        eps_diis:                                       1.00E-01
                        eps_eigval:                                     1.00E-05
                        --------------------------------------------------------
                        level_shift [a.u.]:                             0.000000
                        added MOs                                       108    0
                        --------------------------------------------------------
                        Mixing method:                           DIRECT_P_MIXING
                        --------------------------------------------------------
                        Smear method:                                FERMI_DIRAC
                        Electronic temperature [K]:                        300.0
                        Electronic temperature [a.u.]:                  9.50E-04
                        Accuracy threshold:                             1.00E-06
                        --------------------------------------------------------
                        No outer SCF

 CELL_OPT| Pressure tolerance [bar]:                                       100.0
 CELL_OPT| Keep volume of cell:                                               NO
 CELL_OPT| Keep angles between the cell vectors:                              NO
 CELL_OPT| Keep cell symmetry:                                                NO
 CELL_OPT| Constraint:                                                      NONE

 BFGS| Use rational function optimization for step estimation:                NO
 BFGS| Use model Hessian for initial guess:                                   NO
 BFGS| Restart Hessian:                                                       NO
 BFGS| Trust radius:                                                       0.472

 *******************************************************************************
 ***                     STARTING   CELL   OPTIMIZATION                      ***
 ***                                   BFGS                                  ***
 *******************************************************************************

 CELL| Volume [angstrom^3]:                                           616.544469
 CELL| Vector a [angstrom]:       9.320     0.000     0.000   |a| =     9.320000
 CELL| Vector b [angstrom]:      -4.660     8.071     0.000   |b| =     9.320000
 CELL| Vector c [angstrom]:       0.000     0.000     8.196   |c| =     8.196000
 CELL| Angle (b,c), alpha [degree]:                                    90.000000
 CELL| Angle (a,c), beta  [degree]:                                    90.000000
 CELL| Angle (a,b), gamma [degree]:                                   120.000000
 CELL| Numerically orthorhombic:                                              NO
 CELL| Periodicity                                                           XYZ

 Extrapolation method: initial_guess

 Number of electrons:                                                        216
 Number of occupied orbitals:                                                108
 Number of molecular orbitals:                                               216

 Number of orbital functions:                                                216
 Number of independent orbital functions:                                    216


 SCF WAVEFUNCTION OPTIMIZATION

  Step     Update method      Time    Convergence         Total energy    Change
  ------------------------------------------------------------------------------
     1 TBLite/Diag 0.40E+00    0.0     1.55337904      -140.2597866902 -1.40E+02
     2 TBLite/Diag 0.40E+00    0.0     0.24165470      -142.2011825483 -1.94E+00
     3 TBLite/Diag 0.40E+00    0.0     0.05630092      -142.2441118560 -4.29E-02
     4 TBLite/Diag 0.40E+00    0.0     0.02090473      -142.2461493973 -2.04E-03
     5 TBLite/Diag 0.40E+00    0.0     0.01581793      -142.2471638490 -1.01E-03
     6 TBLite/Diag 0.40E+00    0.0     0.00808728      -142.2489860896 -1.82E-03
     7 TBLite/Diag 0.40E+00    0.0     0.00067721      -142.2489934839 -7.39E-06
     8 TBLite/Diag 0.40E+00    0.0     0.00018861      -142.2489943096 -8.26E-07
     9 TBLite/Diag 0.40E+00    0.0     0.00002104      -142.2489943287 -1.91E-08
    10 TBLite/Diag 0.40E+00    0.0     0.00000370      -142.2489943292 -5.14E-10
    11 TBLite/Diag 0.40E+00    0.0     0.00000030      -142.2489943292 -2.70E-12
    12 TBLite/Diag 0.40E+00    0.0     4.0783E-11      -142.2489943292  5.68E-14

  *** SCF run converged in    12 steps ***


  Core Hamiltonian energy:                                   -143.87414068676293
  Repulsive potential energy:                                   1.00017328274524
  Electrostatic energy:                                         0.72699621465756
  Self-consistent dispersion energy:                            0.00000000000000
  Non-self consistent dispersion energy:                       -0.10202313986260
  Correction for halogen bonding:                               0.00000000000000
  Electronic entropic energy:                                  -0.00000000000000
  Fermi energy:                                                -0.16932572864535

  Total energy:                                              -142.24899432922274
  Total energy (extrapolated to T->0):                       -142.24899432922274

 ENERGY| Total FORCE_EVAL ( QS ) energy [hartree]           -142.248994329222739

 OPT| **************************************************************************
 OPT| Step number                                                              0
 OPT| Optimization method                                                   BFGS
 OPT| Total energy [hartree]                                     -142.2489943292
 OPT| Internal pressure [bar]                                   33002.3013502247
 OPT| Used time [s]                                                        1.457
 OPT| **************************************************************************
 OPT| Estimated peak process memory [MiB]                                    178

 --------------------------
 OPTIMIZATION STEP:      1
 --------------------------

 CELL| Volume [angstrom^3]:                                           619.938054
 CELL| Vector a [angstrom]:       9.333     0.000     0.000   |a| =     9.332618
 CELL| Vector b [angstrom]:      -4.660     8.086     0.000   |b| =     9.332621
 CELL| Vector c [angstrom]:       0.000    -0.000     8.215   |c| =     8.215140
 CELL| Angle (b,c), alpha [degree]:                                    90.000000
 CELL| Angle (a,c), beta  [degree]:                                    90.000000
 CELL| Angle (a,b), gamma [degree]:                                   119.955274
 CELL| Numerically orthorhombic:                                              NO
 CELL| Periodicity                                                           XYZ

 Extrapolation method: ASPC

 Number of electrons:                                                        216
 Number of occupied orbitals:                                                108
 Number of molecular orbitals:                                               216

 Number of orbital functions:                                                216
 Number of independent orbital functions:                                    216


 SCF WAVEFUNCTION OPTIMIZATION

  Step     Update method      Time    Convergence         Total energy    Change
  ------------------------------------------------------------------------------
     1 TBLite/Diag 0.40E+00    0.0     0.02654538      -142.2866506587 -1.42E+02
     2 TBLite/Diag 0.40E+00    0.0     0.00314523      -142.2869019345 -2.51E-04
     3 TBLite/Diag 0.40E+00    0.0     0.00088948      -142.2869210870 -1.92E-05
     4 TBLite/Diag 0.40E+00    0.0     0.00019127      -142.2869213556 -2.69E-07
     5 TBLite/Diag 0.40E+00    0.0     0.00004502      -142.2869213731 -1.75E-08
     6 TBLite/Diag 0.40E+00    0.0     0.00000842      -142.2869213739 -7.94E-10
     7 TBLite/Diag 0.40E+00    0.0     0.00000027      -142.2869213739 -1.88E-12
     8 TBLite/Diag 0.40E+00    0.0     0.00000002      -142.2869213739 -1.42E-13
     9 TBLite/Diag 0.40E+00    0.0     8.2250E-09      -142.2869213739  3.41E-13
    10 TBLite/Diag 0.40E+00    0.0     4.4508E-10      -142.2869213739 -3.13E-13

  *** SCF run converged in    10 steps ***


  Core Hamiltonian energy:                                   -143.79041957431650
  Repulsive potential energy:                                   0.89399033339688
  Electrostatic energy:                                         0.71091634886775
  Self-consistent dispersion energy:                            0.00000000000000
  Non-self consistent dispersion energy:                       -0.10140848180053
  Correction for halogen bonding:                               0.00000000000000
  Electronic entropic energy:                                  -0.00000000000000
  Fermi energy:                                                -0.16970227284418

  Total energy:                                              -142.28692137385238
  Total energy (extrapolated to T->0):                       -142.28692137385238

 ENERGY| Total FORCE_EVAL ( QS ) energy [hartree]           -142.286921373852380

 OPT| **************************************************************************
 OPT| Step number                                                              1
 OPT| Optimization method                                                   BFGS
 OPT| Total energy [hartree]                                     -142.2869213739
 OPT| Internal pressure [bar]                                   17755.2143917696
 OPT| Effective energy change [hartree]                            -0.0379270446
 OPT| Predicted energy change [hartree]                            -0.0283637533
 OPT| Scaling factor                                                0.0000000000
 OPT| Step size                                                     0.0361687840
 OPT| Trust radius                                                  0.4724315332
 OPT| Decrease in energy                                                     YES
 OPT| Used time [s]                                                        1.408
 OPT|
 OPT| Maximum step size                                             0.0361687840
 OPT| Convergence limit for maximum step size                       0.0030000000
 OPT| Maximum step size is converged                                          NO
 OPT|
 OPT| RMS step size                                                 0.0159852841
 OPT| Convergence limit for RMS step size                           0.0015000000
 OPT| RMS step size is converged                                              NO
 OPT|
 OPT| Maximum gradient                                              0.0242848777
 OPT| Convergence limit for maximum gradient                        0.0004500000
 OPT| Maximum gradient is converged                                           NO
 OPT|
 OPT| RMS gradient                                                  0.0068548220
 OPT| Convergence limit for RMS gradient                            0.0003000000
 OPT| RMS gradient is converged                                               NO
 OPT|
 OPT| Pressure deviation [bar]                                  17755.2143917696
 OPT| Pressure tolerance [bar]                                    100.0000000000
 OPT| Pressure is converged                                                   NO
 OPT| **************************************************************************
 OPT| Estimated peak process memory after this step [MiB]                    181

 --------------------------
 OPTIMIZATION STEP:      2
 --------------------------

 CELL| Volume [angstrom^3]:                                           623.108411
 CELL| Vector a [angstrom]:       9.352     0.000     0.000   |a| =     9.351927
 CELL| Vector b [angstrom]:      -4.661     8.108     0.000   |b| =     9.351936
 CELL| Vector c [angstrom]:       0.000    -0.000     8.218   |c| =     8.217917
 CELL| Angle (b,c), alpha [degree]:                                    90.000419
 CELL| Angle (a,c), beta  [degree]:                                    89.999581
 CELL| Angle (a,b), gamma [degree]:                                   119.892696
 CELL| Numerically orthorhombic:                                              NO
 CELL| Periodicity                                                           XYZ

 Extrapolation method: ASPC

 Number of electrons:                                                        216
 Number of occupied orbitals:                                                108
 Number of molecular orbitals:                                               216

 Number of orbital functions:                                                216
 Number of independent orbital functions:                                    216


 SCF WAVEFUNCTION OPTIMIZATION

  Step     Update method      Time    Convergence         Total energy    Change
  ------------------------------------------------------------------------------
     1 TBLite/Diag 0.40E+00    0.0     0.01582954      -142.3000460805 -1.42E+02
     2 TBLite/Diag 0.40E+00    0.0     0.00186316      -142.3001304575 -8.44E-05
     3 TBLite/Diag 0.40E+00    0.0     0.00039297      -142.3001347896 -4.33E-06
     4 TBLite/Diag 0.40E+00    0.0     0.00013517      -142.3001348685 -7.88E-08
     5 TBLite/Diag 0.40E+00    0.0     0.00003449      -142.3001348911 -2.27E-08
     6 TBLite/Diag 0.40E+00    0.0     0.00000442      -142.3001348914 -2.32E-10
     7 TBLite/Diag 0.40E+00    0.0     0.00000024      -142.3001348914 -9.95E-13
     8 TBLite/Diag 0.40E+00    0.0     0.00000001      -142.3001348914 -5.12E-13
     9 TBLite/Diag 0.40E+00    0.0     6.0178E-09      -142.3001348914  8.53E-14
    10 TBLite/Diag 0.40E+00    0.0     3.6143E-10      -142.3001348914  2.84E-14

  *** SCF run converged in    10 steps ***


  Core Hamiltonian energy:                                   -143.74550084570217
  Repulsive potential energy:                                   0.84104446559736
  Electrostatic energy:                                         0.70519929992159
  Self-consistent dispersion energy:                            0.00000000000000
  Non-self consistent dispersion energy:                       -0.10087781120003
  Correction for halogen bonding:                               0.00000000000000
  Electronic entropic energy:                                  -0.00000000000000
  Fermi energy:                                                -0.17040449822717

  Total energy:                                              -142.30013489138327
  Total energy (extrapolated to T->0):                       -142.30013489138327

 ENERGY| Total FORCE_EVAL ( QS ) energy [hartree]           -142.300134891383266

 OPT| **************************************************************************
 OPT| Step number                                                              2
 OPT| Optimization method                                                   BFGS
 OPT| Total energy [hartree]                                     -142.3001348914
 OPT| Internal pressure [bar]                                    5825.2017607448
 OPT| Effective energy change [hartree]                            -0.0132135175
 OPT| Predicted energy change [hartree]                            -0.0094451056
 OPT| Scaling factor                                                0.0000000000
 OPT| Step size                                                     0.0412520954
 OPT| Trust radius                                                  0.4724315332
 OPT| Decrease in energy                                                     YES
 OPT| Used time [s]                                                        1.386
 OPT|
 OPT| Maximum step size                                             0.0412520954
 OPT| Convergence limit for maximum step size                       0.0030000000
 OPT| Maximum step size is converged                                          NO
 OPT|
 OPT| RMS step size                                                 0.0124948997
 OPT| Convergence limit for RMS step size                           0.0015000000
 OPT| RMS step size is converged                                              NO
 OPT|
 OPT| Maximum gradient                                              0.0160803825
 OPT| Convergence limit for maximum gradient                        0.0004500000
 OPT| Maximum gradient is converged                                           NO
 OPT|
 OPT| RMS gradient                                                  0.0048680992
 OPT| Convergence limit for RMS gradient                            0.0003000000
 OPT| RMS gradient is converged                                               NO
 OPT|
 OPT| Pressure deviation [bar]                                   5825.2017607448
 OPT| Pressure tolerance [bar]                                    100.0000000000
 OPT| Pressure is converged                                                   NO
 OPT| **************************************************************************
 OPT| Estimated peak process memory after this step [MiB]                    182

 --------------------------
 OPTIMIZATION STEP:      3
 --------------------------

 CELL| Volume [angstrom^3]:                                           625.891406
 CELL| Vector a [angstrom]:       9.375     0.000     0.000   |a| =     9.374949
 CELL| Vector b [angstrom]:      -4.663     8.133     0.000   |b| =     9.374969
 CELL| Vector c [angstrom]:       0.000    -0.000     8.209   |c| =     8.208643
 CELL| Angle (b,c), alpha [degree]:                                    90.001492
 CELL| Angle (a,c), beta  [degree]:                                    89.998508
 CELL| Angle (a,b), gamma [degree]:                                   119.826135
 CELL| Numerically orthorhombic:                                              NO
 CELL| Periodicity                                                           XYZ

 Extrapolation method: ASPC

 Number of electrons:                                                        216
 Number of occupied orbitals:                                                108
 Number of molecular orbitals:                                               216

 Number of orbital functions:                                                216
 Number of independent orbital functions:                                    216


 SCF WAVEFUNCTION OPTIMIZATION

  Step     Update method      Time    Convergence         Total energy    Change
  ------------------------------------------------------------------------------
     1 TBLite/Diag 0.40E+00    0.0     0.00856373      -142.3091389904 -1.42E+02
     2 TBLite/Diag 0.40E+00    0.0     0.00097521      -142.3091649503 -2.60E-05
     3 TBLite/Diag 0.40E+00    0.0     0.00012449      -142.3091654152 -4.65E-07
     4 TBLite/Diag 0.40E+00    0.0     0.00005863      -142.3091654102  4.95E-09
     5 TBLite/Diag 0.40E+00    0.0     0.00002850      -142.3091654278 -1.76E-08
     6 TBLite/Diag 0.40E+00    0.0     0.00000073      -142.3091654278 -6.85E-12
     7 TBLite/Diag 0.40E+00    0.0     0.00000022      -142.3091654278 -3.41E-13
     8 TBLite/Diag 0.40E+00    0.0     7.5815E-09      -142.3091654278  5.68E-14
     9 TBLite/Diag 0.40E+00    0.0     2.2491E-09      -142.3091654278  1.14E-13
    10 TBLite/Diag 0.40E+00    0.0     4.9134E-10      -142.3091654278 -2.84E-14

  *** SCF run converged in    10 steps ***


  Core Hamiltonian energy:                                   -143.72286112313495
  Repulsive potential energy:                                   0.80888878047910
  Electrostatic energy:                                         0.70524306909936
  Self-consistent dispersion energy:                            0.00000000000000
  Non-self consistent dispersion energy:                       -0.10043615421536
  Correction for halogen bonding:                               0.00000000000000
  Electronic entropic energy:                                  -0.00000000000000
  Fermi energy:                                                -0.17122119773122

  Total energy:                                              -142.30916542777183
  Total energy (extrapolated to T->0):                       -142.30916542777183

 ENERGY| Total FORCE_EVAL ( QS ) energy [hartree]           -142.309165427771831

 OPT| **************************************************************************
 OPT| Step number                                                              3
 OPT| Optimization method                                                   BFGS
 OPT| Total energy [hartree]                                     -142.3091654278
 OPT| Internal pressure [bar]                                   -5226.9252503395
 OPT| Effective energy change [hartree]                            -0.0090305364
 OPT| Predicted energy change [hartree]                            -0.0060925171
 OPT| Scaling factor                                                0.0000000000
 OPT| Step size                                                     0.0479830486
 OPT| Trust radius                                                  0.4724315332
 OPT| Decrease in energy                                                     YES
 OPT| Used time [s]                                                        0.750
 OPT|
 OPT| Maximum step size                                             0.0479830486
 OPT| Convergence limit for maximum step size                       0.0030000000
 OPT| Maximum step size is converged                                          NO
 OPT|
 OPT| RMS step size                                                 0.0135124343
 OPT| Convergence limit for RMS step size                           0.0015000000
 OPT| RMS step size is converged                                              NO
 OPT|
 OPT| Maximum gradient                                              0.0219274445
 OPT| Convergence limit for maximum gradient                        0.0004500000
 OPT| Maximum gradient is converged                                           NO
 OPT|
 OPT| RMS gradient                                                  0.0047846270
 OPT| Convergence limit for RMS gradient                            0.0003000000
 OPT| RMS gradient is converged                                               NO
 OPT|
 OPT| Pressure deviation [bar]                                  -5226.9252503395
 OPT| Pressure tolerance [bar]                                    100.0000000000
 OPT| Pressure is converged                                                   NO
 OPT| **************************************************************************
 OPT| Estimated peak process memory after this step [MiB]                    183

 --------------------------
 OPTIMIZATION STEP:      4
 --------------------------

 CELL| Volume [angstrom^3]:                                           627.687316
 CELL| Vector a [angstrom]:       9.399     0.000     0.000   |a| =     9.398765
 CELL| Vector b [angstrom]:      -4.667     8.158     0.000   |b| =     9.398806
 CELL| Vector c [angstrom]:       0.000    -0.000     8.186   |c| =     8.185909
 CELL| Angle (b,c), alpha [degree]:                                    90.003377
 CELL| Angle (a,c), beta  [degree]:                                    89.996622
 CELL| Angle (a,b), gamma [degree]:                                   119.769897
 CELL| Numerically orthorhombic:                                              NO
 CELL| Periodicity                                                           XYZ

 Extrapolation method: ASPC

 Number of electrons:                                                        216
 Number of occupied orbitals:                                                108
 Number of molecular orbitals:                                               216

 Number of orbital functions:                                                216
 Number of independent orbital functions:                                    216


 SCF WAVEFUNCTION OPTIMIZATION

  Step     Update method      Time    Convergence         Total energy    Change
  ------------------------------------------------------------------------------
     1 TBLite/Diag 0.40E+00    0.0     0.00951399      -142.3173505719 -1.42E+02
     2 TBLite/Diag 0.40E+00    0.0     0.00060884      -142.3173613497 -1.08E-05
     3 TBLite/Diag 0.40E+00    0.0     0.00015258      -142.3173615637 -2.14E-07
     4 TBLite/Diag 0.40E+00    0.0     0.00004801      -142.3173615653 -1.57E-09
     5 TBLite/Diag 0.40E+00    0.0     0.00002642      -142.3173615724 -7.11E-09
     6 TBLite/Diag 0.40E+00    0.0     0.00000280      -142.3173615725 -7.75E-11
     7 TBLite/Diag 0.40E+00    0.0     0.00000019      -142.3173615725 -3.41E-13
     8 TBLite/Diag 0.40E+00    0.0     0.00000002      -142.3173615725 -3.41E-13
     9 TBLite/Diag 0.40E+00    0.0     5.8636E-09      -142.3173615725 -5.68E-14
    10 TBLite/Diag 0.40E+00    0.0     2.3092E-10      -142.3173615725  1.71E-13

  *** SCF run converged in    10 steps ***


  Core Hamiltonian energy:                                   -143.71937385326245
  Repulsive potential energy:                                   0.79305377671507
  Electrostatic energy:                                         0.70913144700690
  Self-consistent dispersion energy:                            0.00000000000000
  Non-self consistent dispersion energy:                       -0.10017294293223
  Correction for halogen bonding:                               0.00000000000000
  Electronic entropic energy:                                  -0.00000000000000
  Fermi energy:                                                -0.17195215544343

  Total energy:                                              -142.31736157247272
  Total energy (extrapolated to T->0):                       -142.31736157247272

 ENERGY| Total FORCE_EVAL ( QS ) energy [hartree]           -142.317361572472720

 OPT| **************************************************************************
 OPT| Step number                                                              4
 OPT| Optimization method                                                   BFGS
 OPT| Total energy [hartree]                                     -142.3173615725
 OPT| Internal pressure [bar]                                  -13832.5607010555
 OPT| Effective energy change [hartree]                            -0.0081961447
 OPT| Predicted energy change [hartree]                            -0.0057244461
 OPT| Scaling factor                                                0.0000000000
 OPT| Step size                                                     0.0477408123
 OPT| Trust radius                                                  0.4724315332
 OPT| Decrease in energy                                                     YES
 OPT| Used time [s]                                                        1.136
 OPT|
 OPT| Maximum step size                                             0.0477408123
 OPT| Convergence limit for maximum step size                       0.0030000000
 OPT| Maximum step size is converged                                          NO
 OPT|
 OPT| RMS step size                                                 0.0168538092
 OPT| Convergence limit for RMS step size                           0.0015000000
 OPT| RMS step size is converged                                              NO
 OPT|
 OPT| Maximum gradient                                              0.0193429003
 OPT| Convergence limit for maximum gradient                        0.0004500000
 OPT| Maximum gradient is converged                                           NO
 OPT|
 OPT| RMS gradient                                                  0.0043501648
 OPT| Convergence limit for RMS gradient                            0.0003000000
 OPT| RMS gradient is converged                                               NO
 OPT|
 OPT| Pressure deviation [bar]                                 -13832.5607010555
 OPT| Pressure tolerance [bar]                                    100.0000000000
 OPT| Pressure is converged                                                   NO
 OPT| **************************************************************************
 OPT| Estimated peak process memory after this step [MiB]                    184

 --------------------------
 OPTIMIZATION STEP:      5
 --------------------------

 CELL| Volume [angstrom^3]:                                           627.170684
 CELL| Vector a [angstrom]:       9.410     0.000     0.000   |a| =     9.410423
 CELL| Vector b [angstrom]:      -4.671     8.169     0.000   |b| =     9.410480
 CELL| Vector c [angstrom]:       0.001    -0.000     8.158   |c| =     8.158119
 CELL| Angle (b,c), alpha [degree]:                                    90.005206
 CELL| Angle (a,c), beta  [degree]:                                    89.994794
 CELL| Angle (a,b), gamma [degree]:                                   119.760258
 CELL| Numerically orthorhombic:                                              NO
 CELL| Periodicity                                                           XYZ

 Extrapolation method: ASPC

 Number of electrons:                                                        216
 Number of occupied orbitals:                                                108
 Number of molecular orbitals:                                               216

 Number of orbital functions:                                                216
 Number of independent orbital functions:                                    216


 SCF WAVEFUNCTION OPTIMIZATION

  Step     Update method      Time    Convergence         Total energy    Change
  ------------------------------------------------------------------------------
     1 TBLite/Diag 0.40E+00    0.0     0.00886602      -142.3231450903 -1.42E+02
     2 TBLite/Diag 0.40E+00    0.0     0.00055187      -142.3231531554 -8.07E-06
     3 TBLite/Diag 0.40E+00    0.0     0.00026842      -142.3231540094 -8.54E-07
     4 TBLite/Diag 0.40E+00    0.0     0.00002374      -142.3231540148 -5.33E-09
     5 TBLite/Diag 0.40E+00    0.0     0.00000567      -142.3231540148 -6.70E-11
     6 TBLite/Diag 0.40E+00    0.0     0.00000234      -142.3231540149 -6.70E-11
     7 TBLite/Diag 0.40E+00    0.0     0.00000025      -142.3231540149 -1.08E-12
     8 TBLite/Diag 0.40E+00    0.0     9.2854E-09      -142.3231540149 -1.14E-13
     9 TBLite/Diag 0.40E+00    0.0     5.1841E-09      -142.3231540149 -2.84E-13
    10 TBLite/Diag 0.40E+00    0.0     6.9396E-10      -142.3231540149  1.71E-13

  *** SCF run converged in    10 steps ***


  Core Hamiltonian energy:                                   -143.73679905603478
  Repulsive potential energy:                                   0.80044985268746
  Electrostatic energy:                                         0.71348049702703
  Self-consistent dispersion energy:                            0.00000000000000
  Non-self consistent dispersion energy:                       -0.10028530859434
  Correction for halogen bonding:                               0.00000000000000
  Electronic entropic energy:                                  -0.00000000000000
  Fermi energy:                                                -0.17178513812793

  Total energy:                                              -142.32315401491465
  Total energy (extrapolated to T->0):                       -142.32315401491465

 ENERGY| Total FORCE_EVAL ( QS ) energy [hartree]           -142.323154014914650

 OPT| **************************************************************************
 OPT| Step number                                                              5
 OPT| Optimization method                                                   BFGS
 OPT| Total energy [hartree]                                     -142.3231540149
 OPT| Internal pressure [bar]                                  -14888.1317516333
 OPT| Effective energy change [hartree]                            -0.0057924424
 OPT| Predicted energy change [hartree]                            -0.0039993952
 OPT| Scaling factor                                                0.0000000000
 OPT| Step size                                                     0.0525155774
 OPT| Trust radius                                                  0.4724315332
 OPT| Decrease in energy                                                     YES
 OPT| Used time [s]                                                        0.694
 OPT|
 OPT| Maximum step size                                             0.0525155774
 OPT| Convergence limit for maximum step size                       0.0030000000
 OPT| Maximum step size is converged                                          NO
 OPT|
 OPT| RMS step size                                                 0.0149022476
 OPT| Convergence limit for RMS step size                           0.0015000000
 OPT| RMS step size is converged                                              NO
 OPT|
 OPT| Maximum gradient                                              0.0166578497
 OPT| Convergence limit for maximum gradient                        0.0004500000
 OPT| Maximum gradient is converged                                           NO
 OPT|
 OPT| RMS gradient                                                  0.0034343394
 OPT| Convergence limit for RMS gradient                            0.0003000000
 OPT| RMS gradient is converged                                               NO
 OPT|
 OPT| Pressure deviation [bar]                                 -14888.1317516333
 OPT| Pressure tolerance [bar]                                    100.0000000000
 OPT| Pressure is converged                                                   NO
 OPT| **************************************************************************
 OPT| Estimated peak process memory after this step [MiB]                    184

 --------------------------
 OPTIMIZATION STEP:      6
 --------------------------

 CELL| Volume [angstrom^3]:                                           624.796372
 CELL| Vector a [angstrom]:       9.409     0.000     0.000   |a| =     9.409149
 CELL| Vector b [angstrom]:      -4.675     8.166     0.000   |b| =     9.409213
 CELL| Vector c [angstrom]:       0.001    -0.001     8.132   |c| =     8.132145
 CELL| Angle (b,c), alpha [degree]:                                    90.006500
 CELL| Angle (a,c), beta  [degree]:                                    89.993503
 CELL| Angle (a,b), gamma [degree]:                                   119.793685
 CELL| Numerically orthorhombic:                                              NO
 CELL| Periodicity                                                           XYZ

 Extrapolation method: ASPC

 Number of electrons:                                                        216
 Number of occupied orbitals:                                                108
 Number of molecular orbitals:                                               216

 Number of orbital functions:                                                216
 Number of independent orbital functions:                                    216


 SCF WAVEFUNCTION OPTIMIZATION

  Step     Update method      Time    Convergence         Total energy    Change
  ------------------------------------------------------------------------------
     1 TBLite/Diag 0.40E+00    0.0     0.00867016      -142.3272584776 -1.42E+02
     2 TBLite/Diag 0.40E+00    0.0     0.00065780      -142.3272675101 -9.03E-06
     3 TBLite/Diag 0.40E+00    0.0     0.00016840      -142.3272680232 -5.13E-07
     4 TBLite/Diag 0.40E+00    0.0     0.00005850      -142.3272680307 -7.43E-09
     5 TBLite/Diag 0.40E+00    0.0     0.00001445      -142.3272680349 -4.28E-09
     6 TBLite/Diag 0.40E+00    0.0     0.00000289      -142.3272680351 -1.08E-10
     7 TBLite/Diag 0.40E+00    0.0     0.00000041      -142.3272680351 -2.13E-12
     8 TBLite/Diag 0.40E+00    0.0     6.2918E-09      -142.3272680351 -5.68E-14
     9 TBLite/Diag 0.40E+00    0.0     2.2432E-09      -142.3272680351  1.14E-13
    10 TBLite/Diag 0.40E+00    0.0     6.2473E-10      -142.3272680351 -1.99E-13

  *** SCF run converged in    10 steps ***


  Core Hamiltonian energy:                                   -143.76374901441389
  Repulsive potential energy:                                   0.82168569383407
  Electrostatic energy:                                         0.71548869296885
  Self-consistent dispersion energy:                            0.00000000000000
  Non-self consistent dispersion energy:                       -0.10069340744373
  Correction for halogen bonding:                               0.00000000000000
  Electronic entropic energy:                                  -0.00000000000000
  Fermi energy:                                                -0.17104755471390

  Total energy:                                              -142.32726803505469
  Total energy (extrapolated to T->0):                       -142.32726803505469

 ENERGY| Total FORCE_EVAL ( QS ) energy [hartree]           -142.327268035054686

 OPT| **************************************************************************
 OPT| Step number                                                              6
 OPT| Optimization method                                                   BFGS
 OPT| Total energy [hartree]                                     -142.3272680351
 OPT| Internal pressure [bar]                                   -9900.3616750355
 OPT| Effective energy change [hartree]                            -0.0041140201
 OPT| Predicted energy change [hartree]                            -0.0029012942
 OPT| Scaling factor                                                0.0000000000
 OPT| Step size                                                     0.0490853684
 OPT| Trust radius                                                  0.4724315332
 OPT| Decrease in energy                                                     YES
 OPT| Used time [s]                                                        0.694
 OPT|
 OPT| Maximum step size                                             0.0490853684
 OPT| Convergence limit for maximum step size                       0.0030000000
 OPT| Maximum step size is converged                                          NO
 OPT|
 OPT| RMS step size                                                 0.0127440582
 OPT| Convergence limit for RMS step size                           0.0015000000
 OPT| RMS step size is converged                                              NO
 OPT|
 OPT| Maximum gradient                                              0.0139247533
 OPT| Convergence limit for maximum gradient                        0.0004500000
 OPT| Maximum gradient is converged                                           NO
 OPT|
 OPT| RMS gradient                                                  0.0026999887
 OPT| Convergence limit for RMS gradient                            0.0003000000
 OPT| RMS gradient is converged                                               NO
 OPT|
 OPT| Pressure deviation [bar]                                  -9900.3616750355
 OPT| Pressure tolerance [bar]                                    100.0000000000
 OPT| Pressure is converged                                                   NO
 OPT| **************************************************************************
 OPT| Estimated peak process memory after this step [MiB]                    184

 --------------------------
 OPTIMIZATION STEP:      7
 --------------------------

 CELL| Volume [angstrom^3]:                                           621.991177
 CELL| Vector a [angstrom]:       9.400     0.000     0.000   |a| =     9.399817
 CELL| Vector b [angstrom]:      -4.678     8.153     0.000   |b| =     9.399883
 CELL| Vector c [angstrom]:       0.001    -0.001     8.116   |c| =     8.115819
 CELL| Angle (b,c), alpha [degree]:                                    90.007064
 CELL| Angle (a,c), beta  [degree]:                                    89.992945
 CELL| Angle (a,b), gamma [degree]:                                   119.844266
 CELL| Numerically orthorhombic:                                              NO
 CELL| Periodicity                                                           XYZ

 Extrapolation method: ASPC

 Number of electrons:                                                        216
 Number of occupied orbitals:                                                108
 Number of molecular orbitals:                                               216

 Number of orbital functions:                                                216
 Number of independent orbital functions:                                    216


 SCF WAVEFUNCTION OPTIMIZATION

  Step     Update method      Time    Convergence         Total energy    Change
  ------------------------------------------------------------------------------
     1 TBLite/Diag 0.40E+00    0.0     0.00613240      -142.3297132353 -1.42E+02
     2 TBLite/Diag 0.40E+00    0.0     0.00052847      -142.3297213891 -8.15E-06
     3 TBLite/Diag 0.40E+00    0.0     0.00004410      -142.3297214145 -2.54E-08
     4 TBLite/Diag 0.40E+00    0.0     0.00001714      -142.3297214169 -2.46E-09
     5 TBLite/Diag 0.40E+00    0.0     0.00000544      -142.3297214172 -3.09E-10
     6 TBLite/Diag 0.40E+00    0.0     0.00000109      -142.3297214172 -9.38E-12
     7 TBLite/Diag 0.40E+00    0.0     0.00000017      -142.3297214172  2.56E-13
     8 TBLite/Diag 0.40E+00    0.0     3.7566E-09      -142.3297214172 -4.83E-13
     9 TBLite/Diag 0.40E+00    0.0     1.9319E-09      -142.3297214172  1.42E-13
    10 TBLite/Diag 0.40E+00    0.0     1.0263E-10      -142.3297214172  8.53E-14

  *** SCF run converged in    10 steps ***


  Core Hamiltonian energy:                                   -143.78261508802424
  Repulsive potential energy:                                   0.84000578650672
  Electrostatic energy:                                         0.71405103301080
  Self-consistent dispersion energy:                            0.00000000000000
  Non-self consistent dispersion energy:                       -0.10116314874154
  Correction for halogen bonding:                               0.00000000000000
  Electronic entropic energy:                                  -0.00000000000000
  Fermi energy:                                                -0.17034606477479

  Total energy:                                              -142.32972141724827
  Total energy (extrapolated to T->0):                       -142.32972141724827

 ENERGY| Total FORCE_EVAL ( QS ) energy [hartree]           -142.329721417248265

 OPT| **************************************************************************
 OPT| Step number                                                              7
 OPT| Optimization method                                                   BFGS
 OPT| Total energy [hartree]                                     -142.3297214172
 OPT| Internal pressure [bar]                                   -3445.6518728219
 OPT| Effective energy change [hartree]                            -0.0024533822
 OPT| Predicted energy change [hartree]                            -0.0017711174
 OPT| Scaling factor                                                0.0000000000
 OPT| Step size                                                     0.0308511356
 OPT| Trust radius                                                  0.4724315332
 OPT| Decrease in energy                                                     YES
 OPT| Used time [s]                                                        0.698
 OPT|
 OPT| Maximum step size                                             0.0308511356
 OPT| Convergence limit for maximum step size                       0.0030000000
 OPT| Maximum step size is converged                                          NO
 OPT|
 OPT| RMS step size                                                 0.0095339157
 OPT| Convergence limit for RMS step size                           0.0015000000
 OPT| RMS step size is converged                                              NO
 OPT|
 OPT| Maximum gradient                                              0.0063499534
 OPT| Convergence limit for maximum gradient                        0.0004500000
 OPT| Maximum gradient is converged                                           NO
 OPT|
 OPT| RMS gradient                                                  0.0020468851
 OPT| Convergence limit for RMS gradient                            0.0003000000
 OPT| RMS gradient is converged                                               NO
 OPT|
 OPT| Pressure deviation [bar]                                  -3445.6518728219
 OPT| Pressure tolerance [bar]                                    100.0000000000
 OPT| Pressure is converged                                                   NO
 OPT| **************************************************************************
 OPT| Estimated peak process memory after this step [MiB]                    184

 --------------------------
 OPTIMIZATION STEP:      8
 --------------------------

 CELL| Volume [angstrom^3]:                                           620.187769
 CELL| Vector a [angstrom]:       9.391     0.000     0.000   |a| =     9.390977
 CELL| Vector b [angstrom]:      -4.678     8.143     0.000   |b| =     9.391043
 CELL| Vector c [angstrom]:       0.001    -0.001     8.110   |c| =     8.110296
 CELL| Angle (b,c), alpha [degree]:                                    90.007145
 CELL| Angle (a,c), beta  [degree]:                                    89.992867
 CELL| Angle (a,b), gamma [degree]:                                   119.878311
 CELL| Numerically orthorhombic:                                              NO
 CELL| Periodicity                                                           XYZ

 Extrapolation method: ASPC

 Number of electrons:                                                        216
 Number of occupied orbitals:                                                108
 Number of molecular orbitals:                                               216

 Number of orbital functions:                                                216
 Number of independent orbital functions:                                    216


 SCF WAVEFUNCTION OPTIMIZATION

  Step     Update method      Time    Convergence         Total energy    Change
  ------------------------------------------------------------------------------
     1 TBLite/Diag 0.40E+00    0.0     0.00398878      -142.3307628998 -1.42E+02
     2 TBLite/Diag 0.40E+00    0.0     0.00045797      -142.3307685642 -5.66E-06
     3 TBLite/Diag 0.40E+00    0.0     0.00010592      -142.3307687225 -1.58E-07
     4 TBLite/Diag 0.40E+00    0.0     0.00003004      -142.3307687221  4.33E-10
     5 TBLite/Diag 0.40E+00    0.0     0.00001501      -142.3307687262 -4.06E-09
     6 TBLite/Diag 0.40E+00    0.0     0.00000129      -142.3307687262 -1.94E-11
     7 TBLite/Diag 0.40E+00    0.0     0.00000009      -142.3307687262 -8.53E-14
     8 TBLite/Diag 0.40E+00    0.0     9.3094E-09      -142.3307687262  5.68E-14
     9 TBLite/Diag 0.40E+00    0.0     2.1058E-09      -142.3307687262  5.68E-14
    10 TBLite/Diag 0.40E+00    0.0     1.0779E-10      -142.3307687262  1.14E-13

  *** SCF run converged in    10 steps ***


  Core Hamiltonian energy:                                   -143.78537496151230
  Repulsive potential energy:                                   0.84503017272238
  Electrostatic energy:                                         0.71103703426723
  Self-consistent dispersion energy:                            0.00000000000000
  Non-self consistent dispersion energy:                       -0.10146097164736
  Correction for halogen bonding:                               0.00000000000000
  Electronic entropic energy:                                  -0.00000000000000
  Fermi energy:                                                -0.16991884112327

  Total energy:                                              -142.33076872617005
  Total energy (extrapolated to T->0):                       -142.33076872617005

 ENERGY| Total FORCE_EVAL ( QS ) energy [hartree]           -142.330768726170049

 OPT| **************************************************************************
 OPT| Step number                                                              8
 OPT| Optimization method                                                   BFGS
 OPT| Total energy [hartree]                                     -142.3307687262
 OPT| Internal pressure [bar]                                      89.3988539134
 OPT| Effective energy change [hartree]                            -0.0010473089
 OPT| Predicted energy change [hartree]                            -0.0008206259
 OPT| Scaling factor                                                0.0000000000
 OPT| Step size                                                     0.0197408634
 OPT| Trust radius                                                  0.4724315332
 OPT| Decrease in energy                                                     YES
 OPT| Used time [s]                                                        0.700
 OPT|
 OPT| Maximum step size                                             0.0197408634
 OPT| Convergence limit for maximum step size                       0.0030000000
 OPT| Maximum step size is converged                                          NO
 OPT|
 OPT| RMS step size                                                 0.0056295967
 OPT| Convergence limit for RMS step size                           0.0015000000
 OPT| RMS step size is converged                                              NO
 OPT|
 OPT| Maximum gradient                                              0.0025888229
 OPT| Convergence limit for maximum gradient                        0.0004500000
 OPT| Maximum gradient is converged                                           NO
 OPT|
 OPT| RMS gradient                                                  0.0011053606
 OPT| Convergence limit for RMS gradient                            0.0003000000
 OPT| RMS gradient is converged                                               NO
 OPT|
 OPT| Pressure deviation [bar]                                     89.3988539134
 OPT| Pressure tolerance [bar]                                    100.0000000000
 OPT| Pressure is converged                                                  YES
 OPT| **************************************************************************
 OPT| Estimated peak process memory after this step [MiB]                    184

 --------------------------
 OPTIMIZATION STEP:      9
 --------------------------

 CELL| Volume [angstrom^3]:                                           619.793611
 CELL| Vector a [angstrom]:       9.388     0.000     0.000   |a| =     9.388100
 CELL| Vector b [angstrom]:      -4.677     8.140     0.000   |b| =     9.388163
 CELL| Vector c [angstrom]:       0.001    -0.001     8.110   |c| =     8.110414
 CELL| Angle (b,c), alpha [degree]:                                    90.007170
 CELL| Angle (a,c), beta  [degree]:                                    89.992843
 CELL| Angle (a,b), gamma [degree]:                                   119.882013
 CELL| Numerically orthorhombic:                                              NO
 CELL| Periodicity                                                           XYZ

 Extrapolation method: ASPC

 Number of electrons:                                                        216
 Number of occupied orbitals:                                                108
 Number of molecular orbitals:                                               216

 Number of orbital functions:                                                216
 Number of independent orbital functions:                                    216


 SCF WAVEFUNCTION OPTIMIZATION

  Step     Update method      Time    Convergence         Total energy    Change
  ------------------------------------------------------------------------------
     1 TBLite/Diag 0.40E+00    0.0     0.00222587      -142.3310220913 -1.42E+02
     2 TBLite/Diag 0.40E+00    0.0     0.00021102      -142.3310232531 -1.16E-06
     3 TBLite/Diag 0.40E+00    0.0     0.00007755      -142.3310233395 -8.65E-08
     4 TBLite/Diag 0.40E+00    0.0     0.00001050      -142.3310233402 -7.28E-10
     5 TBLite/Diag 0.40E+00    0.0     0.00000432      -142.3310233404 -1.49E-10
     6 TBLite/Diag 0.40E+00    0.0     0.00000086      -142.3310233404 -7.05E-12
     7 TBLite/Diag 0.40E+00    0.0     0.00000011      -142.3310233404 -1.71E-13
     8 TBLite/Diag 0.40E+00    0.0     3.4649E-09      -142.3310233404 -2.84E-14
     9 TBLite/Diag 0.40E+00    0.0     5.4259E-10      -142.3310233404 -5.68E-14

  *** SCF run converged in     9 steps ***


  Core Hamiltonian energy:                                   -143.78016625346982
  Repulsive potential energy:                                   0.84128709842233
  Electrostatic energy:                                         0.70938044356150
  Self-consistent dispersion energy:                            0.00000000000000
  Non-self consistent dispersion energy:                       -0.10152462891310
  Correction for halogen bonding:                               0.00000000000000
  Electronic entropic energy:                                  -0.00000000000000
  Fermi energy:                                                -0.16981733557992

  Total energy:                                              -142.33102334039910
  Total energy (extrapolated to T->0):                       -142.33102334039910

 ENERGY| Total FORCE_EVAL ( QS ) energy [hartree]           -142.331023340399099

 OPT| **************************************************************************
 OPT| Step number                                                              9
 OPT| Optimization method                                                   BFGS
 OPT| Total energy [hartree]                                     -142.3310233404
 OPT| Internal pressure [bar]                                      58.6014015274
 OPT| Effective energy change [hartree]                            -0.0002546142
 OPT| Predicted energy change [hartree]                            -0.0001970943
 OPT| Scaling factor                                                0.0000000000
 OPT| Step size                                                     0.0054367923
 OPT| Trust radius                                                  0.4724315332
 OPT| Decrease in energy                                                     YES
 OPT| Used time [s]                                                        0.687
 OPT|
 OPT| Maximum step size                                             0.0054367923
 OPT| Convergence limit for maximum step size                       0.0030000000
 OPT| Maximum step size is converged                                          NO
 OPT|
 OPT| RMS step size                                                 0.0019495918
 OPT| Convergence limit for RMS step size                           0.0015000000
 OPT| RMS step size is converged                                              NO
 OPT|
 OPT| Maximum gradient                                              0.0017547791
 OPT| Convergence limit for maximum gradient                        0.0004500000
 OPT| Maximum gradient is converged                                           NO
 OPT|
 OPT| RMS gradient                                                  0.0005891912
 OPT| Convergence limit for RMS gradient                            0.0003000000
 OPT| RMS gradient is converged                                               NO
 OPT|
 OPT| Pressure deviation [bar]                                     58.6014015274
 OPT| Pressure tolerance [bar]                                    100.0000000000
 OPT| Pressure is converged                                                  YES
 OPT| **************************************************************************
 OPT| Estimated peak process memory after this step [MiB]                    184

 --------------------------
 OPTIMIZATION STEP:     10
 --------------------------

 CELL| Volume [angstrom^3]:                                           619.724701
 CELL| Vector a [angstrom]:       9.388     0.000     0.000   |a| =     9.387740
 CELL| Vector b [angstrom]:      -4.676     8.140     0.000   |b| =     9.387800
 CELL| Vector c [angstrom]:       0.001    -0.001     8.110   |c| =     8.109604
 CELL| Angle (b,c), alpha [degree]:                                    90.007368
 CELL| Angle (a,c), beta  [degree]:                                    89.992645
 CELL| Angle (a,b), gamma [degree]:                                   119.875458
 CELL| Numerically orthorhombic:                                              NO
 CELL| Periodicity                                                           XYZ

 Extrapolation method: ASPC

 Number of electrons:                                                        216
 Number of occupied orbitals:                                                108
 Number of molecular orbitals:                                               216

 Number of orbital functions:                                                216
 Number of independent orbital functions:                                    216


 SCF WAVEFUNCTION OPTIMIZATION

  Step     Update method      Time    Convergence         Total energy    Change
  ------------------------------------------------------------------------------
     1 TBLite/Diag 0.40E+00    0.0     0.00106494      -142.3311275471 -1.42E+02
     2 TBLite/Diag 0.40E+00    0.0     0.00008266      -142.3311276833 -1.36E-07
     3 TBLite/Diag 0.40E+00    0.0     0.00003524      -142.3311276942 -1.09E-08
     4 TBLite/Diag 0.40E+00    0.0     0.00000394      -142.3311276944 -2.78E-10
     5 TBLite/Diag 0.40E+00    0.0     0.00000189      -142.3311276945 -6.68E-11
     6 TBLite/Diag 0.40E+00    0.0     0.00000046      -142.3311276945 -2.27E-12
     7 TBLite/Diag 0.40E+00    0.0     0.00000013      -142.3311276945  1.99E-13
     8 TBLite/Diag 0.40E+00    0.0     1.7015E-09      -142.3311276945 -1.42E-13
     9 TBLite/Diag 0.40E+00    0.0     4.8067E-10      -142.3311276945 -5.68E-14

  *** SCF run converged in     9 steps ***


  Core Hamiltonian energy:                                   -143.77601330794502
  Repulsive potential energy:                                   0.83756785100644
  Electrostatic energy:                                         0.70885491915718
  Self-consistent dispersion energy:                            0.00000000000000
  Non-self consistent dispersion energy:                       -0.10153715672608
  Correction for halogen bonding:                               0.00000000000000
  Electronic entropic energy:                                  -0.00000000000000
  Fermi energy:                                                -0.16979617387383

  Total energy:                                              -142.33112769450747
  Total energy (extrapolated to T->0):                       -142.33112769450747

 ENERGY| Total FORCE_EVAL ( QS ) energy [hartree]           -142.331127694507472

 OPT| **************************************************************************
 OPT| Step number                                                             10
 OPT| Optimization method                                                   BFGS
 OPT| Total energy [hartree]                                     -142.3311276945
 OPT| Internal pressure [bar]                                    -680.9978344753
 OPT| Effective energy change [hartree]                            -0.0001043541
 OPT| Predicted energy change [hartree]                            -0.0000709402
 OPT| Scaling factor                                                0.0000000000
 OPT| Step size                                                     0.0027484413
 OPT| Trust radius                                                  0.4724315332
 OPT| Decrease in energy                                                     YES
 OPT| Used time [s]                                                        0.688
 OPT|
 OPT| Maximum step size                                             0.0027484413
 OPT| Convergence limit for maximum step size                       0.0030000000
 OPT| Maximum step size is converged                                         YES
 OPT|
 OPT| RMS step size                                                 0.0012066402
 OPT| Convergence limit for RMS step size                           0.0015000000
 OPT| RMS step size is converged                                             YES
 OPT|
 OPT| Maximum gradient                                              0.0039384333
 OPT| Convergence limit for maximum gradient                        0.0004500000
 OPT| Maximum gradient is converged                                           NO
 OPT|
 OPT| RMS gradient                                                  0.0005179244
 OPT| Convergence limit for RMS gradient                            0.0003000000
 OPT| RMS gradient is converged                                               NO
 OPT|
 OPT| Pressure deviation [bar]                                   -680.9978344753
 OPT| Pressure tolerance [bar]                                    100.0000000000
 OPT| Pressure is converged                                                   NO
 OPT| **************************************************************************
 OPT| Estimated peak process memory after this step [MiB]                    184

 --------------------------
 OPTIMIZATION STEP:     11
 --------------------------

 CELL| Volume [angstrom^3]:                                           619.511590
 CELL| Vector a [angstrom]:       9.388     0.000     0.000   |a| =     9.388023
 CELL| Vector b [angstrom]:      -4.675     8.142     0.000   |b| =     9.388079
 CELL| Vector c [angstrom]:       0.001    -0.001     8.105   |c| =     8.105313
 CELL| Angle (b,c), alpha [degree]:                                    90.007936
 CELL| Angle (a,c), beta  [degree]:                                    89.992078
 CELL| Angle (a,b), gamma [degree]:                                   119.862940
 CELL| Numerically orthorhombic:                                              NO
 CELL| Periodicity                                                           XYZ

 Extrapolation method: ASPC

 Number of electrons:                                                        216
 Number of occupied orbitals:                                                108
 Number of molecular orbitals:                                               216

 Number of orbital functions:                                                216
 Number of independent orbital functions:                                    216


 SCF WAVEFUNCTION OPTIMIZATION

  Step     Update method      Time    Convergence         Total energy    Change
  ------------------------------------------------------------------------------
     1 TBLite/Diag 0.40E+00    0.0     0.00130592      -142.3312447091 -1.42E+02
     2 TBLite/Diag 0.40E+00    0.0     0.00006786      -142.3312447617 -5.26E-08
     3 TBLite/Diag 0.40E+00    0.0     0.00000891      -142.3312447619 -2.36E-10
     4 TBLite/Diag 0.40E+00    0.0     0.00000374      -142.3312447623 -4.47E-10
     5 TBLite/Diag 0.40E+00    0.0     0.00000089      -142.3312447623 -1.12E-11
     6 TBLite/Diag 0.40E+00    0.0     0.00000028      -142.3312447623 -4.55E-13
     7 TBLite/Diag 0.40E+00    0.0     0.00000003      -142.3312447623 -3.13E-13
     8 TBLite/Diag 0.40E+00    0.0     4.5705E-09      -142.3312447623  1.99E-13
     9 TBLite/Diag 0.40E+00    0.0     7.7014E-10      -142.3312447623  2.84E-14

  *** SCF run converged in     9 steps ***


  Core Hamiltonian energy:                                   -143.77239755458604
  Repulsive potential energy:                                   0.83401200165578
  Electrostatic energy:                                         0.70871869047294
  Self-consistent dispersion energy:                            0.00000000000000
  Non-self consistent dispersion energy:                       -0.10157789989100
  Correction for halogen bonding:                               0.00000000000000
  Electronic entropic energy:                                  -0.00000000000000
  Fermi energy:                                                -0.16974822014258

  Total energy:                                              -142.33124476234829
  Total energy (extrapolated to T->0):                       -142.33124476234829

 ENERGY| Total FORCE_EVAL ( QS ) energy [hartree]           -142.331244762348291

 OPT| **************************************************************************
 OPT| Step number                                                             11
 OPT| Optimization method                                                   BFGS
 OPT| Total energy [hartree]                                     -142.3312447623
 OPT| Internal pressure [bar]                                   -1504.3238066832
 OPT| Effective energy change [hartree]                            -0.0001170678
 OPT| Predicted energy change [hartree]                            -0.0000790996
 OPT| Scaling factor                                                0.0000000000
 OPT| Step size                                                     0.0081099847
 OPT| Trust radius                                                  0.4724315332
 OPT| Decrease in energy                                                     YES
 OPT| Used time [s]                                                        0.687
 OPT|
 OPT| Maximum step size                                             0.0081099847
 OPT| Convergence limit for maximum step size                       0.0030000000
 OPT| Maximum step size is converged                                          NO
 OPT|
 OPT| RMS step size                                                 0.0017953909
 OPT| Convergence limit for RMS step size                           0.0015000000
 OPT| RMS step size is converged                                              NO
 OPT|
 OPT| Maximum gradient                                              0.0056477417
 OPT| Convergence limit for maximum gradient                        0.0004500000
 OPT| Maximum gradient is converged                                           NO
 OPT|
 OPT| RMS gradient                                                  0.0005671087
 OPT| Convergence limit for RMS gradient                            0.0003000000
 OPT| RMS gradient is converged                                               NO
 OPT|
 OPT| Pressure deviation [bar]                                  -1504.3238066832
 OPT| Pressure tolerance [bar]                                    100.0000000000
 OPT| Pressure is converged                                                   NO
 OPT| **************************************************************************
 OPT| Estimated peak process memory after this step [MiB]                    184

 --------------------------
 OPTIMIZATION STEP:     12
 --------------------------

 CELL| Volume [angstrom^3]:                                           618.975147
 CELL| Vector a [angstrom]:       9.389     0.000     0.000   |a| =     9.388720
 CELL| Vector b [angstrom]:      -4.673     8.143     0.000   |b| =     9.388772
 CELL| Vector c [angstrom]:       0.001    -0.001     8.096   |c| =     8.095860
 CELL| Angle (b,c), alpha [degree]:                                    90.009040
 CELL| Angle (a,c), beta  [degree]:                                    89.990975
 CELL| Angle (a,b), gamma [degree]:                                   119.847715
 CELL| Numerically orthorhombic:                                              NO
 CELL| Periodicity                                                           XYZ

 Extrapolation method: ASPC

 Number of electrons:                                                        216
 Number of occupied orbitals:                                                108
 Number of molecular orbitals:                                               216

 Number of orbital functions:                                                216
 Number of independent orbital functions:                                    216


 SCF WAVEFUNCTION OPTIMIZATION

  Step     Update method      Time    Convergence         Total energy    Change
  ------------------------------------------------------------------------------
     1 TBLite/Diag 0.40E+00    0.0     0.00153515      -142.3313679318 -1.42E+02
     2 TBLite/Diag 0.40E+00    0.0     0.00011587      -142.3313681508 -2.19E-07
     3 TBLite/Diag 0.40E+00    0.0     0.00003945      -142.3313681642 -1.34E-08
     4 TBLite/Diag 0.40E+00    0.0     0.00000398      -142.3313681644 -2.08E-10
     5 TBLite/Diag 0.40E+00    0.0     0.00000426      -142.3313681646 -2.45E-10
     6 TBLite/Diag 0.40E+00    0.0     0.00000050      -142.3313681646 -3.47E-12
     7 TBLite/Diag 0.40E+00    0.0     0.00000016      -142.3313681646 -2.84E-14
     8 TBLite/Diag 0.40E+00    0.0     2.6236E-09      -142.3313681646 -3.69E-13
     9 TBLite/Diag 0.40E+00    0.0     1.2925E-09      -142.3313681646 -8.53E-14
    10 TBLite/Diag 0.40E+00    0.0     1.6756E-10      -142.3313681646  2.84E-14

  *** SCF run converged in    10 steps ***


  Core Hamiltonian energy:                                   -143.77087849712990
  Repulsive potential energy:                                   0.83222157584808
  Electrostatic energy:                                         0.70896658653099
  Self-consistent dispersion energy:                            0.00000000000000
  Non-self consistent dispersion energy:                       -0.10167782989675
  Correction for halogen bonding:                               0.00000000000000
  Electronic entropic energy:                                  -0.00000000000000
  Fermi energy:                                                -0.16963915648161

  Total energy:                                              -142.33136816464759
  Total energy (extrapolated to T->0):                       -142.33136816464759

 ENERGY| Total FORCE_EVAL ( QS ) energy [hartree]           -142.331368164647586

 OPT| **************************************************************************
 OPT| Step number                                                             12
 OPT| Optimization method                                                   BFGS
 OPT| Total energy [hartree]                                     -142.3313681646
 OPT| Internal pressure [bar]                                   -1861.2503070099
 OPT| Effective energy change [hartree]                            -0.0001234023
 OPT| Predicted energy change [hartree]                            -0.0000851731
 OPT| Scaling factor                                                0.0000000000
 OPT| Step size                                                     0.0178630640
 OPT| Trust radius                                                  0.4724315332
 OPT| Decrease in energy                                                     YES
 OPT| Used time [s]                                                        0.698
 OPT|
 OPT| Maximum step size                                             0.0178630640
 OPT| Convergence limit for maximum step size                       0.0030000000
 OPT| Maximum step size is converged                                          NO
 OPT|
 OPT| RMS step size                                                 0.0024820116
[...]
 Number of electrons:                                                        216
 Number of occupied orbitals:                                                108
 Number of molecular orbitals:                                               216

 Number of orbital functions:                                                216
 Number of independent orbital functions:                                    216


 SCF WAVEFUNCTION OPTIMIZATION

  Step     Update method      Time    Convergence         Total energy    Change
  ------------------------------------------------------------------------------
     1 TBLite/Diag 0.40E+00    0.0     0.00040786      -142.3328365757 -1.42E+02
     2 TBLite/Diag 0.40E+00    0.0     0.00001470      -142.3328365834 -7.69E-09
     3 TBLite/Diag 0.40E+00    0.0     0.00000392      -142.3328365835 -1.16E-10
     4 TBLite/Diag 0.40E+00    0.0     0.00000093      -142.3328365835 -6.08E-12
     5 TBLite/Diag 0.40E+00    0.0     0.00000031      -142.3328365835 -2.22E-12
     6 TBLite/Diag 0.40E+00    0.0     0.00000012      -142.3328365835  5.68E-14
     7 TBLite/Diag 0.40E+00    0.0     0.00000002      -142.3328365835  0.00E+00
     8 TBLite/Diag 0.40E+00    0.0     1.9247E-09      -142.3328365835  1.42E-13
     9 TBLite/Diag 0.40E+00    0.0     7.0466E-10      -142.3328365835 -2.27E-13

  *** SCF run converged in     9 steps ***


  Core Hamiltonian energy:                                   -143.78303134204080
  Repulsive potential energy:                                   0.83417129681950
  Electrostatic energy:                                         0.71367869509298
  Self-consistent dispersion energy:                            0.00000000000000
  Non-self consistent dispersion energy:                       -0.09765523341532
  Correction for halogen bonding:                               0.00000000000000
  Electronic entropic energy:                                  -0.00000000000000
  Fermi energy:                                                -0.17398612036144

  Total energy:                                              -142.33283658354364
  Total energy (extrapolated to T->0):                       -142.33283658354364

 ENERGY| Total FORCE_EVAL ( QS ) energy [hartree]           -142.332836583543639

 OPT| **************************************************************************
 OPT| Step number                                                             48
 OPT| Optimization method                                                   BFGS
 OPT| Total energy [hartree]                                     -142.3328365835
 OPT| Internal pressure [bar]                                     -52.0684346922
 OPT| Effective energy change [hartree]                            -0.0000029811
 OPT| Predicted energy change [hartree]                            -0.0000019039
 OPT| Scaling factor                                                0.0000000000
 OPT| Step size                                                     0.0019884046
 OPT| Trust radius                                                  0.4724315332
 OPT| Decrease in energy                                                     YES
 OPT| Used time [s]                                                        1.394
 OPT|
 OPT| Maximum step size                                             0.0019884046
 OPT| Convergence limit for maximum step size                       0.0030000000
 OPT| Maximum step size is converged                                         YES
 OPT|
 OPT| RMS step size                                                 0.0003848401
 OPT| Convergence limit for RMS step size                           0.0015000000
 OPT| RMS step size is converged                                             YES
 OPT|
 OPT| Maximum gradient                                              0.0002677586
 OPT| Convergence limit for maximum gradient                        0.0004500000
 OPT| Maximum gradient is converged                                          YES
 OPT|
 OPT| RMS gradient                                                  0.0000865086
 OPT| Convergence limit for RMS gradient                            0.0003000000
 OPT| RMS gradient is converged                                              YES
 OPT|
 OPT| Pressure deviation [bar]                                    -52.0684346922
 OPT| Pressure tolerance [bar]                                    100.0000000000
 OPT| Pressure is converged                                                  YES
 OPT| **************************************************************************
 OPT| Estimated peak process memory after this step [MiB]                    184

 *******************************************************************************
 ***                    GEOMETRY OPTIMIZATION COMPLETED                      ***
 *******************************************************************************

 write_final_structure: Optimization converged, writing XYZ file gladly:
  trioxane_GFN1_gamma_cell_opt-FINAL-1_48.xyz

 write_final_structure: Optimization converged, writing CIF file gladly:
  trioxane_GFN1_gamma_cell_opt-FINAL-1_48.cif

 write_final_structure: Done!

                    Reevaluating energy at the minimum

 CELL| Volume [angstrom^3]:                                           643.199064
 CELL| Vector a [angstrom]:       9.615     0.000     0.000   |a| =     9.614846
 CELL| Vector b [angstrom]:      -4.742     8.364     0.000   |b| =     9.614916
 CELL| Vector c [angstrom]:       0.031    -0.018     7.998   |c| =     7.997777
 CELL| Angle (b,c), alpha [degree]:                                    90.221186
 CELL| Angle (a,c), beta  [degree]:                                    89.779089
 CELL| Angle (a,b), gamma [degree]:                                   119.547565
 CELL| Numerically orthorhombic:                                              NO
 CELL| Periodicity                                                           XYZ

 Extrapolation method: ASPC

 Number of electrons:                                                        216
 Number of occupied orbitals:                                                108
 Number of molecular orbitals:                                               216

 Number of orbital functions:                                                216
 Number of independent orbital functions:                                    216


 SCF WAVEFUNCTION OPTIMIZATION

  Step     Update method      Time    Convergence         Total energy    Change
  ------------------------------------------------------------------------------
     1 TBLite/Diag 0.40E+00    0.0     1.6656E-10      -142.3328365835 -1.42E+02

  *** SCF run converged in     1 steps ***


  Core Hamiltonian energy:                                   -143.78303134214676
  Repulsive potential energy:                                   0.83417129681950
  Electrostatic energy:                                         0.71367869519890
  Self-consistent dispersion energy:                            0.00000000000000
  Non-self consistent dispersion energy:                       -0.09765523341532
  Correction for halogen bonding:                               0.00000000000000
  Electronic entropic energy:                                  -0.00000000000000
  Fermi energy:                                                -0.17398612036648

  Total energy:                                              -142.33283658354367
  Total energy (extrapolated to T->0):                       -142.33283658354367

 ENERGY| Total FORCE_EVAL ( QS ) energy [hartree]           -142.332836583543667

 -------------------------------------------------------------------------------
 -                                                                             -
 -                                DBCSR STATISTICS                             -
 -                                                                             -
 -------------------------------------------------------------------------------
 COUNTER                                    TOTAL       BLAS       SMM       ACC
 flops     2 x    24 x     2             58475520       0.0%    100.0%      0.0%     
 flops     4 x    24 x     2            116951040       0.0%    100.0%      0.0%     
 flops     2 x    24 x     4            116951040       0.0%    100.0%      0.0%     
 flops     4 x    24 x     4            233902080       0.0%    100.0%      0.0%     
 flops     2 x    32 x     2            467804160       0.0%    100.0%      0.0%     
 flops     2 x     2 x   216            644474880       0.0%    100.0%      0.0%     
 flops     2 x    32 x     4            935608320       0.0%    100.0%      0.0%     
 flops     4 x    32 x     2            935608320       0.0%    100.0%      0.0%     
 flops     4 x     2 x   216           1254113280       0.0%    100.0%      0.0%     
 flops     2 x     4 x   216           1254113280       0.0%    100.0%      0.0%     
 flops     4 x    32 x     4           1871216640       0.0%    100.0%      0.0%     
 flops     4 x     4 x   216           2577899520       0.0%    100.0%      0.0%     
 flops inhomo. stacks                           0       0.0%      0.0%      0.0%
 flops total                        10.467118E+09       0.0%    100.0%      0.0%
 flops max/rank                     10.467118E+09       0.0%    100.0%      0.0%
 matmuls inhomo. stacks                         0       0.0%      0.0%      0.0%
 matmuls total                            9999360       0.0%    100.0%      0.0%
 number of processed stacks                 11640       0.0%    100.0%      0.0%
 average stack size                                     0.0     859.1       0.0
 marketing flops                    10.380065E+09
 -------------------------------------------------------------------------------
 # multiplications                            795
 max memory usage/rank              13.688693E+09
 # max total images/rank                        1
 # max 3D layers                                1
 # MPI messages exchanged                       0
 -------------------------------------------------------------------------------
 -                                                                             -
 -                      DBCSR MESSAGE PASSING PERFORMANCE                      -
 -                                                                             -
 -------------------------------------------------------------------------------
 ROUTINE             CALLS      AVE VOLUME [Bytes]
 MP_Bcast               13                     12.
 MP_Allreduce         3548                      8.
 MP_Alltoall         24983                 249285.
 MP_ISend             3180                  23914.
 MP_IRecv             3180                  23914.
 -------------------------------------------------------------------------------

 -------------------------------------------------------------------------------
 -                                                                             -
 -                          OFFLOAD MEMPOOL STATISTICS                         -
 -                                                                             -
 -------------------------------------------------------------------------------
 Memory consumption                Number of allocations  Used [MiB]  Size [MiB]
 Device                                                2           0           0
 Host                                                  2           0           0
 -------------------------------------------------------------------------------

 MEMORY| Estimated peak process memory [MiB]                                 184

 -------------------------------------------------------------------------------
 -                                                                             -
 -                         MESSAGE PASSING PERFORMANCE                         -
 -                                                                             -
 -------------------------------------------------------------------------------

 ROUTINE             CALLS      AVE VOLUME [Bytes]
 MP_Group               49
 MP_Bcast             1118                    868.
 MP_Allreduce         9383                    483.
 MP_Sync               608
 MP_comm_split         559
 -------------------------------------------------------------------------------


 -------------------------------------------------------------------------------
 -                                                                             -
 -                           R E F E R E N C E S                               -
 -                                                                             -
 -------------------------------------------------------------------------------
 
 CP2K version 2026.1 (Development Version), the CP2K developers group (2026).
 CP2K is freely available from https://www.cp2k.org/ .
 
 M. Iannuzzi, J. Wilhelm, F. Stein, A. Bussy, H. Elgabarty, D. Golze, A. Hehn, 
 M. Graml, S. Marek, B. Sertcan Gökmen, C. Schran, H. Forbert, R. Z. 
 Khaliullin, A. Kozhevnikov, M. Taillefumier, R. Meli, V. V. Rybkin, M. Brehm, 
 R. Schade, O. Schütt, J. V. Pototschnig, H. Mirhosseini, A. Knüpfer, D. Marx, 
 M. Krack, J. Hutter, T. D. Kühne.
 J. Phys. Chem. B 130, 1237-1310 (2026).
 The CP2K Program Package Made Simple.
 https://doi.org/10.1021/acs.jpcb.5c05851

 A. Katbashev, M. Stahn, T. Rose, V. Alizadeh, M. Friede, C. Plett, P. 
 Steinbach, S. Ehlert.
 J. Phys. Chem. A 129, 2667-2682 (2025).
 Overview on Building Blocks and Applications of Efficient and Robust Extended 
 Tight Binding.
 https://doi.org/10.1021/acs.jpca.4c08263

 T. D. Kühne, M. Iannuzzi, M. Del Ben, V. V. Rybkin, P. Seewald, F. Stein, T. 
 Laino, R. Z. Khaliullin, O. Schütt, F. Schiffmann, D. Golze, J. Wilhelm, S. 
 Chulkov, M. H. Bani-Hashemian, V. Weber, U. Borstnik, M. Taillefumier, A. S. 
 Jakobovits, A. Lazzaro, H. Pabst, T. Müller, R. Schade, M. Guidon, S. 
 Andermatt, N. Holmberg, G. K. Schenter, A. Hehn, A. Bussy, F. Belleflamme, G. 
 Tabacchi, A. Glöß, M. Lass, I. Bethune, C. J. Mundy, C. Plessl, M. Watkins, 
 J. VandeVondele, M. Krack, J. Hutter.
 J. Chem. Phys. 152, 194103 (2020).
 CP2K: An electronic structure and molecular dynamics software package - 
 Quickstep: Efficient and accurate electronic structure calculations.
 https://doi.org/10.1063/5.0007045

 P. Pracht, E. Caldeweyher, S. Ehlert, S. Grimme.
 ChemRxiv, (2019).
 A Robust Non-Self-Consistent Tight-Binding Quantum Chemistry Method for large 
 Molecules.
 https://doi.org/10.26434/chemrxiv.8326202.v1

 S. Grimme, C. Bannwarth, P. Shushkov.
 J. Chem. Theory Comput. 13, 1989 (2017).
 A Robust and Accurate Tight-Binding Quantum Chemical Method for Structures, 
 Vibrational Frequencies, and Noncovalent Interactions of Large Molecular 
 Systems Parametrized for All spd-Block Elements (Z = 1-86).
 https://doi.org/10.1021/acs.jctc.7b00118

 O. Schuett, P. Messmer, J. Hutter, J. VandeVondele.
 Electronic Structure Calculations on Graphics Processing Units, 173-190 (2016).
 GPU-Accelerated Sparse Matrix-Matrix Multiplication for Linear Scaling Density 
 Functional Theory.
 https://doi.org/10.1002/9781118670712.ch8

 A. Heinecke, G. Henry, M. Hutchinson, H. Pabst.
 Proceedings of Intl. Supercomputing Conference, 981-991 (2016).
 LIBXSMM: Accelerating Small Matrix Multiplications by Runtime Code Generation.
 https://doi.org/10.1109/SC.2016.83

 U. Borstnik, J. VandeVondele, V. Weber, J. Hutter.
 Parallel Comput. 40, 47-58 (2014).
 Sparse matrix multiplication: The distributed block-compressed sparse row 
 library.
 https://doi.org/10.1016/j.parco.2014.03.012

 T. D. Kühne, M. Krack, F. R. Mohamed, M. Parrinello.
 Phys. Rev. Lett. 98, 066401 (2007).
 Efficient and accurate Car-Parrinello-like approach to Born-Oppenheimer 
 molecular dynamics.
 https://doi.org/10.1103/PhysRevLett.98.066401

 M. Frigo, S. G. Johnson.
 Proc. IEEE 93, 216-231 (2005).
 The design and implementation of FFTW3.
 https://doi.org/10.1109/JPROC.2004.840301

 J. Kolafa.
 J. Comput. Chem. 25, 335-342 (2004).
 Time-reversible always stable predictor-corrector method for molecular dynamics 
 of polarizable molecules.
 https://doi.org/10.1002/jcc.10385

 N. D. Mermin.
 Phys. Rev. 137, A1441-A1443 (1965).
 Thermal Properties of the Inhomogeneous Electron Gas.
 https://doi.org/10.1103/PhysRev.137.A1441


 -------------------------------------------------------------------------------
 -                                                                             -
 -                                T I M I N G                                  -
 -                                                                             -
 -------------------------------------------------------------------------------
 SUBROUTINE                       CALLS  ASD         SELF TIME        TOTAL TIME
                                MAXIMUM       AVERAGE  MAXIMUM  AVERAGE  MAXIMUM
 CP2K                                 1  1.0    0.004    0.004   39.281   39.281
 cp_cell_opt                          1  2.0    0.000    0.000   39.271   39.271
 geoopt_bfgs                          1  3.0    0.007    0.007   39.271   39.271
 cp_eval_at                          50  4.0    0.006    0.006   39.042   39.042
 qs_forces                           49  5.0    0.003    0.003   38.691   38.691
 build_tblite_matrices               99  7.0   15.973   15.973   16.136   16.136
 rebuild_ks_matrix                  511  9.7    0.001    0.001   15.643   15.643
 build_tblite_ks_matrix             511 10.7   15.632   15.632   15.642   15.642
 qs_ks_update_qs_env_forces          49  6.0    0.000    0.000   15.262   15.262
 qs_energies                         50  6.0    0.002    0.002   14.709   14.709
 qs_energies_init_hamiltonians       50  7.0    0.000    0.000    7.311    7.311
 scf_env_do_scf                      50  7.0    0.001    0.001    5.739    5.739
 scf_env_do_scf_inner_loop          462  8.0    0.110    0.110    5.733    5.733
 qs_scf_new_mos                     462  9.0    0.003    0.003    4.957    4.957
 eigensolver                        462 10.0    0.008    0.008    2.212    2.212
 cp_fm_syevd                        559 10.6    0.002    0.002    2.029    2.029
 cp_fm_syevd_base                   559 11.6    1.963    1.963    1.963    1.963
 dbcsr_multiply_generic             795 12.0    0.028    0.028    1.507    1.507
 init_scf_run                        50  7.0    0.001    0.001    1.472    1.472
 cp_dbcsr_plus_fm_fm_t              560 10.8    0.004    0.004    1.445    1.445
 scf_env_initial_rho_setup           50  8.0    0.000    0.000    1.373    1.373
 wfi_extrapolate                     50  9.0    0.019    0.019    1.373    1.373
 calculate_dm_sparse                511 10.0    0.004    0.004    1.332    1.332
 dbcsr_complete_redistribute       2514 12.2    1.068    1.068    1.287    1.287
 copy_dbcsr_to_fm                  1159 10.6    0.006    0.006    1.172    1.172
 qs_diis_b_step                     412 10.0    0.004    0.004    0.960    0.960
 multiply_cannon                    795 13.0    0.025    0.025    0.828    0.828
 cp_dbcsr_sm_fm_multiply            235 10.4    0.002    0.002    0.791    0.791
 -------------------------------------------------------------------------------

 The number of warnings for this run is : 0
 
 -------------------------------------------------------------------------------
  **** **** ******  **  PROGRAM ENDED AT                 2026-05-23 22:47:42.113
 ***** ** ***  *** **   PROGRAM RAN ON                                spark-c86c
 **    ****   ******    PROGRAM RAN BY                                  kuehne88
 ***** **    ** ** **   PROGRAM PROCESS ID                               2267029
  **** **  *******  **  PROGRAM STOPPED IN /home/kuehne88/periodic-gfn2-benchmar
                                           ks/X23b/runs/cellopt_gamma/GFN1/triox
                                           ane_GFN1_gamma_cellopt
