 DBCSR| CPU Multiplication driver                                           XSMM (U)
 DBCSR| Multrec recursion limit                                              512 (U)
 DBCSR| Multiplication stack size                                           1000 (D)
 DBCSR| Maximum elements for images                                    UNLIMITED (U)
 DBCSR| Multiplicative factor virtual images                                   1 (U)
 DBCSR| Use multiplication densification                                       T (D)
 DBCSR| Multiplication size stacks                                             3 (U)
 DBCSR| Use memory pool for CPU allocation                                     F (U)
 DBCSR| Number of 3D layers                                               SINGLE (U)
 DBCSR| Use MPI memory allocation                                              F (U)
 DBCSR| Use RMA algorithm                                                      F (U)
 DBCSR| Use Communication thread                                               T (U)
 DBCSR| Communication thread load                                             87 (D)
 DBCSR| MPI: My process id                                                     0
 DBCSR| MPI: Number of processes                                               1
 DBCSR| OMP: Current number of threads                                         1
 DBCSR| OMP: Max number of threads                                             1
 DBCSR| Split modifier for TAS multiplication algorithm                  1.0E+00 (U)


  **** **** ******  **  PROGRAM STARTED AT               2026-05-23 22:46:23.211
 ***** ** ***  *** **   PROGRAM STARTED ON                            spark-c86c
 **    ****   ******    PROGRAM STARTED BY                              kuehne88
 ***** **    ** ** **   PROGRAM PROCESS ID                               2238210
  **** **  *******  **  PROGRAM STARTED IN /home/kuehne88/periodic-gfn2-benchmar
                                           ks/X23b/runs/crystal_sp/gamma/GFN2/ur
                                           acil_GFN2_gamma_sp

 CP2K| version string:                 CP2K version 2026.1 (Development Version)
 CP2K| source code revision number:                                   0622d442e4
 CP2K| cp2kflags: omp fftw3 libxc parallel scalapack mpi_f08 xsmm spglib libdftd
 CP2K|            4 dftd4_v3 mctc-lib tblite
 CP2K| is freely available from                            https://www.cp2k.org/
 CP2K| Program compiled at                                   2026-05-23 22:05:08
 CP2K| Program compiled on                                            spark-c86c
 CP2K| Program compiled for                                              aarch64
 CP2K| Data directory path    /home/kuehne88/cp2k-master-tblite-20260523/install
 CP2K| Input file name                                  uracil_GFN2_gamma_sp.inp

 GLOBAL| Force Environment number                                              1
 GLOBAL| Basis set file name                                           BASIS_SET
 GLOBAL| Potential file name                                           POTENTIAL
 GLOBAL| MM Potential file name                                     MM_POTENTIAL
 GLOBAL| Coordinate file name                                      __STD_INPUT__
 GLOBAL| Method name                                                        CP2K
 GLOBAL| Project name                                   uracil_GFN2_gamma_energy
 GLOBAL| Run type                                                         ENERGY
 GLOBAL| FFT library                                                       FFTW3
 GLOBAL| Diagonalization library                                       ScaLAPACK
 GLOBAL| Cholesky decomposition library                                ScaLAPACK
 GLOBAL| DGEMM library                                                      BLAS
 GLOBAL| Direct generalized diagonalization requested                          F
 GLOBAL| Orthonormality check for eigenvectors                          DISABLED
 GLOBAL| Matrix multiplication library                                 ScaLAPACK
 GLOBAL| All-to-all communication in single precision                          F
 GLOBAL| FFTs using library dependent lengths                                  F
 GLOBAL| Grid backend                                                       AUTO
 GLOBAL| Global print level                                                  LOW
 GLOBAL| MPI I/O enabled                                                       T
 GLOBAL| Total number of message passing processes                             1
 GLOBAL| Number of distributed systems (nodes)                                 1
 GLOBAL| Number of threads for this process                                    1
 GLOBAL| This output is from process                                           0
 GLOBAL| OpenMP stack size per thread (OMP_STACKSIZE)                    default
 GLOBAL| CPU model name                                                  UNKNOWN
 GLOBAL| CPUID                                                              2200
 GLOBAL| Compiled for CPUID                                                 2000

 *** HINT in environment.F:970 :: The compiler target flags (arm_arch64)   ***
 *** used to build this binary cannot exploit all extensions of this CPU   ***
 *** model (arm_sve256). Consider compiler target flags as part of FCFLAGS ***
 *** and CFLAGS (ARCH file).                                               ***


 MEMORY| system memory details [Kb]
 MEMORY|                        rank 0           min           max       average
 MEMORY| MemTotal            125508532     125508532     125508532     125508532
 MEMORY| MemFree             105628008     105628008     105628008     105628008
 MEMORY| Buffers                866552        866552        866552        866552
 MEMORY| Cached               13224360      13224360      13224360      13224360
 MEMORY| Slab                  1565312       1565312       1565312       1565312
 MEMORY| SReclaimable           889588        889588        889588        889588
 MEMORY| MemLikelyFree       120608508     120608508     120608508     120608508


 GENERATE|  Preliminary Number of Bonds generated:                             0
 GENERATE|  Achieved consistency in connectivity generation.


                  #####   #####        #     #   #     #       #          
                 #     # #     #      #    ##### #     #   # #####  ####  
                 #     # #           #       #   ###   #       #   #    # 
                 #     #  #####     #        #   #  #  #   #   #   ###### 
                 #   # #       #   #         #   #   # #   #   #   #      
                 #    #  #     #  #          #   #  #  # # #   #    #   # 
                  #### #  #####  #           #   ###   ##  #   #     ###  

                                   GFN2-xTB  
                                 Version 0.0                       
                            Johann V. Pototschnig                  



 TOTAL NUMBERS AND MAXIMUM NUMBERS

  Total number of            - Atomic kinds:                                   4
                             - Atoms:                                         48
                             - Shell sets:                                    80
                             - Shells:                                        80
                             - Primitive Cartesian functions:                304
                             - Cartesian basis functions:                    144
                             - Spherical basis functions:                    144

  Maximum angular momentum of the orbital basis functions:                     1


 SCF PARAMETERS         Density guess:                                     MOPAC
                        --------------------------------------------------------
                        max_scf:                                             300
                        max_scf_history:                                       0
                        max_diis:                                              4
                        --------------------------------------------------------
                        eps_scf:                                        1.00E-09
                        eps_scf_history:                                0.00E+00
                        eps_diis:                                       1.00E-01
                        eps_eigval:                                     1.00E-05
                        --------------------------------------------------------
                        level_shift [a.u.]:                             0.000000
                        added MOs                                        60    0
                        --------------------------------------------------------
                        Mixing method:                           DIRECT_P_MIXING
                        --------------------------------------------------------
                        Smear method:                                FERMI_DIRAC
                        Electronic temperature [K]:                        300.0
                        Electronic temperature [a.u.]:                  9.50E-04
                        Accuracy threshold:                             1.00E-06
                        --------------------------------------------------------
                        No outer SCF

 Extrapolation method: initial_guess

 Number of electrons:                                                        168
 Number of occupied orbitals:                                                 84
 Number of molecular orbitals:                                               144

 Number of orbital functions:                                                144
 Number of independent orbital functions:                                    144


 SCF WAVEFUNCTION OPTIMIZATION

  Step     Update method      Time    Convergence         Total energy    Change
  ------------------------------------------------------------------------------
     1 TBLite/Diag 0.40E+00    0.0     1.12453012       -97.0045463373 -9.70E+01
     2 TBLite/Diag 0.40E+00    0.0     0.34754630       -98.1256115892 -1.12E+00
     3 TBLite/Diag 0.40E+00    0.0     0.13435165       -98.1522451717 -2.66E-02
     4 TBLite/Diag 0.40E+00    0.0     0.09616028       -98.1656331801 -1.34E-02
     5 TBLite/Diag 0.40E+00    0.0     0.05106662       -98.1720503974 -6.42E-03
     6 TBLite/Diag 0.40E+00    0.0     0.01804906       -98.1727967814 -7.46E-04
     7 TBLite/Diag 0.40E+00    0.0     0.00512394       -98.1728949466 -9.82E-05
     8 TBLite/Diag 0.40E+00    0.0     0.00296688       -98.1729019012 -6.95E-06
     9 TBLite/Diag 0.40E+00    0.0     0.00080923       -98.1729073371 -5.44E-06
    10 TBLite/Diag 0.40E+00    0.0     0.00018168       -98.1729071963  1.41E-07
    11 TBLite/Diag 0.40E+00    0.0     0.00017068       -98.1729075157 -3.19E-07
    12 TBLite/Diag 0.40E+00    0.0     0.00005038       -98.1729075255 -9.81E-09
    13 TBLite/Diag 0.40E+00    0.0     0.00002253       -98.1729075260 -5.22E-10
    14 TBLite/Diag 0.40E+00    0.0     0.00000970       -98.1729075264 -3.32E-10
    15 TBLite/Diag 0.40E+00    0.0     0.00000234       -98.1729075264 -6.44E-11
    16 TBLite/Diag 0.40E+00    0.0     0.00000087       -98.1729075264  1.45E-12
    17 TBLite/Diag 0.40E+00    0.0     0.00000091       -98.1729075264 -4.53E-12
    18 TBLite/Diag 0.40E+00    0.0     0.00000021       -98.1729075264 -4.97E-13
    19 TBLite/Diag 0.40E+00    0.0     0.00000003       -98.1729075264  4.26E-14
    20 TBLite/Diag 0.40E+00    0.0     9.3443E-09       -98.1729075264  1.14E-13
    21 TBLite/Diag 0.40E+00    0.0     4.5416E-09       -98.1729075264 -5.68E-14
    22 TBLite/Diag 0.40E+00    0.0     8.7309E-10       -98.1729075264 -9.95E-14

  *** SCF run converged in    22 steps ***


  Core Hamiltonian energy:                                   -100.14974500666359
  Repulsive potential energy:                                   1.81542087187107
  Electrostatic energy:                                         0.27447336436499
  Self-consistent dispersion energy:                           -0.14116796099684
  Non-self consistent dispersion energy:                        0.02811120498653
  Correction for halogen bonding:                               0.00000000000000
  Electronic entropic energy:                                  -0.00000000000000
  Fermi energy:                                                -0.31239889017614

  Total energy:                                               -98.17290752643784
  Total energy (extrapolated to T->0):                        -98.17290752643784

 ENERGY| Total FORCE_EVAL ( QS ) energy [hartree]            -98.172907526437839

 -------------------------------------------------------------------------------
 -                                                                             -
 -                                DBCSR STATISTICS                             -
 -                                                                             -
 -------------------------------------------------------------------------------
 COUNTER                                    TOTAL       BLAS       SMM       ACC
 flops     1 x     1 x   144               861696       0.0%    100.0%      0.0%     
 flops     1 x     4 x   144              6488064       0.0%    100.0%      0.0%     
 flops     4 x     1 x   144              6488064       0.0%    100.0%      0.0%     
 flops     4 x     4 x   144             52512768       0.0%    100.0%      0.0%     
 flops inhomo. stacks                           0       0.0%      0.0%      0.0%
 flops total                        66.350592E+06       0.0%    100.0%      0.0%
 flops max/rank                     66.350592E+06       0.0%    100.0%      0.0%
 matmuls inhomo. stacks                         0       0.0%      0.0%      0.0%
 matmuls total                              25652       0.0%    100.0%      0.0%
 number of processed stacks                    88       0.0%    100.0%      0.0%
 average stack size                                     0.0     291.5       0.0
 marketing flops                    76.640256E+06
 -------------------------------------------------------------------------------
 # multiplications                             22
 max memory usage/rank              13.678191E+09
 # max total images/rank                        1
 # max 3D layers                                1
 # MPI messages exchanged                       0
 -------------------------------------------------------------------------------
 -                                                                             -
 -                      DBCSR MESSAGE PASSING PERFORMANCE                      -
 -                                                                             -
 -------------------------------------------------------------------------------
 ROUTINE             CALLS      AVE VOLUME [Bytes]
 MP_Bcast                5                     12.
 MP_Allreduce          137                     11.
 MP_Alltoall           880                 115387.
 MP_ISend               88                   4800.
 MP_IRecv               88                   4800.
 -------------------------------------------------------------------------------

 -------------------------------------------------------------------------------
 -                                                                             -
 -                          OFFLOAD MEMPOOL STATISTICS                         -
 -                                                                             -
 -------------------------------------------------------------------------------
 Memory consumption                Number of allocations  Used [MiB]  Size [MiB]
 Device                                                1           0           0
 Host                                                  1           0           0
 -------------------------------------------------------------------------------

 MEMORY| Estimated peak process memory [MiB]                                 169

 -------------------------------------------------------------------------------
 -                                                                             -
 -                         MESSAGE PASSING PERFORMANCE                         -
 -                                                                             -
 -------------------------------------------------------------------------------

 ROUTINE             CALLS      AVE VOLUME [Bytes]
 MP_Group                1
 MP_Bcast               44                    578.
 MP_Allreduce          631                    353.
 MP_Sync                23
 MP_comm_split          22
 -------------------------------------------------------------------------------


 -------------------------------------------------------------------------------
 -                                                                             -
 -                           R E F E R E N C E S                               -
 -                                                                             -
 -------------------------------------------------------------------------------
 
 CP2K version 2026.1 (Development Version), the CP2K developers group (2026).
 CP2K is freely available from https://www.cp2k.org/ .
 
 M. Iannuzzi, J. Wilhelm, F. Stein, A. Bussy, H. Elgabarty, D. Golze, A. Hehn, 
 M. Graml, S. Marek, B. Sertcan Gökmen, C. Schran, H. Forbert, R. Z. 
 Khaliullin, A. Kozhevnikov, M. Taillefumier, R. Meli, V. V. Rybkin, M. Brehm, 
 R. Schade, O. Schütt, J. V. Pototschnig, H. Mirhosseini, A. Knüpfer, D. Marx, 
 M. Krack, J. Hutter, T. D. Kühne.
 J. Phys. Chem. B 130, 1237-1310 (2026).
 The CP2K Program Package Made Simple.
 https://doi.org/10.1021/acs.jpcb.5c05851

 A. Katbashev, M. Stahn, T. Rose, V. Alizadeh, M. Friede, C. Plett, P. 
 Steinbach, S. Ehlert.
 J. Phys. Chem. A 129, 2667-2682 (2025).
 Overview on Building Blocks and Applications of Efficient and Robust Extended 
 Tight Binding.
 https://doi.org/10.1021/acs.jpca.4c08263

 T. D. Kühne, M. Iannuzzi, M. Del Ben, V. V. Rybkin, P. Seewald, F. Stein, T. 
 Laino, R. Z. Khaliullin, O. Schütt, F. Schiffmann, D. Golze, J. Wilhelm, S. 
 Chulkov, M. H. Bani-Hashemian, V. Weber, U. Borstnik, M. Taillefumier, A. S. 
 Jakobovits, A. Lazzaro, H. Pabst, T. Müller, R. Schade, M. Guidon, S. 
 Andermatt, N. Holmberg, G. K. Schenter, A. Hehn, A. Bussy, F. Belleflamme, G. 
 Tabacchi, A. Glöß, M. Lass, I. Bethune, C. J. Mundy, C. Plessl, M. Watkins, 
 J. VandeVondele, M. Krack, J. Hutter.
 J. Chem. Phys. 152, 194103 (2020).
 CP2K: An electronic structure and molecular dynamics software package - 
 Quickstep: Efficient and accurate electronic structure calculations.
 https://doi.org/10.1063/5.0007045

 P. Pracht, E. Caldeweyher, S. Ehlert, S. Grimme.
 ChemRxiv, (2019).
 A Robust Non-Self-Consistent Tight-Binding Quantum Chemistry Method for large 
 Molecules.
 https://doi.org/10.26434/chemrxiv.8326202.v1

 S. Grimme, C. Bannwarth, P. Shushkov.
 J. Chem. Theory Comput. 13, 1989 (2017).
 A Robust and Accurate Tight-Binding Quantum Chemical Method for Structures, 
 Vibrational Frequencies, and Noncovalent Interactions of Large Molecular 
 Systems Parametrized for All spd-Block Elements (Z = 1-86).
 https://doi.org/10.1021/acs.jctc.7b00118

 O. Schuett, P. Messmer, J. Hutter, J. VandeVondele.
 Electronic Structure Calculations on Graphics Processing Units, 173-190 (2016).
 GPU-Accelerated Sparse Matrix-Matrix Multiplication for Linear Scaling Density 
 Functional Theory.
 https://doi.org/10.1002/9781118670712.ch8

 A. Heinecke, G. Henry, M. Hutchinson, H. Pabst.
 Proceedings of Intl. Supercomputing Conference, 981-991 (2016).
 LIBXSMM: Accelerating Small Matrix Multiplications by Runtime Code Generation.
 https://doi.org/10.1109/SC.2016.83

 U. Borstnik, J. VandeVondele, V. Weber, J. Hutter.
 Parallel Comput. 40, 47-58 (2014).
 Sparse matrix multiplication: The distributed block-compressed sparse row 
 library.
 https://doi.org/10.1016/j.parco.2014.03.012

 M. Frigo, S. G. Johnson.
 Proc. IEEE 93, 216-231 (2005).
 The design and implementation of FFTW3.
 https://doi.org/10.1109/JPROC.2004.840301

 N. D. Mermin.
 Phys. Rev. 137, A1441-A1443 (1965).
 Thermal Properties of the Inhomogeneous Electron Gas.
 https://doi.org/10.1103/PhysRev.137.A1441


 -------------------------------------------------------------------------------
 -                                                                             -
 -                                T I M I N G                                  -
 -                                                                             -
 -------------------------------------------------------------------------------
 SUBROUTINE                       CALLS  ASD         SELF TIME        TOTAL TIME
                                MAXIMUM       AVERAGE  MAXIMUM  AVERAGE  MAXIMUM
 CP2K                                 1  1.0    0.002    0.002    0.601    0.601
 qs_energies                          1  2.0    0.000    0.000    0.596    0.596
 qs_energies_init_hamiltonians        1  3.0    0.000    0.000    0.426    0.426
 build_tblite_matrices                1  4.0    0.409    0.409    0.424    0.424
 scf_env_do_scf                       1  3.0    0.000    0.000    0.169    0.169
 scf_env_do_scf_inner_loop           22  4.0    0.024    0.024    0.169    0.169
 qs_scf_new_mos                      22  5.0    0.000    0.000    0.093    0.093
 qs_ks_update_qs_env                 22  5.0    0.000    0.000    0.047    0.047
 rebuild_ks_matrix                   22  6.0    0.000    0.000    0.046    0.046
 build_tblite_ks_matrix              22  7.0    0.045    0.045    0.046    0.046
 eigensolver                         22  6.0    0.000    0.000    0.037    0.037
 cp_fm_syevd                         22  7.0    0.000    0.000    0.029    0.029
 cp_fm_syevd_base                    22  8.0    0.028    0.028    0.028    0.028
 calculate_dm_sparse                 22  6.0    0.000    0.000    0.025    0.025
 cp_dbcsr_plus_fm_fm_t               22  7.0    0.000    0.000    0.025    0.025
 copy_dbcsr_to_fm                    44  6.4    0.000    0.000    0.022    0.022
 dbcsr_complete_redistribute         88  8.2    0.017    0.017    0.021    0.021
 qs_diis_b_step                      21  6.0    0.000    0.000    0.018    0.018
 dbcsr_multiply_generic              22  8.0    0.001    0.001    0.016    0.016
 tb_get_multipole                     1  5.0    0.012    0.012    0.015    0.015
 -------------------------------------------------------------------------------

 The number of warnings for this run is : 0
 
 -------------------------------------------------------------------------------
  **** **** ******  **  PROGRAM ENDED AT                 2026-05-23 22:46:24.289
 ***** ** ***  *** **   PROGRAM RAN ON                                spark-c86c
 **    ****   ******    PROGRAM RAN BY                                  kuehne88
 ***** **    ** ** **   PROGRAM PROCESS ID                               2238210
  **** **  *******  **  PROGRAM STOPPED IN /home/kuehne88/periodic-gfn2-benchmar
                                           ks/X23b/runs/crystal_sp/gamma/GFN2/ur
                                           acil_GFN2_gamma_sp
