 DBCSR| CPU Multiplication driver                                           XSMM (U)
 DBCSR| Multrec recursion limit                                              512 (U)
 DBCSR| Multiplication stack size                                           1000 (D)
 DBCSR| Maximum elements for images                                    UNLIMITED (U)
 DBCSR| Multiplicative factor virtual images                                   1 (U)
 DBCSR| Use multiplication densification                                       T (D)
 DBCSR| Multiplication size stacks                                             3 (U)
 DBCSR| Use memory pool for CPU allocation                                     F (U)
 DBCSR| Number of 3D layers                                               SINGLE (U)
 DBCSR| Use MPI memory allocation                                              F (U)
 DBCSR| Use RMA algorithm                                                      F (U)
 DBCSR| Use Communication thread                                               T (U)
 DBCSR| Communication thread load                                             75 (D)
 DBCSR| MPI: My process id                                                     0
 DBCSR| MPI: Number of processes                                               1
 DBCSR| OMP: Current number of threads                                         4
 DBCSR| OMP: Max number of threads                                             4
 DBCSR| Split modifier for TAS multiplication algorithm                  1.0E+00 (U)


  **** **** ******  **  PROGRAM STARTED AT               2026-05-23 20:13:49.709
 ***** ** ***  *** **   PROGRAM STARTED ON                            spark-c86c
 **    ****   ******    PROGRAM STARTED BY                              kuehne88
 ***** **    ** ** **   PROGRAM PROCESS ID                               2114216
  **** **  *******  **  PROGRAM STARTED IN /home/kuehne88/periodic-gfn2-benchmar
                                           ks/DMC-ICE13/runs_kpoints/k333/GFN2/I
                                           I

 CP2K| version string:                 CP2K version 2026.1 (Development Version)
 CP2K| source code revision number:                                   95e0cafc31
 CP2K| cp2kflags: omp libint fftw3 libxc parallel scalapack mpi_f08 xsmm spglib 
 CP2K|            libdftd4 dftd4_v3 mctc-lib tblite
 CP2K| is freely available from                            https://www.cp2k.org/
 CP2K| Program compiled at                                   2026-05-10 16:03:07
 CP2K| Program compiled on                                            spark-c86c
 CP2K| Program compiled for                                              aarch64
 CP2K| Data directory path                     /home/kuehne88/cp2k-xtb/cp2k/data
 CP2K| Input file name                                      ice_II_GFN2_k333.inp

 GLOBAL| Force Environment number                                              1
 GLOBAL| Basis set file name                                           BASIS_SET
 GLOBAL| Potential file name                                           POTENTIAL
 GLOBAL| MM Potential file name                                     MM_POTENTIAL
 GLOBAL| Coordinate file name                                      __STD_INPUT__
 GLOBAL| Method name                                                        CP2K
 GLOBAL| Project name                                           ice_II_GFN2_k333
 GLOBAL| Run type                                                         ENERGY
 GLOBAL| FFT library                                                       FFTW3
 GLOBAL| Diagonalization library                                       ScaLAPACK
 GLOBAL| Cholesky decomposition library                                ScaLAPACK
 GLOBAL| DGEMM library                                                      BLAS
 GLOBAL| Direct generalized diagonalization requested                          F
 GLOBAL| Orthonormality check for eigenvectors                          DISABLED
 GLOBAL| Matrix multiplication library                                 ScaLAPACK
 GLOBAL| All-to-all communication in single precision                          F
 GLOBAL| FFTs using library dependent lengths                                  F
 GLOBAL| Grid backend                                                       AUTO
 GLOBAL| Global print level                                                  LOW
 GLOBAL| MPI I/O enabled                                                       T
 GLOBAL| Total number of message passing processes                             1
 GLOBAL| Number of distributed systems (nodes)                                 1
 GLOBAL| Number of threads for this process                                    4
 GLOBAL| This output is from process                                           0
 GLOBAL| OpenMP stack size per thread (OMP_STACKSIZE)                    default
 GLOBAL| CPU model name                                                  UNKNOWN
 GLOBAL| CPUID                                                              2200
 GLOBAL| Compiled for CPUID                                                 2000

 *** HINT in environment.F:974 :: The compiler target flags (arm_arch64)   ***
 *** used to build this binary cannot exploit all extensions of this CPU   ***
 *** model (arm_sve256). Consider compiler target flags as part of FCFLAGS ***
 *** and CFLAGS (ARCH file).                                               ***


 MEMORY| system memory details [Kb]
 MEMORY|                        rank 0           min           max       average
 MEMORY| MemTotal            125508532     125508532     125508532     125508532
 MEMORY| MemFree             115826440     115826440     115826440     115826440
 MEMORY| Buffers                362844        362844        362844        362844
 MEMORY| Cached                5073252       5073252       5073252       5073252
 MEMORY| Slab                  1134648       1134648       1134648       1134648
 MEMORY| SReclaimable           476332        476332        476332        476332
 MEMORY| MemLikelyFree       121738868     121738868     121738868     121738868


 *** WARNING in cell_methods.F:457 :: Cell vectors are read but cell   ***
 *** matrix is not a lower triangle, not conforming to the program     ***
 *** convention that A lies along the X-axis and B is in the XY plane. ***


 GENERATE|  Preliminary Number of Bonds generated:                             0
 GENERATE|  Achieved consistency in connectivity generation.


                  #####   #####        #     #   #     #       #          
                 #     # #     #      #    ##### #     #   # #####  ####  
                 #     # #           #       #   ###   #       #   #    # 
                 #     #  #####     #        #   #  #  #   #   #   ###### 
                 #   # #       #   #         #   #   # #   #   #   #      
                 #    #  #     #  #          #   #  #  # # #   #    #   # 
                  #### #  #####  #           #   ###   ##  #   #     ###  

                                   GFN2-xTB  
                                 Version 0.0                       
                            Johann V. Pototschnig                  



 TOTAL NUMBERS AND MAXIMUM NUMBERS

  Total number of            - Atomic kinds:                                   2
                             - Atoms:                                         36
                             - Shell sets:                                    48
                             - Shells:                                        48
                             - Primitive Cartesian functions:                168
                             - Cartesian basis functions:                     72
                             - Spherical basis functions:                     72

  Maximum angular momentum of the orbital basis functions:                     1


 SCF PARAMETERS         Density guess:                                     MOPAC
                        --------------------------------------------------------
                        max_scf:                                             300
                        max_scf_history:                                       0
                        max_diis:                                              4
                        --------------------------------------------------------
                        eps_scf:                                        1.00E-09
                        eps_scf_history:                                0.00E+00
                        eps_diis:                                       1.00E-01
                        eps_eigval:                                     1.00E-05
                        --------------------------------------------------------
                        level_shift [a.u.]:                             0.000000
                        added MOs                                        24    0
                        --------------------------------------------------------
                        Mixing method:                           DIRECT_P_MIXING
                        --------------------------------------------------------
                        Smear method:                                FERMI_DIRAC
                        Electronic temperature [K]:                        300.0
                        Electronic temperature [a.u.]:                  9.50E-04
                        Accuracy threshold:                             1.00E-06
                        --------------------------------------------------------
                        No outer SCF

 Extrapolation method: initial_guess

 Number of electrons:                                                         96
 Number of occupied orbitals:                                                 48
 Number of molecular orbitals:                                                72

 Number of orbital functions:                                                 72
 Number of independent orbital functions:                                     72


 SCF WAVEFUNCTION OPTIMIZATION

  Step     Update method      Time    Convergence         Total energy    Change
  ------------------------------------------------------------------------------
     1 TBLite/Diag 0.40E+00    0.3     0.73253188       -60.9053207684 -6.09E+01
     2 TBLite/Diag 0.40E+00    0.3     0.06979754       -61.0599682875 -1.55E-01
     3 TBLite/Diag 0.40E+00    0.3     0.09690976       -61.1228810386 -6.29E-02
     4 TBLite/Diag 0.40E+00    0.3     0.06517911       -61.1092896092  1.36E-02
     5 TBLite/Diag 0.40E+00    0.4     0.04328317       -61.1255802002 -1.63E-02
     6 TBLite/Diag 0.40E+00    0.3     0.00074383       -61.1255848044 -4.60E-06
     7 TBLite/Diag 0.40E+00    0.4     0.00083743       -61.1255892208 -4.42E-06
     8 TBLite/Diag 0.40E+00    0.4     0.00012378       -61.1255894143 -1.94E-07
     9 TBLite/Diag 0.40E+00    0.4     0.00007548       -61.1255894817 -6.74E-08
    10 TBLite/Diag 0.40E+00    0.3     0.00001916       -61.1255894847 -2.93E-09
    11 TBLite/Diag 0.40E+00    0.4     0.00000040       -61.1255894847 -8.95E-13
    12 TBLite/Diag 0.40E+00    0.4     0.00000025       -61.1255894847 -8.03E-13
    13 TBLite/Diag 0.40E+00    0.4     0.00000011       -61.1255894847 -8.53E-14
    14 TBLite/Diag 0.40E+00    0.3     0.00000002       -61.1255894847  3.55E-14
    15 TBLite/Diag 0.40E+00    0.3     2.1886E-09       -61.1255894847 -1.42E-14
    16 TBLite/Diag 0.40E+00    0.4     2.0297E-10       -61.1255894847 -1.42E-14

  *** SCF run converged in    16 steps ***


  Core Hamiltonian energy:                                    -61.66009297293495
  Repulsive potential energy:                                   0.30321855266007
  Electrostatic energy:                                         0.27065239545337
  Self-consistent dispersion energy:                           -0.04860821013775
  Non-self consistent dispersion energy:                        0.00924075029551
  Correction for halogen bonding:                               0.00000000000000
  Electronic entropic energy:                                  -0.00000000000000
  Fermi energy:                                                -0.17090747729061

  Total energy:                                               -61.12558948466376
  Total energy (extrapolated to T->0):                        -61.12558948466376

 ENERGY| Total FORCE_EVAL ( QS ) energy [hartree]            -61.125589484663763

 -------------------------------------------------------------------------------
 -                                                                             -
 -                                DBCSR STATISTICS                             -
 -                                                                             -
 -------------------------------------------------------------------------------
 COUNTER                                    TOTAL       BLAS       SMM       ACC
 flops inhomo. stacks                           0       0.0%      0.0%      0.0%
 flops total                         0.000000E+00       0.0%      0.0%      0.0%
 flops max/rank                      0.000000E+00       0.0%      0.0%      0.0%
 matmuls inhomo. stacks                         0       0.0%      0.0%      0.0%
 matmuls total                                  0       0.0%      0.0%      0.0%
 number of processed stacks                     0       0.0%      0.0%      0.0%
 average stack size                                     0.0       0.0       0.0
 marketing flops                     0.000000E+00
 -------------------------------------------------------------------------------
 -                                                                             -
 -                      DBCSR MESSAGE PASSING PERFORMANCE                      -
 -                                                                             -
 -------------------------------------------------------------------------------
 ROUTINE             CALLS      AVE VOLUME [Bytes]
 MP_Bcast                1                     12.
 MP_Allreduce           19                     21.
 MP_Alltoall         36342                  38400.
 -------------------------------------------------------------------------------

 -------------------------------------------------------------------------------
 -                                                                             -
 -                          OFFLOAD MEMPOOL STATISTICS                         -
 -                                                                             -
 -------------------------------------------------------------------------------
 Memory consumption                Number of allocations  Used [MiB]  Size [MiB]
 Device                                                1           0           0
 Host                                                  1           0           0
 -------------------------------------------------------------------------------

 MEMORY| Estimated peak process memory [MiB]                                 240

 -------------------------------------------------------------------------------
 -                                                                             -
 -                         MESSAGE PASSING PERFORMANCE                         -
 -                                                                             -
 -------------------------------------------------------------------------------

 ROUTINE             CALLS      AVE VOLUME [Bytes]
 MP_Group                1
 MP_Bcast            15892                      7.
 MP_Allreduce        23306                    317.
 MP_Sync                 1
 MP_Wait             13230
 MP_ISend            18522                   5930.
 MP_IRecv            18522                   5930.
 -------------------------------------------------------------------------------


 -------------------------------------------------------------------------------
 -                                                                             -
 -                           R E F E R E N C E S                               -
 -                                                                             -
 -------------------------------------------------------------------------------
 
 CP2K version 2026.1 (Development Version), the CP2K developers group (2026).
 CP2K is freely available from https://www.cp2k.org/ .
 
 M. Iannuzzi, J. Wilhelm, F. Stein, A. Bussy, H. Elgabarty, D. Golze, A. Hehn, 
 M. Graml, S. Marek, B. Sertcan Gökmen, C. Schran, H. Forbert, R. Z. 
 Khaliullin, A. Kozhevnikov, M. Taillefumier, R. Meli, V. V. Rybkin, M. Brehm, 
 R. Schade, O. Schütt, J. V. Pototschnig, H. Mirhosseini, A. Knüpfer, D. Marx, 
 M. Krack, J. Hutter, T. D. Kühne.
 J. Phys. Chem. B 130, 1237-1310 (2026).
 The CP2K Program Package Made Simple.
 https://doi.org/10.1021/acs.jpcb.5c05851

 A. Katbashev, M. Stahn, T. Rose, V. Alizadeh, M. Friede, C. Plett, P. 
 Steinbach, S. Ehlert.
 J. Phys. Chem. A 129, 2667-2682 (2025).
 Overview on Building Blocks and Applications of Efficient and Robust Extended 
 Tight Binding.
 https://doi.org/10.1021/acs.jpca.4c08263

 T. D. Kühne, M. Iannuzzi, M. Del Ben, V. V. Rybkin, P. Seewald, F. Stein, T. 
 Laino, R. Z. Khaliullin, O. Schütt, F. Schiffmann, D. Golze, J. Wilhelm, S. 
 Chulkov, M. H. Bani-Hashemian, V. Weber, U. Borstnik, M. Taillefumier, A. S. 
 Jakobovits, A. Lazzaro, H. Pabst, T. Müller, R. Schade, M. Guidon, S. 
 Andermatt, N. Holmberg, G. K. Schenter, A. Hehn, A. Bussy, F. Belleflamme, G. 
 Tabacchi, A. Glöß, M. Lass, I. Bethune, C. J. Mundy, C. Plessl, M. Watkins, 
 J. VandeVondele, M. Krack, J. Hutter.
 J. Chem. Phys. 152, 194103 (2020).
 CP2K: An electronic structure and molecular dynamics software package - 
 Quickstep: Efficient and accurate electronic structure calculations.
 https://doi.org/10.1063/5.0007045

 P. Pracht, E. Caldeweyher, S. Ehlert, S. Grimme.
 ChemRxiv, (2019).
 A Robust Non-Self-Consistent Tight-Binding Quantum Chemistry Method for large 
 Molecules.
 https://doi.org/10.26434/chemrxiv.8326202.v1

 A. Togo, I. Tanaka.
 arXiv, 1808.01590 (2018).
 Spglib : a software library for crystal symmetry search.

 S. Grimme, C. Bannwarth, P. Shushkov.
 J. Chem. Theory Comput. 13, 1989 (2017).
 A Robust and Accurate Tight-Binding Quantum Chemical Method for Structures, 
 Vibrational Frequencies, and Noncovalent Interactions of Large Molecular 
 Systems Parametrized for All spd-Block Elements (Z = 1-86).
 https://doi.org/10.1021/acs.jctc.7b00118

 O. Schuett, P. Messmer, J. Hutter, J. VandeVondele.
 Electronic Structure Calculations on Graphics Processing Units, 173-190 (2016).
 GPU-Accelerated Sparse Matrix-Matrix Multiplication for Linear Scaling Density 
 Functional Theory.
 https://doi.org/10.1002/9781118670712.ch8

 A. Heinecke, G. Henry, M. Hutchinson, H. Pabst.
 Proceedings of Intl. Supercomputing Conference, 981-991 (2016).
 LIBXSMM: Accelerating Small Matrix Multiplications by Runtime Code Generation.
 https://doi.org/10.1109/SC.2016.83

 U. Borstnik, J. VandeVondele, V. Weber, J. Hutter.
 Parallel Comput. 40, 47-58 (2014).
 Sparse matrix multiplication: The distributed block-compressed sparse row 
 library.
 https://doi.org/10.1016/j.parco.2014.03.012

 M. Frigo, S. G. Johnson.
 Proc. IEEE 93, 216-231 (2005).
 The design and implementation of FFTW3.
 https://doi.org/10.1109/JPROC.2004.840301

 N. D. Mermin.
 Phys. Rev. 137, A1441-A1443 (1965).
 Thermal Properties of the Inhomogeneous Electron Gas.
 https://doi.org/10.1103/PhysRev.137.A1441


 -------------------------------------------------------------------------------
 -                                                                             -
 -                                T I M I N G                                  -
 -                                                                             -
 -------------------------------------------------------------------------------
 SUBROUTINE                       CALLS  ASD         SELF TIME        TOTAL TIME
                                MAXIMUM       AVERAGE  MAXIMUM  AVERAGE  MAXIMUM
 CP2K                                 1  1.0    0.005    0.005    5.972    5.972
 qs_energies                          1  2.0    0.000    0.000    5.963    5.963
 scf_env_do_scf                       1  3.0    0.000    0.000    5.565    5.565
 scf_env_do_scf_inner_loop           16  4.0    0.447    0.447    5.565    5.565
 qs_scf_new_mos_kp                   16  5.0    0.000    0.000    4.355    4.355
 do_general_diag_kp                  16  6.0    0.007    0.007    4.354    4.354
 kpoint_density_transform            16  7.0    0.002    0.002    1.718    1.718
 copy_fm_to_dbcsr                   864  8.0    0.003    0.003    1.291    1.291
 dbcsr_complete_redistribute       2646  8.3    0.450    0.450    1.257    1.257
 copy_dbcsr_to_fm                  1782  6.9    0.009    0.009    1.188    1.188
 dbcsr_finalize                   10236  7.9    0.024    0.024    0.796    0.796
 rskp_transform                     891  6.9    0.766    0.766    0.766    0.766
 dbcsr_merge_all                   2646 10.3    0.640    0.640    0.716    0.716
 dbcsr_copy                        2752  7.3    0.031    0.031    0.697    0.697
 qs_ks_update_qs_env                 16  5.0    0.000    0.000    0.669    0.669
 dbcsr_copy_into_existing           864 10.0    0.663    0.663    0.665    0.665
 rebuild_ks_matrix                   16  6.0    0.000    0.000    0.628    0.628
 build_tblite_ks_matrix              16  7.0    0.605    0.605    0.627    0.627
 transform_dmat                     432  8.0    0.378    0.378    0.378    0.378
 cp_cfm_geeig                       432  7.0    0.001    0.001    0.358    0.358
 dbcsr_create_new                 12185  8.0    0.311    0.311    0.317    0.317
 dbcsr_desymmetrize_deep           3564  7.4    0.226    0.226    0.317    0.317
 qs_energies_init_hamiltonians        1  3.0    0.000    0.000    0.289    0.289
 build_tblite_matrices                1  4.0    0.124    0.124    0.279    0.279
 cp_cfm_heevd                       432  8.0    0.000    0.000    0.259    0.259
 cp_cfm_heevd_base                  432  9.0    0.259    0.259    0.259    0.259
 cp_dbcsr_alloc_block_from_nbl     1423  5.8    0.152    0.152    0.177    0.177
 tb_get_multipole                     1  5.0    0.009    0.009    0.140    0.140
 -------------------------------------------------------------------------------

 The number of warnings for this run is : 1
 
 -------------------------------------------------------------------------------
  **** **** ******  **  PROGRAM ENDED AT                 2026-05-23 20:13:55.934
 ***** ** ***  *** **   PROGRAM RAN ON                                spark-c86c
 **    ****   ******    PROGRAM RAN BY                                  kuehne88
 ***** **    ** ** **   PROGRAM PROCESS ID                               2114216
  **** **  *******  **  PROGRAM STOPPED IN /home/kuehne88/periodic-gfn2-benchmar
                                           ks/DMC-ICE13/runs_kpoints/k333/GFN2/I
                                           I
