 DBCSR| CPU Multiplication driver                                           XSMM (U)
 DBCSR| Multrec recursion limit                                              512 (U)
 DBCSR| Multiplication stack size                                           1000 (D)
 DBCSR| Maximum elements for images                                    UNLIMITED (U)
 DBCSR| Multiplicative factor virtual images                                   1 (U)
 DBCSR| Use multiplication densification                                       T (D)
 DBCSR| Multiplication size stacks                                             3 (U)
 DBCSR| Use memory pool for CPU allocation                                     F (U)
 DBCSR| Number of 3D layers                                               SINGLE (U)
 DBCSR| Use MPI memory allocation                                              F (U)
 DBCSR| Use RMA algorithm                                                      F (U)
 DBCSR| Use Communication thread                                               T (U)
 DBCSR| Communication thread load                                             87 (D)
 DBCSR| MPI: My process id                                                     0
 DBCSR| MPI: Number of processes                                               1
 DBCSR| OMP: Current number of threads                                         1
 DBCSR| OMP: Max number of threads                                             1
 DBCSR| Split modifier for TAS multiplication algorithm                  1.0E+00 (U)


  **** **** ******  **  PROGRAM STARTED AT               2026-05-23 22:46:29.168
 ***** ** ***  *** **   PROGRAM STARTED ON                            spark-c86c
 **    ****   ******    PROGRAM STARTED BY                              kuehne88
 ***** **    ** ** **   PROGRAM PROCESS ID                               2250018
  **** **  *******  **  PROGRAM STARTED IN /home/kuehne88/periodic-gfn2-benchmar
                                           ks/X23b/runs/crystal_sp/k222/GFN1/pyr
                                           azole_GFN1_k222_sp

 CP2K| version string:                 CP2K version 2026.1 (Development Version)
 CP2K| source code revision number:                                   0622d442e4
 CP2K| cp2kflags: omp fftw3 libxc parallel scalapack mpi_f08 xsmm spglib libdftd
 CP2K|            4 dftd4_v3 mctc-lib tblite
 CP2K| is freely available from                            https://www.cp2k.org/
 CP2K| Program compiled at                                   2026-05-23 22:05:08
 CP2K| Program compiled on                                            spark-c86c
 CP2K| Program compiled for                                              aarch64
 CP2K| Data directory path    /home/kuehne88/cp2k-master-tblite-20260523/install
 CP2K| Input file name                                 pyrazole_GFN1_k222_sp.inp

 GLOBAL| Force Environment number                                              1
 GLOBAL| Basis set file name                                           BASIS_SET
 GLOBAL| Potential file name                                           POTENTIAL
 GLOBAL| MM Potential file name                                     MM_POTENTIAL
 GLOBAL| Coordinate file name                                      __STD_INPUT__
 GLOBAL| Method name                                                        CP2K
 GLOBAL| Project name                                  pyrazole_GFN1_k222_energy
 GLOBAL| Run type                                                         ENERGY
 GLOBAL| FFT library                                                       FFTW3
 GLOBAL| Diagonalization library                                       ScaLAPACK
 GLOBAL| Cholesky decomposition library                                ScaLAPACK
 GLOBAL| DGEMM library                                                      BLAS
 GLOBAL| Direct generalized diagonalization requested                          F
 GLOBAL| Orthonormality check for eigenvectors                          DISABLED
 GLOBAL| Matrix multiplication library                                 ScaLAPACK
 GLOBAL| All-to-all communication in single precision                          F
 GLOBAL| FFTs using library dependent lengths                                  F
 GLOBAL| Grid backend                                                       AUTO
 GLOBAL| Global print level                                                  LOW
 GLOBAL| MPI I/O enabled                                                       T
 GLOBAL| Total number of message passing processes                             1
 GLOBAL| Number of distributed systems (nodes)                                 1
 GLOBAL| Number of threads for this process                                    1
 GLOBAL| This output is from process                                           0
 GLOBAL| OpenMP stack size per thread (OMP_STACKSIZE)                    default
 GLOBAL| CPU model name                                                  UNKNOWN
 GLOBAL| CPUID                                                              2200
 GLOBAL| Compiled for CPUID                                                 2000

 *** HINT in environment.F:970 :: The compiler target flags (arm_arch64)   ***
 *** used to build this binary cannot exploit all extensions of this CPU   ***
 *** model (arm_sve256). Consider compiler target flags as part of FCFLAGS ***
 *** and CFLAGS (ARCH file).                                               ***


 MEMORY| system memory details [Kb]
 MEMORY|                        rank 0           min           max       average
 MEMORY| MemTotal            125508532     125508532     125508532     125508532
 MEMORY| MemFree             103653408     103653408     103653408     103653408
 MEMORY| Buffers                867248        867248        867248        867248
 MEMORY| Cached               13462004      13462004      13462004      13462004
 MEMORY| Slab                  1575004       1575004       1575004       1575004
 MEMORY| SReclaimable           897000        897000        897000        897000
 MEMORY| MemLikelyFree       118879660     118879660     118879660     118879660


 GENERATE|  Preliminary Number of Bonds generated:                             0
 GENERATE|  Achieved consistency in connectivity generation.


                  #####   #####        #     #   #     #       #          
                 #     # #     #      #    ##### #     #   # #####  ####  
                 #     # #           #       #   ###   #       #   #    # 
                 #     #  #####     #        #   #  #  #   #   #   ###### 
                 #   # #       #   #         #   #   # #   #   #   #      
                 #    #  #     #  #          #   #  #  # # #   #    #   # 
                  #### #  #####  #           #   ###   ##  #   #     ###  

                                   GFN1-xTB  
                                 Version 0.0                       
                            Johann V. Pototschnig                  



 TOTAL NUMBERS AND MAXIMUM NUMBERS

  Total number of            - Atomic kinds:                                   3
                             - Atoms:                                         72
                             - Shell sets:                                   144
                             - Shells:                                       144
                             - Primitive Cartesian functions:                832
                             - Cartesian basis functions:                    224
                             - Spherical basis functions:                    224

  Maximum angular momentum of the orbital basis functions:                     1


 SCF PARAMETERS         Density guess:                                     MOPAC
                        --------------------------------------------------------
                        max_scf:                                             300
                        max_scf_history:                                       0
                        max_diis:                                              4
                        --------------------------------------------------------
                        eps_scf:                                        1.00E-09
                        eps_scf_history:                                0.00E+00
                        eps_diis:                                       1.00E-01
                        eps_eigval:                                     1.00E-05
                        --------------------------------------------------------
                        level_shift [a.u.]:                             0.000000
                        added MOs                                       120    0
                        --------------------------------------------------------
                        Mixing method:                           DIRECT_P_MIXING
                        --------------------------------------------------------
                        Smear method:                                FERMI_DIRAC
                        Electronic temperature [K]:                        300.0
                        Electronic temperature [a.u.]:                  9.50E-04
                        Accuracy threshold:                             1.00E-06
                        --------------------------------------------------------
                        No outer SCF

 Extrapolation method: initial_guess

 Number of electrons:                                                        208
 Number of occupied orbitals:                                                104
 Number of molecular orbitals:                                               224

 Number of orbital functions:                                                224
 Number of independent orbital functions:                                    224


 SCF WAVEFUNCTION OPTIMIZATION

  Step     Update method      Time    Convergence         Total energy    Change
  ------------------------------------------------------------------------------
     1 TBLite/Diag 0.40E+00    0.4     1.41638924      -117.9952295363 -1.18E+02
     2 TBLite/Diag 0.40E+00    0.3     0.24861721      -118.4077444220 -4.13E-01
     3 TBLite/Diag 0.40E+00    0.3     0.12566954      -118.3729642249  3.48E-02
     4 TBLite/Diag 0.40E+00    0.3     0.08812884      -118.4558037936 -8.28E-02
     5 TBLite/Diag 0.40E+00    0.3     0.01162172      -118.4569362044 -1.13E-03
     6 TBLite/Diag 0.40E+00    0.4     0.00154898      -118.4569757617 -3.96E-05
     7 TBLite/Diag 0.40E+00    0.3     0.00063113      -118.4569810318 -5.27E-06
     8 TBLite/Diag 0.40E+00    0.3     0.00017221      -118.4569812608 -2.29E-07
     9 TBLite/Diag 0.40E+00    0.3     0.00004146      -118.4569812754 -1.46E-08
    10 TBLite/Diag 0.40E+00    0.3     0.00000351      -118.4569812755 -1.93E-10
    11 TBLite/Diag 0.40E+00    0.3     0.00000081      -118.4569812755 -2.19E-12
    12 TBLite/Diag 0.40E+00    0.3     0.00000013      -118.4569812755 -4.26E-14
    13 TBLite/Diag 0.40E+00    0.3     0.00000006      -118.4569812755 -1.99E-13
    14 TBLite/Diag 0.40E+00    0.3     9.4212E-09      -118.4569812755 -4.26E-14
    15 TBLite/Diag 0.40E+00    0.3     5.7721E-09      -118.4569812755  1.71E-13
    16 TBLite/Diag 0.40E+00    0.3     2.8927E-10      -118.4569812755 -5.68E-14

  *** SCF run converged in    16 steps ***


  Core Hamiltonian energy:                                   -121.02159304830458
  Repulsive potential energy:                                   2.57531778835897
  Electrostatic energy:                                         0.11735296806324
  Self-consistent dispersion energy:                            0.00000000000000
  Non-self consistent dispersion energy:                       -0.12805898366707
  Correction for halogen bonding:                               0.00000000000000
  Electronic entropic energy:                                  -0.00000000000000
  Fermi energy:                                                -0.33930105340220

  Total energy:                                              -118.45698127554944
  Total energy (extrapolated to T->0):                       -118.45698127554944

 ENERGY| Total FORCE_EVAL ( QS ) energy [hartree]           -118.456981275549438

 -------------------------------------------------------------------------------
 -                                                                             -
 -                                DBCSR STATISTICS                             -
 -                                                                             -
 -------------------------------------------------------------------------------
 COUNTER                                    TOTAL       BLAS       SMM       ACC
 flops inhomo. stacks                           0       0.0%      0.0%      0.0%
 flops total                         0.000000E+00       0.0%      0.0%      0.0%
 flops max/rank                      0.000000E+00       0.0%      0.0%      0.0%
 matmuls inhomo. stacks                         0       0.0%      0.0%      0.0%
 matmuls total                                  0       0.0%      0.0%      0.0%
 number of processed stacks                     0       0.0%      0.0%      0.0%
 average stack size                                     0.0       0.0       0.0
 marketing flops                     0.000000E+00
 -------------------------------------------------------------------------------
 -                                                                             -
 -                      DBCSR MESSAGE PASSING PERFORMANCE                      -
 -                                                                             -
 -------------------------------------------------------------------------------
 ROUTINE             CALLS      AVE VOLUME [Bytes]
 MP_Bcast                1                     12.
 MP_Allreduce           19                     21.
 MP_Alltoall         11356                 303768.
 -------------------------------------------------------------------------------

 -------------------------------------------------------------------------------
 -                                                                             -
 -                          OFFLOAD MEMPOOL STATISTICS                         -
 -                                                                             -
 -------------------------------------------------------------------------------
 Memory consumption                Number of allocations  Used [MiB]  Size [MiB]
 Device                                                1           0           0
 Host                                                  1           0           0
 -------------------------------------------------------------------------------

 MEMORY| Estimated peak process memory [MiB]                                 327

 -------------------------------------------------------------------------------
 -                                                                             -
 -                         MESSAGE PASSING PERFORMANCE                         -
 -                                                                             -
 -------------------------------------------------------------------------------

 ROUTINE             CALLS      AVE VOLUME [Bytes]
 MP_Group                1
 MP_Bcast             4720                      7.
 MP_Allreduce         4478                    871.
 MP_Sync                 1
 MP_Wait              3920
 MP_ISend             5488                  57350.
 MP_IRecv             5488                  57350.
 -------------------------------------------------------------------------------


 -------------------------------------------------------------------------------
 -                                                                             -
 -                           R E F E R E N C E S                               -
 -                                                                             -
 -------------------------------------------------------------------------------
 
 CP2K version 2026.1 (Development Version), the CP2K developers group (2026).
 CP2K is freely available from https://www.cp2k.org/ .
 
 M. Iannuzzi, J. Wilhelm, F. Stein, A. Bussy, H. Elgabarty, D. Golze, A. Hehn, 
 M. Graml, S. Marek, B. Sertcan Gökmen, C. Schran, H. Forbert, R. Z. 
 Khaliullin, A. Kozhevnikov, M. Taillefumier, R. Meli, V. V. Rybkin, M. Brehm, 
 R. Schade, O. Schütt, J. V. Pototschnig, H. Mirhosseini, A. Knüpfer, D. Marx, 
 M. Krack, J. Hutter, T. D. Kühne.
 J. Phys. Chem. B 130, 1237-1310 (2026).
 The CP2K Program Package Made Simple.
 https://doi.org/10.1021/acs.jpcb.5c05851

 A. Katbashev, M. Stahn, T. Rose, V. Alizadeh, M. Friede, C. Plett, P. 
 Steinbach, S. Ehlert.
 J. Phys. Chem. A 129, 2667-2682 (2025).
 Overview on Building Blocks and Applications of Efficient and Robust Extended 
 Tight Binding.
 https://doi.org/10.1021/acs.jpca.4c08263

 T. D. Kühne, M. Iannuzzi, M. Del Ben, V. V. Rybkin, P. Seewald, F. Stein, T. 
 Laino, R. Z. Khaliullin, O. Schütt, F. Schiffmann, D. Golze, J. Wilhelm, S. 
 Chulkov, M. H. Bani-Hashemian, V. Weber, U. Borstnik, M. Taillefumier, A. S. 
 Jakobovits, A. Lazzaro, H. Pabst, T. Müller, R. Schade, M. Guidon, S. 
 Andermatt, N. Holmberg, G. K. Schenter, A. Hehn, A. Bussy, F. Belleflamme, G. 
 Tabacchi, A. Glöß, M. Lass, I. Bethune, C. J. Mundy, C. Plessl, M. Watkins, 
 J. VandeVondele, M. Krack, J. Hutter.
 J. Chem. Phys. 152, 194103 (2020).
 CP2K: An electronic structure and molecular dynamics software package - 
 Quickstep: Efficient and accurate electronic structure calculations.
 https://doi.org/10.1063/5.0007045

 P. Pracht, E. Caldeweyher, S. Ehlert, S. Grimme.
 ChemRxiv, (2019).
 A Robust Non-Self-Consistent Tight-Binding Quantum Chemistry Method for large 
 Molecules.
 https://doi.org/10.26434/chemrxiv.8326202.v1

 S. Grimme, C. Bannwarth, P. Shushkov.
 J. Chem. Theory Comput. 13, 1989 (2017).
 A Robust and Accurate Tight-Binding Quantum Chemical Method for Structures, 
 Vibrational Frequencies, and Noncovalent Interactions of Large Molecular 
 Systems Parametrized for All spd-Block Elements (Z = 1-86).
 https://doi.org/10.1021/acs.jctc.7b00118

 O. Schuett, P. Messmer, J. Hutter, J. VandeVondele.
 Electronic Structure Calculations on Graphics Processing Units, 173-190 (2016).
 GPU-Accelerated Sparse Matrix-Matrix Multiplication for Linear Scaling Density 
 Functional Theory.
 https://doi.org/10.1002/9781118670712.ch8

 A. Heinecke, G. Henry, M. Hutchinson, H. Pabst.
 Proceedings of Intl. Supercomputing Conference, 981-991 (2016).
 LIBXSMM: Accelerating Small Matrix Multiplications by Runtime Code Generation.
 https://doi.org/10.1109/SC.2016.83

 U. Borstnik, J. VandeVondele, V. Weber, J. Hutter.
 Parallel Comput. 40, 47-58 (2014).
 Sparse matrix multiplication: The distributed block-compressed sparse row 
 library.
 https://doi.org/10.1016/j.parco.2014.03.012

 M. Frigo, S. G. Johnson.
 Proc. IEEE 93, 216-231 (2005).
 The design and implementation of FFTW3.
 https://doi.org/10.1109/JPROC.2004.840301

 N. D. Mermin.
 Phys. Rev. 137, A1441-A1443 (1965).
 Thermal Properties of the Inhomogeneous Electron Gas.
 https://doi.org/10.1103/PhysRev.137.A1441


 -------------------------------------------------------------------------------
 -                                                                             -
 -                                T I M I N G                                  -
 -                                                                             -
 -------------------------------------------------------------------------------
 SUBROUTINE                       CALLS  ASD         SELF TIME        TOTAL TIME
                                MAXIMUM       AVERAGE  MAXIMUM  AVERAGE  MAXIMUM
 CP2K                                 1  1.0    0.010    0.010    6.013    6.013
 qs_energies                          1  2.0    0.000    0.000    5.996    5.996
 scf_env_do_scf                       1  3.0    0.000    0.000    5.560    5.560
 scf_env_do_scf_inner_loop           16  4.0    0.119    0.119    5.560    5.560
 qs_scf_new_mos_kp                   16  5.0    0.000    0.000    4.787    4.787
 do_general_diag_kp                  16  6.0    0.011    0.011    4.787    4.787
 cp_cfm_geeig                       128  7.0    0.001    0.001    1.472    1.472
 cp_cfm_heevd                       128  8.0    0.000    0.000    0.934    0.934
 cp_cfm_heevd_base                  128  9.0    0.934    0.934    0.934    0.934
 kpoint_density_transform            16  7.0    0.001    0.001    0.896    0.896
 rskp_transform                     264  6.9    0.773    0.773    0.773    0.773
 dbcsr_complete_redistribute        833  8.2    0.556    0.556    0.665    0.665
 copy_dbcsr_to_fm                   577  6.8    0.003    0.003    0.623    0.623
 copy_fm_to_dbcsr                   256  8.0    0.001    0.001    0.441    0.441
 qs_diis_b_calc_err_kp              120  7.0    0.016    0.016    0.434    0.434
 parallel_gemm_cfm                  480  8.0    0.000    0.000    0.413    0.413
 parallel_gemm_cfm_gemm             480  9.0    0.000    0.000    0.412    0.412
 cp_cfm_gemm                        480 10.0    0.412    0.412    0.412    0.412
 cp_cfm_triangular_multiply         384  8.0    0.409    0.409    0.409    0.409
 qs_ks_update_qs_env                 16  5.0    0.000    0.000    0.358    0.358
 transform_dmat                     128  8.0    0.350    0.350    0.350    0.350
 dbcsr_desymmetrize_deep           1105  7.4    0.257    0.257    0.336    0.336
 qs_energies_init_hamiltonians        1  3.0    0.000    0.000    0.326    0.326
 build_tblite_matrices                1  4.0    0.245    0.245    0.294    0.294
 rebuild_ks_matrix                   16  6.0    0.000    0.000    0.241    0.241
 build_tblite_ks_matrix              16  7.0    0.223    0.223    0.241    0.241
 kpoint_density_matrices             16  7.0    0.003    0.003    0.227    0.227
 evaluate_core_matrix_traces         32  5.5    0.000    0.000    0.222    0.222
 calculate_ptrace_kp                 32  6.5    0.000    0.000    0.222    0.222
 dbcsr_dot                         1568  7.5    0.218    0.218    0.221    0.221
 parallel_gemm_fm_gemm              512  8.0    0.000    0.000    0.221    0.221
 cp_fm_gemm                         512  9.0    0.221    0.221    0.221    0.221
 dbcsr_copy                        1824  6.9    0.030    0.030    0.194    0.194
 dbcsr_copy_into_existing           256 10.0    0.162    0.162    0.163    0.163
 cp_dbcsr_alloc_block_from_nbl      311  5.4    0.109    0.109    0.148    0.148
 cp_fm_start_copy_general           784  7.3    0.121    0.121    0.136    0.136
 dbcsr_finalize                    2658  8.0    0.003    0.003    0.126    0.126
 -------------------------------------------------------------------------------

 The number of warnings for this run is : 0
 
 -------------------------------------------------------------------------------
  **** **** ******  **  PROGRAM ENDED AT                 2026-05-23 22:46:35.541
 ***** ** ***  *** **   PROGRAM RAN ON                                spark-c86c
 **    ****   ******    PROGRAM RAN BY                                  kuehne88
 ***** **    ** ** **   PROGRAM PROCESS ID                               2250018
  **** **  *******  **  PROGRAM STOPPED IN /home/kuehne88/periodic-gfn2-benchmar
                                           ks/X23b/runs/crystal_sp/k222/GFN1/pyr
                                           azole_GFN1_k222_sp
