 DBCSR| CPU Multiplication driver                                           XSMM (U)
 DBCSR| Multrec recursion limit                                              512 (U)
 DBCSR| Multiplication stack size                                           1000 (D)
 DBCSR| Maximum elements for images                                    UNLIMITED (U)
 DBCSR| Multiplicative factor virtual images                                   1 (U)
 DBCSR| Use multiplication densification                                       T (D)
 DBCSR| Multiplication size stacks                                             3 (U)
 DBCSR| Use memory pool for CPU allocation                                     F (U)
 DBCSR| Number of 3D layers                                               SINGLE (U)
 DBCSR| Use MPI memory allocation                                              F (U)
 DBCSR| Use RMA algorithm                                                      F (U)
 DBCSR| Use Communication thread                                               T (U)
 DBCSR| Communication thread load                                             87 (D)
 DBCSR| MPI: My process id                                                     0
 DBCSR| MPI: Number of processes                                               1
 DBCSR| OMP: Current number of threads                                         1
 DBCSR| OMP: Max number of threads                                             1
 DBCSR| Split modifier for TAS multiplication algorithm                  1.0E+00 (U)


  **** **** ******  **  PROGRAM STARTED AT               2026-05-23 22:47:42.380
 ***** ** ***  *** **   PROGRAM STARTED ON                            spark-c86c
 **    ****   ******    PROGRAM STARTED BY                              kuehne88
 ***** **    ** ** **   PROGRAM PROCESS ID                               2270256
  **** **  *******  **  PROGRAM STARTED IN /home/kuehne88/periodic-gfn2-benchmar
                                           ks/X23b/runs/cellopt_gamma/GFN2/oxali
                                           c_acid_beta_GFN2_gamma_cellopt

 CP2K| version string:                 CP2K version 2026.1 (Development Version)
 CP2K| source code revision number:                                   0622d442e4
 CP2K| cp2kflags: omp fftw3 libxc parallel scalapack mpi_f08 xsmm spglib libdftd
 CP2K|            4 dftd4_v3 mctc-lib tblite
 CP2K| is freely available from                            https://www.cp2k.org/
 CP2K| Program compiled at                                   2026-05-23 22:05:08
 CP2K| Program compiled on                                            spark-c86c
 CP2K| Program compiled for                                              aarch64
 CP2K| Data directory path    /home/kuehne88/cp2k-master-tblite-20260523/install
 CP2K| Input file name                   oxalic_acid_beta_GFN2_gamma_cellopt.inp

 GLOBAL| Force Environment number                                              1
 GLOBAL| Basis set file name                                           BASIS_SET
 GLOBAL| Potential file name                                           POTENTIAL
 GLOBAL| MM Potential file name                                     MM_POTENTIAL
 GLOBAL| Coordinate file name                                      __STD_INPUT__
 GLOBAL| Method name                                                        CP2K
 GLOBAL| Project name                       oxalic_acid_beta_GFN2_gamma_cell_opt
 GLOBAL| Run type                                                       CELL_OPT
 GLOBAL| FFT library                                                       FFTW3
 GLOBAL| Diagonalization library                                       ScaLAPACK
 GLOBAL| Cholesky decomposition library                                ScaLAPACK
 GLOBAL| DGEMM library                                                      BLAS
 GLOBAL| Direct generalized diagonalization requested                          F
 GLOBAL| Orthonormality check for eigenvectors                          DISABLED
 GLOBAL| Matrix multiplication library                                 ScaLAPACK
 GLOBAL| All-to-all communication in single precision                          F
 GLOBAL| FFTs using library dependent lengths                                  F
 GLOBAL| Grid backend                                                       AUTO
 GLOBAL| Global print level                                                  LOW
 GLOBAL| MPI I/O enabled                                                       T
 GLOBAL| Total number of message passing processes                             1
 GLOBAL| Number of distributed systems (nodes)                                 1
 GLOBAL| Number of threads for this process                                    1
 GLOBAL| This output is from process                                           0
 GLOBAL| OpenMP stack size per thread (OMP_STACKSIZE)                    default
 GLOBAL| CPU model name                                                  UNKNOWN
 GLOBAL| CPUID                                                              2200
 GLOBAL| Compiled for CPUID                                                 2000

 *** HINT in environment.F:970 :: The compiler target flags (arm_arch64)   ***
 *** used to build this binary cannot exploit all extensions of this CPU   ***
 *** model (arm_sve256). Consider compiler target flags as part of FCFLAGS ***
 *** and CFLAGS (ARCH file).                                               ***


 MEMORY| system memory details [Kb]
 MEMORY|                        rank 0           min           max       average
 MEMORY| MemTotal            125508532     125508532     125508532     125508532
 MEMORY| MemFree             104361168     104361168     104361168     104361168
 MEMORY| Buffers                868260        868260        868260        868260
 MEMORY| Cached               14087120      14087120      14087120      14087120
 MEMORY| Slab                  1597784       1597784       1597784       1597784
 MEMORY| SReclaimable           919728        919728        919728        919728
 MEMORY| MemLikelyFree       120236276     120236276     120236276     120236276


 GENERATE|  Preliminary Number of Bonds generated:                             0
 GENERATE|  Achieved consistency in connectivity generation.


                  #####   #####        #     #   #     #       #          
                 #     # #     #      #    ##### #     #   # #####  ####  
                 #     # #           #       #   ###   #       #   #    # 
                 #     #  #####     #        #   #  #  #   #   #   ###### 
                 #   # #       #   #         #   #   # #   #   #   #      
                 #    #  #     #  #          #   #  #  # # #   #    #   # 
                  #### #  #####  #           #   ###   ##  #   #     ###  

                                   GFN2-xTB  
                                 Version 0.0                       
                            Johann V. Pototschnig                  



 TOTAL NUMBERS AND MAXIMUM NUMBERS

  Total number of            - Atomic kinds:                                   3
                             - Atoms:                                         16
                             - Shell sets:                                    28
                             - Shells:                                        28
                             - Primitive Cartesian functions:                108
                             - Cartesian basis functions:                     52
                             - Spherical basis functions:                     52

  Maximum angular momentum of the orbital basis functions:                     1


 SCF PARAMETERS         Density guess:                                     MOPAC
                        --------------------------------------------------------
                        max_scf:                                             300
                        max_scf_history:                                       0
                        max_diis:                                              4
                        --------------------------------------------------------
                        eps_scf:                                        1.00E-09
                        eps_scf_history:                                0.00E+00
                        eps_diis:                                       1.00E-01
                        eps_eigval:                                     1.00E-05
                        --------------------------------------------------------
                        level_shift [a.u.]:                             0.000000
                        added MOs                                        18    0
                        --------------------------------------------------------
                        Mixing method:                           DIRECT_P_MIXING
                        --------------------------------------------------------
                        Smear method:                                FERMI_DIRAC
                        Electronic temperature [K]:                        300.0
                        Electronic temperature [a.u.]:                  9.50E-04
                        Accuracy threshold:                             1.00E-06
                        --------------------------------------------------------
                        No outer SCF

 CELL_OPT| Pressure tolerance [bar]:                                       100.0
 CELL_OPT| Keep volume of cell:                                               NO
 CELL_OPT| Keep angles between the cell vectors:                              NO
 CELL_OPT| Keep cell symmetry:                                                NO
 CELL_OPT| Constraint:                                                      NONE

 BFGS| Use rational function optimization for step estimation:                NO
 BFGS| Use model Hessian for initial guess:                                   NO
 BFGS| Restart Hessian:                                                       NO
 BFGS| Trust radius:                                                       0.472

 *******************************************************************************
 ***                     STARTING   CELL   OPTIMIZATION                      ***
 ***                                   BFGS                                  ***
 *******************************************************************************

 CELL| Volume [angstrom^3]:                                           156.865917
 CELL| Vector a [angstrom]:       5.330     0.000     0.000   |a| =     5.330000
 CELL| Vector b [angstrom]:       0.000     6.015     0.000   |b| =     6.015000
 CELL| Vector c [angstrom]:      -2.368     0.000     4.893   |c| =     5.436000
 CELL| Angle (b,c), alpha [degree]:                                    90.000000
 CELL| Angle (a,c), beta  [degree]:                                   115.830000
 CELL| Angle (a,b), gamma [degree]:                                    90.000000
 CELL| Numerically orthorhombic:                                              NO
 CELL| Periodicity                                                           XYZ

 Extrapolation method: initial_guess

 Number of electrons:                                                         68
 Number of occupied orbitals:                                                 34
 Number of molecular orbitals:                                                52

 Number of orbital functions:                                                 52
 Number of independent orbital functions:                                     52


 SCF WAVEFUNCTION OPTIMIZATION

  Step     Update method      Time    Convergence         Total energy    Change
  ------------------------------------------------------------------------------
     1 TBLite/Diag 0.40E+00    0.0     0.71597165       -42.3947090721 -4.24E+01
     2 TBLite/Diag 0.40E+00    0.0     0.33983387       -43.1578616061 -7.63E-01
     3 TBLite/Diag 0.40E+00    0.0     0.06771062       -43.1754279468 -1.76E-02
     4 TBLite/Diag 0.40E+00    0.0     0.03076751       -43.1777247160 -2.30E-03
     5 TBLite/Diag 0.40E+00    0.0     0.03064759       -43.1779585688 -2.34E-04
     6 TBLite/Diag 0.40E+00    0.0     0.01193383       -43.1792032447 -1.24E-03
     7 TBLite/Diag 0.40E+00    0.0     0.00227196       -43.1792453135 -4.21E-05
     8 TBLite/Diag 0.40E+00    0.0     0.00022268       -43.1792457392 -4.26E-07
     9 TBLite/Diag 0.40E+00    0.0     0.00002708       -43.1792457417 -2.48E-09
    10 TBLite/Diag 0.40E+00    0.0     0.00001466       -43.1792457425 -8.38E-10
    11 TBLite/Diag 0.40E+00    0.0     0.00000803       -43.1792457428 -2.81E-10
    12 TBLite/Diag 0.40E+00    0.0     0.00000125       -43.1792457428  1.35E-13
    13 TBLite/Diag 0.40E+00    0.0     0.00000049       -43.1792457428 -9.02E-13
    14 TBLite/Diag 0.40E+00    0.0     0.00000017       -43.1792457428 -1.56E-13
    15 TBLite/Diag 0.40E+00    0.0     0.00000006       -43.1792457428 -2.13E-14
    16 TBLite/Diag 0.40E+00    0.0     4.1899E-09       -43.1792457428  7.11E-15
    17 TBLite/Diag 0.40E+00    0.0     2.9005E-09       -43.1792457428 -1.42E-14
    18 TBLite/Diag 0.40E+00    0.0     5.3368E-10       -43.1792457428  7.11E-15

  *** SCF run converged in    18 steps ***


  Core Hamiltonian energy:                                    -43.60652137788170
  Repulsive potential energy:                                   0.30834436968462
  Electrostatic energy:                                         0.15444519225242
  Self-consistent dispersion energy:                           -0.04453723623565
  Non-self consistent dispersion energy:                        0.00902330936122
  Correction for halogen bonding:                               0.00000000000000
  Electronic entropic energy:                                  -0.00000000000000
  Fermi energy:                                                -0.35486256897206

  Total energy:                                               -43.17924574281908
  Total energy (extrapolated to T->0):                        -43.17924574281908

 ENERGY| Total FORCE_EVAL ( QS ) energy [hartree]            -43.179245742819084

 OPT| **************************************************************************
 OPT| Step number                                                              0
 OPT| Optimization method                                                   BFGS
 OPT| Total energy [hartree]                                      -43.1792457428
 OPT| Internal pressure [bar]                                   13184.6533588795
 OPT| Used time [s]                                                        0.819
 OPT| **************************************************************************
 OPT| Estimated peak process memory [MiB]                                    162

 --------------------------
 OPTIMIZATION STEP:      1
 --------------------------

 CELL| Volume [angstrom^3]:                                           157.099676
 CELL| Vector a [angstrom]:       5.358     0.000     0.000   |a| =     5.358458
 CELL| Vector b [angstrom]:       0.000     6.007     0.000   |b| =     6.007044
 CELL| Vector c [angstrom]:      -2.367    -0.000     4.881   |c| =     5.424233
 CELL| Angle (b,c), alpha [degree]:                                    90.000000
 CELL| Angle (a,c), beta  [degree]:                                   115.870844
 CELL| Angle (a,b), gamma [degree]:                                    90.000000
 CELL| Numerically orthorhombic:                                              NO
 CELL| Periodicity                                                           XYZ

 Extrapolation method: ASPC

 Number of electrons:                                                         68
 Number of occupied orbitals:                                                 34
 Number of molecular orbitals:                                                52

 Number of orbital functions:                                                 52
 Number of independent orbital functions:                                     52


 SCF WAVEFUNCTION OPTIMIZATION

  Step     Update method      Time    Convergence         Total energy    Change
  ------------------------------------------------------------------------------
     1 TBLite/Diag 0.40E+00    0.0     0.06096937       -43.1938431629 -4.32E+01
     2 TBLite/Diag 0.40E+00    0.0     0.01082823       -43.1945031821 -6.60E-04
     3 TBLite/Diag 0.40E+00    0.0     0.00134594       -43.1945226442 -1.95E-05
     4 TBLite/Diag 0.40E+00    0.0     0.00199467       -43.1945325575 -9.91E-06
     5 TBLite/Diag 0.40E+00    0.0     0.00031402       -43.1945330089 -4.51E-07
     6 TBLite/Diag 0.40E+00    0.0     0.00006950       -43.1945330319 -2.31E-08
     7 TBLite/Diag 0.40E+00    0.0     0.00004694       -43.1945330434 -1.15E-08
     8 TBLite/Diag 0.40E+00    0.0     0.00000264       -43.1945330435 -1.06E-10
     9 TBLite/Diag 0.40E+00    0.0     0.00000274       -43.1945330435 -3.34E-11
    10 TBLite/Diag 0.40E+00    0.0     0.00000036       -43.1945330435 -3.84E-13
    11 TBLite/Diag 0.40E+00    0.0     0.00000011       -43.1945330435 -5.68E-14
    12 TBLite/Diag 0.40E+00    0.0     0.00000001       -43.1945330435 -1.42E-14
    13 TBLite/Diag 0.40E+00    0.0     5.5191E-09       -43.1945330435 -1.42E-14
    14 TBLite/Diag 0.40E+00    0.0     2.3762E-09       -43.1945330435  2.84E-14
    15 TBLite/Diag 0.40E+00    0.0     5.9041E-10       -43.1945330435 -1.42E-14

  *** SCF run converged in    15 steps ***


  Core Hamiltonian energy:                                    -43.61968911199899
  Repulsive potential energy:                                   0.31349240491108
  Electrostatic energy:                                         0.14711575418219
  Self-consistent dispersion energy:                           -0.04445052840912
  Non-self consistent dispersion energy:                        0.00899843777625
  Correction for halogen bonding:                               0.00000000000000
  Electronic entropic energy:                                  -0.00000000000000
  Fermi energy:                                                -0.34216819768795

  Total energy:                                               -43.19453304353859
  Total energy (extrapolated to T->0):                        -43.19453304353859

 ENERGY| Total FORCE_EVAL ( QS ) energy [hartree]            -43.194533043538591

 OPT| **************************************************************************
 OPT| Step number                                                              1
 OPT| Optimization method                                                   BFGS
 OPT| Total energy [hartree]                                      -43.1945330435
 OPT| Internal pressure [bar]                                   24011.3310543159
 OPT| Effective energy change [hartree]                            -0.0152873007
 OPT| Predicted energy change [hartree]                            -0.0139458055
 OPT| Scaling factor                                                0.0000000000
 OPT| Step size                                                     0.0537781141
 OPT| Trust radius                                                  0.4724315332
 OPT| Decrease in energy                                                     YES
 OPT| Used time [s]                                                        0.813
 OPT|
 OPT| Maximum step size                                             0.0537781141
 OPT| Convergence limit for maximum step size                       0.0030000000
 OPT| Maximum step size is converged                                          NO
 OPT|
 OPT| RMS step size                                                 0.0227268853
 OPT| Convergence limit for RMS step size                           0.0015000000
 OPT| RMS step size is converged                                              NO
 OPT|
 OPT| Maximum gradient                                              0.0292297956
 OPT| Convergence limit for maximum gradient                        0.0004500000
 OPT| Maximum gradient is converged                                           NO
 OPT|
 OPT| RMS gradient                                                  0.0113513102
 OPT| Convergence limit for RMS gradient                            0.0003000000
 OPT| RMS gradient is converged                                               NO
 OPT|
 OPT| Pressure deviation [bar]                                  24011.3310543159
 OPT| Pressure tolerance [bar]                                    100.0000000000
 OPT| Pressure is converged                                                   NO
 OPT| **************************************************************************
 OPT| Estimated peak process memory after this step [MiB]                    162

 --------------------------
 OPTIMIZATION STEP:      2
 --------------------------

 CELL| Volume [angstrom^3]:                                           157.618604
 CELL| Vector a [angstrom]:       5.385     0.000     0.000   |a| =     5.384575
 CELL| Vector b [angstrom]:       0.000     6.001     0.000   |b| =     6.001456
 CELL| Vector c [angstrom]:      -2.368    -0.000     4.878   |c| =     5.422073
 CELL| Angle (b,c), alpha [degree]:                                    90.000000
 CELL| Angle (a,c), beta  [degree]:                                   115.898628
 CELL| Angle (a,b), gamma [degree]:                                    90.000000
 CELL| Numerically orthorhombic:                                              NO
 CELL| Periodicity                                                           XYZ

 Extrapolation method: ASPC

 Number of electrons:                                                         68
 Number of occupied orbitals:                                                 34
 Number of molecular orbitals:                                                52

 Number of orbital functions:                                                 52
 Number of independent orbital functions:                                     52


 SCF WAVEFUNCTION OPTIMIZATION

  Step     Update method      Time    Convergence         Total energy    Change
  ------------------------------------------------------------------------------
     1 TBLite/Diag 0.40E+00    0.0     0.03287756       -43.2002339178 -4.32E+01
     2 TBLite/Diag 0.40E+00    0.0     0.00946353       -43.2005171225 -2.83E-04
     3 TBLite/Diag 0.40E+00    0.0     0.00155527       -43.2005280702 -1.09E-05
     4 TBLite/Diag 0.40E+00    0.0     0.00074484       -43.2005306039 -2.53E-06
     5 TBLite/Diag 0.40E+00    0.0     0.00029302       -43.2005312396 -6.36E-07
     6 TBLite/Diag 0.40E+00    0.0     0.00009919       -43.2005312957 -5.61E-08
     7 TBLite/Diag 0.40E+00    0.0     0.00003206       -43.2005312994 -3.74E-09
     8 TBLite/Diag 0.40E+00    0.0     0.00000267       -43.2005312995 -3.48E-11
     9 TBLite/Diag 0.40E+00    0.0     0.00000159       -43.2005312995 -9.81E-12
    10 TBLite/Diag 0.40E+00    0.0     0.00000058       -43.2005312995 -2.17E-12
    11 TBLite/Diag 0.40E+00    0.0     0.00000004       -43.2005312995 -2.84E-14
    12 TBLite/Diag 0.40E+00    0.0     0.00000001       -43.2005312995  2.84E-14
    13 TBLite/Diag 0.40E+00    0.0     3.3671E-09       -43.2005312995 -2.13E-14
    14 TBLite/Diag 0.40E+00    0.0     1.0237E-09       -43.2005312995  0.00E+00
    15 TBLite/Diag 0.40E+00    0.0     4.5688E-10       -43.2005312995  7.11E-15

  *** SCF run converged in    15 steps ***


  Core Hamiltonian energy:                                    -43.60616253578812
  Repulsive potential energy:                                   0.29402068120752
  Electrostatic energy:                                         0.14699208036666
  Self-consistent dispersion energy:                           -0.04432641761890
  Non-self consistent dispersion energy:                        0.00894489236925
  Correction for halogen bonding:                               0.00000000000000
  Electronic entropic energy:                                  -0.00000000000000
  Fermi energy:                                                -0.34389390743043

  Total energy:                                               -43.20053129946360
  Total energy (extrapolated to T->0):                        -43.20053129946360

 ENERGY| Total FORCE_EVAL ( QS ) energy [hartree]            -43.200531299463599

 OPT| **************************************************************************
 OPT| Step number                                                              2
 OPT| Optimization method                                                   BFGS
 OPT| Total energy [hartree]                                      -43.2005312995
 OPT| Internal pressure [bar]                                    1125.9254729400
 OPT| Effective energy change [hartree]                            -0.0059982559
 OPT| Predicted energy change [hartree]                            -0.0044313993
 OPT| Scaling factor                                                0.0000000000
 OPT| Step size                                                     0.0493527708
 OPT| Trust radius                                                  0.4724315332
 OPT| Decrease in energy                                                     YES
 OPT| Used time [s]                                                        0.811
 OPT|
 OPT| Maximum step size                                             0.0493527708
 OPT| Convergence limit for maximum step size                       0.0030000000
 OPT| Maximum step size is converged                                          NO
 OPT|
 OPT| RMS step size                                                 0.0159273869
 OPT| Convergence limit for RMS step size                           0.0015000000
 OPT| RMS step size is converged                                              NO
 OPT|
 OPT| Maximum gradient                                              0.0135456871
 OPT| Convergence limit for maximum gradient                        0.0004500000
 OPT| Maximum gradient is converged                                           NO
 OPT|
 OPT| RMS gradient                                                  0.0066063148
 OPT| Convergence limit for RMS gradient                            0.0003000000
 OPT| RMS gradient is converged                                               NO
 OPT|
 OPT| Pressure deviation [bar]                                   1125.9254729400
 OPT| Pressure tolerance [bar]                                    100.0000000000
 OPT| Pressure is converged                                                   NO
 OPT| **************************************************************************
 OPT| Estimated peak process memory after this step [MiB]                    163

 --------------------------
 OPTIMIZATION STEP:      3
 --------------------------

 CELL| Volume [angstrom^3]:                                           158.062949
 CELL| Vector a [angstrom]:       5.414     0.000     0.000   |a| =     5.414288
 CELL| Vector b [angstrom]:       0.000     5.992     0.000   |b| =     5.991541
 CELL| Vector c [angstrom]:      -2.364    -0.000     4.872   |c| =     5.415622
 CELL| Angle (b,c), alpha [degree]:                                    90.000000
 CELL| Angle (a,c), beta  [degree]:                                   115.880221
 CELL| Angle (a,b), gamma [degree]:                                    90.000000
 CELL| Numerically orthorhombic:                                              NO
 CELL| Periodicity                                                           XYZ

 Extrapolation method: ASPC

 Number of electrons:                                                         68
 Number of occupied orbitals:                                                 34
 Number of molecular orbitals:                                                52

 Number of orbital functions:                                                 52
 Number of independent orbital functions:                                     52


 SCF WAVEFUNCTION OPTIMIZATION

  Step     Update method      Time    Convergence         Total energy    Change
  ------------------------------------------------------------------------------
     1 TBLite/Diag 0.40E+00    0.0     0.03541591       -43.2046611342 -4.32E+01
     2 TBLite/Diag 0.40E+00    0.0     0.00270304       -43.2047075190 -4.64E-05
     3 TBLite/Diag 0.40E+00    0.0     0.00131518       -43.2047084247 -9.06E-07
     4 TBLite/Diag 0.40E+00    0.0     0.00071193       -43.2047118346 -3.41E-06
     5 TBLite/Diag 0.40E+00    0.0     0.00006949       -43.2047118874 -5.29E-08
     6 TBLite/Diag 0.40E+00    0.0     0.00004838       -43.2047119053 -1.79E-08
     7 TBLite/Diag 0.40E+00    0.0     0.00001981       -43.2047119067 -1.38E-09
     8 TBLite/Diag 0.40E+00    0.0     0.00000129       -43.2047119067 -7.54E-12
     9 TBLite/Diag 0.40E+00    0.0     0.00000093       -43.2047119067 -2.62E-12
    10 TBLite/Diag 0.40E+00    0.0     0.00000017       -43.2047119067 -9.95E-14
    11 TBLite/Diag 0.40E+00    0.0     0.00000002       -43.2047119067  7.11E-15
    12 TBLite/Diag 0.40E+00    0.0     9.1741E-09       -43.2047119067 -7.11E-15
    13 TBLite/Diag 0.40E+00    0.0     1.8723E-09       -43.2047119067 -7.11E-15
    14 TBLite/Diag 0.40E+00    0.0     3.4221E-10       -43.2047119067  7.11E-15

  *** SCF run converged in    14 steps ***


  Core Hamiltonian energy:                                    -43.60047791742021
  Repulsive potential energy:                                   0.28696313902218
  Electrostatic energy:                                         0.14412725781260
  Self-consistent dispersion energy:                           -0.04422417377408
  Non-self consistent dispersion energy:                        0.00889978767043
  Correction for halogen bonding:                               0.00000000000000
  Electronic entropic energy:                                  -0.00000000000000
  Fermi energy:                                                -0.34291343541672

  Total energy:                                               -43.20471190668908
  Total energy (extrapolated to T->0):                        -43.20471190668908

 ENERGY| Total FORCE_EVAL ( QS ) energy [hartree]            -43.204711906689077

 OPT| **************************************************************************
 OPT| Step number                                                              3
 OPT| Optimization method                                                   BFGS
 OPT| Total energy [hartree]                                      -43.2047119067
 OPT| Internal pressure [bar]                                  -10421.4990375629
 OPT| Effective energy change [hartree]                            -0.0041806072
 OPT| Predicted energy change [hartree]                            -0.0028845490
 OPT| Scaling factor                                                0.0000000000
 OPT| Step size                                                     0.0561509984
 OPT| Trust radius                                                  0.4724315332
 OPT| Decrease in energy                                                     YES
 OPT| Used time [s]                                                        0.802
 OPT|
 OPT| Maximum step size                                             0.0561509984
 OPT| Convergence limit for maximum step size                       0.0030000000
 OPT| Maximum step size is converged                                          NO
 OPT|
 OPT| RMS step size                                                 0.0187300161
 OPT| Convergence limit for RMS step size                           0.0015000000
 OPT| RMS step size is converged                                              NO
 OPT|
 OPT| Maximum gradient                                              0.0135678051
 OPT| Convergence limit for maximum gradient                        0.0004500000
 OPT| Maximum gradient is converged                                           NO
 OPT|
 OPT| RMS gradient                                                  0.0054217817
 OPT| Convergence limit for RMS gradient                            0.0003000000
 OPT| RMS gradient is converged                                               NO
 OPT|
 OPT| Pressure deviation [bar]                                 -10421.4990375629
 OPT| Pressure tolerance [bar]                                    100.0000000000
 OPT| Pressure is converged                                                   NO
 OPT| **************************************************************************
 OPT| Estimated peak process memory after this step [MiB]                    163

 --------------------------
 OPTIMIZATION STEP:      4
 --------------------------

 CELL| Volume [angstrom^3]:                                           158.253998
 CELL| Vector a [angstrom]:       5.435     0.000     0.000   |a| =     5.435126
 CELL| Vector b [angstrom]:       0.000     5.980     0.000   |b| =     5.979578
 CELL| Vector c [angstrom]:      -2.357    -0.000     4.869   |c| =     5.409666
 CELL| Angle (b,c), alpha [degree]:                                    90.000000
 CELL| Angle (a,c), beta  [degree]:                                   115.825156
 CELL| Angle (a,b), gamma [degree]:                                    90.000000
 CELL| Numerically orthorhombic:                                              NO
 CELL| Periodicity                                                           XYZ

 Extrapolation method: ASPC

 Number of electrons:                                                         68
 Number of occupied orbitals:                                                 34
 Number of molecular orbitals:                                                52

 Number of orbital functions:                                                 52
 Number of independent orbital functions:                                     52


 SCF WAVEFUNCTION OPTIMIZATION

  Step     Update method      Time    Convergence         Total energy    Change
  ------------------------------------------------------------------------------
     1 TBLite/Diag 0.40E+00    0.0     0.02706186       -43.2074488828 -4.32E+01
     2 TBLite/Diag 0.40E+00    0.0     0.00235141       -43.2074727607 -2.39E-05
     3 TBLite/Diag 0.40E+00    0.0     0.00037076       -43.2074732660 -5.05E-07
     4 TBLite/Diag 0.40E+00    0.0     0.00029172       -43.2074734167 -1.51E-07
     5 TBLite/Diag 0.40E+00    0.0     0.00009270       -43.2074734519 -3.52E-08
     6 TBLite/Diag 0.40E+00    0.0     0.00003304       -43.2074734548 -2.89E-09
     7 TBLite/Diag 0.40E+00    0.0     0.00000894       -43.2074734550 -1.50E-10
     8 TBLite/Diag 0.40E+00    0.0     0.00000468       -43.2074734551 -9.45E-11
     9 TBLite/Diag 0.40E+00    0.0     0.00000061       -43.2074734551 -1.86E-12
    10 TBLite/Diag 0.40E+00    0.0     0.00000051       -43.2074734551 -5.33E-13
    11 TBLite/Diag 0.40E+00    0.0     0.00000009       -43.2074734551 -4.97E-14
    12 TBLite/Diag 0.40E+00    0.0     0.00000004       -43.2074734551  2.13E-14
    13 TBLite/Diag 0.40E+00    0.0     0.00000001       -43.2074734551 -2.84E-14
    14 TBLite/Diag 0.40E+00    0.0     3.5413E-09       -43.2074734551  7.11E-15
    15 TBLite/Diag 0.40E+00    0.0     2.2352E-09       -43.2074734551  0.00E+00
    16 TBLite/Diag 0.40E+00    0.0     2.6615E-10       -43.2074734551  7.11E-15

  *** SCF run converged in    16 steps ***


  Core Hamiltonian energy:                                    -43.59571754153083
  Repulsive potential energy:                                   0.28173234577840
  Electrostatic energy:                                         0.14182689527332
  Self-consistent dispersion energy:                           -0.04419567737722
  Non-self consistent dispersion energy:                        0.00888052279851
  Correction for halogen bonding:                               0.00000000000000
  Electronic entropic energy:                                  -0.00000000000000
  Fermi energy:                                                -0.34137961882852

  Total energy:                                               -43.20747345505784
  Total energy (extrapolated to T->0):                        -43.20747345505784

 ENERGY| Total FORCE_EVAL ( QS ) energy [hartree]            -43.207473455057837

 OPT| **************************************************************************
 OPT| Step number                                                              4
 OPT| Optimization method                                                   BFGS
 OPT| Total energy [hartree]                                      -43.2074734551
 OPT| Internal pressure [bar]                                  -20626.2116957494
 OPT| Effective energy change [hartree]                            -0.0027615484
 OPT| Predicted energy change [hartree]                            -0.0019220820
 OPT| Scaling factor                                                0.0000000000
 OPT| Step size                                                     0.0393782615
 OPT| Trust radius                                                  0.4724315332
 OPT| Decrease in energy                                                     YES
 OPT| Used time [s]                                                        0.806
 OPT|
 OPT| Maximum step size                                             0.0393782615
 OPT| Convergence limit for maximum step size                       0.0030000000
 OPT| Maximum step size is converged                                          NO
 OPT|
 OPT| RMS step size                                                 0.0186526381
 OPT| Convergence limit for RMS step size                           0.0015000000
 OPT| RMS step size is converged                                              NO
 OPT|
 OPT| Maximum gradient                                              0.0145243762
 OPT| Convergence limit for maximum gradient                        0.0004500000
 OPT| Maximum gradient is converged                                           NO
 OPT|
 OPT| RMS gradient                                                  0.0047125146
 OPT| Convergence limit for RMS gradient                            0.0003000000
 OPT| RMS gradient is converged                                               NO
 OPT|
 OPT| Pressure deviation [bar]                                 -20626.2116957494
 OPT| Pressure tolerance [bar]                                    100.0000000000
 OPT| Pressure is converged                                                   NO
 OPT| **************************************************************************
 OPT| Estimated peak process memory after this step [MiB]                    163

 --------------------------
 OPTIMIZATION STEP:      5
 --------------------------

 CELL| Volume [angstrom^3]:                                           158.003364
 CELL| Vector a [angstrom]:       5.440     0.000     0.000   |a| =     5.439619
 CELL| Vector b [angstrom]:      -0.000     5.967     0.000   |b| =     5.966969
 CELL| Vector c [angstrom]:      -2.348    -0.000     4.868   |c| =     5.404776
 CELL| Angle (b,c), alpha [degree]:                                    90.000000
 CELL| Angle (a,c), beta  [degree]:                                   115.753541
 CELL| Angle (a,b), gamma [degree]:                                    90.000000
 CELL| Numerically orthorhombic:                                              NO
 CELL| Periodicity                                                           XYZ

 Extrapolation method: ASPC

 Number of electrons:                                                         68
 Number of occupied orbitals:                                                 34
 Number of molecular orbitals:                                                52

 Number of orbital functions:                                                 52
 Number of independent orbital functions:                                     52


 SCF WAVEFUNCTION OPTIMIZATION

  Step     Update method      Time    Convergence         Total energy    Change
  ------------------------------------------------------------------------------
     1 TBLite/Diag 0.40E+00    0.0     0.01504097       -43.2093740767 -4.32E+01
     2 TBLite/Diag 0.40E+00    0.0     0.00209128       -43.2093942145 -2.01E-05
     3 TBLite/Diag 0.40E+00    0.0     0.00095621       -43.2093956015 -1.39E-06
     4 TBLite/Diag 0.40E+00    0.0     0.00053634       -43.2093972591 -1.66E-06
     5 TBLite/Diag 0.40E+00    0.0     0.00010123       -43.2093973165 -5.74E-08
     6 TBLite/Diag 0.40E+00    0.0     0.00004653       -43.2093973281 -1.16E-08
     7 TBLite/Diag 0.40E+00    0.0     0.00001325       -43.2093973286 -5.22E-10
     8 TBLite/Diag 0.40E+00    0.0     0.00000169       -43.2093973286 -9.04E-12
     9 TBLite/Diag 0.40E+00    0.0     0.00000088       -43.2093973286 -5.28E-12
    10 TBLite/Diag 0.40E+00    0.0     0.00000020       -43.2093973286 -1.99E-13
    11 TBLite/Diag 0.40E+00    0.0     0.00000003       -43.2093973286 -2.84E-14
    12 TBLite/Diag 0.40E+00    0.0     0.00000002       -43.2093973286  1.42E-14
    13 TBLite/Diag 0.40E+00    0.0     2.4910E-09       -43.2093973286  0.00E+00
    14 TBLite/Diag 0.40E+00    0.0     7.5495E-10       -43.2093973286  7.11E-15

  *** SCF run converged in    14 steps ***


  Core Hamiltonian energy:                                    -43.59408123434179
  Repulsive potential energy:                                   0.27947712380855
  Electrostatic energy:                                         0.14059106139500
  Self-consistent dispersion energy:                           -0.04428658434332
  Non-self consistent dispersion energy:                        0.00890230484623
  Correction for halogen bonding:                               0.00000000000000
  Electronic entropic energy:                                  -0.00000000000000
  Fermi energy:                                                -0.33929717751307

  Total energy:                                               -43.20939732863532
  Total energy (extrapolated to T->0):                        -43.20939732863532

 ENERGY| Total FORCE_EVAL ( QS ) energy [hartree]            -43.209397328635319

 OPT| **************************************************************************
 OPT| Step number                                                              5
 OPT| Optimization method                                                   BFGS
 OPT| Total energy [hartree]                                      -43.2093973286
 OPT| Internal pressure [bar]                                  -26510.6476561135
 OPT| Effective energy change [hartree]                            -0.0019238736
 OPT| Predicted energy change [hartree]                            -0.0012885477
 OPT| Scaling factor                                                0.0000000000
 OPT| Step size                                                     0.0301232671
 OPT| Trust radius                                                  0.4724315332
 OPT| Decrease in energy                                                     YES
 OPT| Used time [s]                                                        0.801
 OPT|
 OPT| Maximum step size                                             0.0301232671
 OPT| Convergence limit for maximum step size                       0.0030000000
 OPT| Maximum step size is converged                                          NO
 OPT|
 OPT| RMS step size                                                 0.0162055990
 OPT| Convergence limit for RMS step size                           0.0015000000
 OPT| RMS step size is converged                                              NO
 OPT|
 OPT| Maximum gradient                                              0.0201723983
 OPT| Convergence limit for maximum gradient                        0.0004500000
 OPT| Maximum gradient is converged                                           NO
 OPT|
 OPT| RMS gradient                                                  0.0040322937
 OPT| Convergence limit for RMS gradient                            0.0003000000
 OPT| RMS gradient is converged                                               NO
 OPT|
 OPT| Pressure deviation [bar]                                 -26510.6476561135
 OPT| Pressure tolerance [bar]                                    100.0000000000
 OPT| Pressure is converged                                                   NO
 OPT| **************************************************************************
 OPT| Estimated peak process memory after this step [MiB]                    163

 --------------------------
 OPTIMIZATION STEP:      6
 --------------------------

 CELL| Volume [angstrom^3]:                                           157.187744
 CELL| Vector a [angstrom]:       5.427     0.000     0.000   |a| =     5.427449
 CELL| Vector b [angstrom]:      -0.000     5.951     0.000   |b| =     5.951205
 CELL| Vector c [angstrom]:      -2.339     0.000     4.867   |c| =     5.399330
 CELL| Angle (b,c), alpha [degree]:                                    90.000000
 CELL| Angle (a,c), beta  [degree]:                                   115.668104
 CELL| Angle (a,b), gamma [degree]:                                    90.000000
 CELL| Numerically orthorhombic:                                              NO
 CELL| Periodicity                                                           XYZ

 Extrapolation method: ASPC

 Number of electrons:                                                         68
 Number of occupied orbitals:                                                 34
 Number of molecular orbitals:                                                52

 Number of orbital functions:                                                 52
 Number of independent orbital functions:                                     52


 SCF WAVEFUNCTION OPTIMIZATION

  Step     Update method      Time    Convergence         Total energy    Change
  ------------------------------------------------------------------------------
     1 TBLite/Diag 0.40E+00    0.0     0.01978383       -43.2110189151 -4.32E+01
     2 TBLite/Diag 0.40E+00    0.0     0.00276747       -43.2110611767 -4.23E-05
     3 TBLite/Diag 0.40E+00    0.0     0.00109220       -43.2110665960 -5.42E-06
     4 TBLite/Diag 0.40E+00    0.0     0.00070987       -43.2110685847 -1.99E-06
     5 TBLite/Diag 0.40E+00    0.0     0.00013352       -43.2110686839 -9.92E-08
     6 TBLite/Diag 0.40E+00    0.0     0.00001962       -43.2110686874 -3.52E-09
     7 TBLite/Diag 0.40E+00    0.0     0.00001879       -43.2110686886 -1.19E-09
     8 TBLite/Diag 0.40E+00    0.0     0.00000177       -43.2110686886 -1.70E-11
     9 TBLite/Diag 0.40E+00    0.0     0.00000124       -43.2110686886 -9.09E-12
    10 TBLite/Diag 0.40E+00    0.0     0.00000010       -43.2110686886 -4.97E-14
    11 TBLite/Diag 0.40E+00    0.0     0.00000003       -43.2110686886 -7.11E-15
    12 TBLite/Diag 0.40E+00    0.0     9.7275E-09       -43.2110686886  7.11E-15
    13 TBLite/Diag 0.40E+00    0.0     3.7099E-09       -43.2110686886 -3.55E-14
    14 TBLite/Diag 0.40E+00    0.0     1.1502E-09       -43.2110686886  2.13E-14
    15 TBLite/Diag 0.40E+00    0.0     4.8356E-10       -43.2110686886 -1.42E-14

  *** SCF run converged in    15 steps ***


  Core Hamiltonian energy:                                    -43.59515095611743
  Repulsive potential energy:                                   0.27969826749631
  Electrostatic energy:                                         0.13993269971886
  Self-consistent dispersion energy:                           -0.04453762534541
  Non-self consistent dispersion energy:                        0.00898892566439
  Correction for halogen bonding:                               0.00000000000000
  Electronic entropic energy:                                  -0.00000000000000
  Fermi energy:                                                -0.33668829248016

  Total energy:                                               -43.21106868858328
  Total energy (extrapolated to T->0):                        -43.21106868858328

 ENERGY| Total FORCE_EVAL ( QS ) energy [hartree]            -43.211068688583282

 OPT| **************************************************************************
 OPT| Step number                                                              6
 OPT| Optimization method                                                   BFGS
 OPT| Total energy [hartree]                                      -43.2110686886
 OPT| Internal pressure [bar]                                  -28111.7046848787
 OPT| Effective energy change [hartree]                            -0.0016713599
 OPT| Predicted energy change [hartree]                            -0.0011683528
 OPT| Scaling factor                                                0.0000000000
 OPT| Step size                                                     0.0310529408
 OPT| Trust radius                                                  0.4724315332
 OPT| Decrease in energy                                                     YES
 OPT| Used time [s]                                                        0.816
 OPT|
 OPT| Maximum step size                                             0.0310529408
 OPT| Convergence limit for maximum step size                       0.0030000000
 OPT| Maximum step size is converged                                          NO
 OPT|
 OPT| RMS step size                                                 0.0170951036
 OPT| Convergence limit for RMS step size                           0.0015000000
 OPT| RMS step size is converged                                              NO
 OPT|
 OPT| Maximum gradient                                              0.0199382182
 OPT| Convergence limit for maximum gradient                        0.0004500000
 OPT| Maximum gradient is converged                                           NO
 OPT|
 OPT| RMS gradient                                                  0.0036063711
 OPT| Convergence limit for RMS gradient                            0.0003000000
 OPT| RMS gradient is converged                                               NO
 OPT|
 OPT| Pressure deviation [bar]                                 -28111.7046848787
 OPT| Pressure tolerance [bar]                                    100.0000000000
 OPT| Pressure is converged                                                   NO
 OPT| **************************************************************************
 OPT| Estimated peak process memory after this step [MiB]                    163

 --------------------------
 OPTIMIZATION STEP:      7
 --------------------------

 CELL| Volume [angstrom^3]:                                           155.949747
 CELL| Vector a [angstrom]:       5.403     0.000     0.000   |a| =     5.403041
 CELL| Vector b [angstrom]:      -0.000     5.934     0.000   |b| =     5.934266
 CELL| Vector c [angstrom]:      -2.330     0.000     4.864   |c| =     5.393108
 CELL| Angle (b,c), alpha [degree]:                                    90.000000
 CELL| Angle (a,c), beta  [degree]:                                   115.596033
 CELL| Angle (a,b), gamma [degree]:                                    90.000000
 CELL| Numerically orthorhombic:                                              NO
 CELL| Periodicity                                                           XYZ

 Extrapolation method: ASPC

 Number of electrons:                                                         68
 Number of occupied orbitals:                                                 34
 Number of molecular orbitals:                                                52

 Number of orbital functions:                                                 52
 Number of independent orbital functions:                                     52


 SCF WAVEFUNCTION OPTIMIZATION

  Step     Update method      Time    Convergence         Total energy    Change
  ------------------------------------------------------------------------------
     1 TBLite/Diag 0.40E+00    0.0     0.01783732       -43.2123023312 -4.32E+01
     2 TBLite/Diag 0.40E+00    0.0     0.00254490       -43.2123353617 -3.30E-05
     3 TBLite/Diag 0.40E+00    0.0     0.00092037       -43.2123393764 -4.01E-06
     4 TBLite/Diag 0.40E+00    0.0     0.00064574       -43.2123406570 -1.28E-06
     5 TBLite/Diag 0.40E+00    0.0     0.00013328       -43.2123407238 -6.68E-08
     6 TBLite/Diag 0.40E+00    0.0     0.00001641       -43.2123407256 -1.84E-09
     7 TBLite/Diag 0.40E+00    0.0     0.00001009       -43.2123407260 -3.88E-10
     8 TBLite/Diag 0.40E+00    0.0     0.00000257       -43.2123407261 -1.85E-11
     9 TBLite/Diag 0.40E+00    0.0     0.00000101       -43.2123407261 -8.83E-12
    10 TBLite/Diag 0.40E+00    0.0     0.00000009       -43.2123407261 -2.13E-14
    11 TBLite/Diag 0.40E+00    0.0     0.00000004       -43.2123407261 -7.11E-15
    12 TBLite/Diag 0.40E+00    0.0     0.00000003       -43.2123407261  7.11E-15
    13 TBLite/Diag 0.40E+00    0.0     3.7702E-09       -43.2123407261 -7.11E-15
    14 TBLite/Diag 0.40E+00    0.0     8.1523E-10       -43.2123407261  7.11E-15

  *** SCF run converged in    14 steps ***


  Core Hamiltonian energy:                                    -43.59717173344636
  Repulsive potential energy:                                   0.28100670761444
  Electrostatic energy:                                         0.13961395102368
  Self-consistent dispersion energy:                           -0.04491235148273
  Non-self consistent dispersion energy:                        0.00912270023002
  Correction for halogen bonding:                               0.00000000000000
  Electronic entropic energy:                                  -0.00000000000000
  Fermi energy:                                                -0.33452633020824

  Total energy:                                               -43.21234072606094
  Total energy (extrapolated to T->0):                        -43.21234072606094

 ENERGY| Total FORCE_EVAL ( QS ) energy [hartree]            -43.212340726060944

 OPT| **************************************************************************
 OPT| Step number                                                              7
 OPT| Optimization method                                                   BFGS
 OPT| Total energy [hartree]                                      -43.2123407261
 OPT| Internal pressure [bar]                                  -25996.8615324798
 OPT| Effective energy change [hartree]                            -0.0012720375
 OPT| Predicted energy change [hartree]                            -0.0008517372
 OPT| Scaling factor                                                0.0000000000
 OPT| Step size                                                     0.0461250099
 OPT| Trust radius                                                  0.4724315332
 OPT| Decrease in energy                                                     YES
 OPT| Used time [s]                                                        0.822
 OPT|
 OPT| Maximum step size                                             0.0461250099
 OPT| Convergence limit for maximum step size                       0.0030000000
 OPT| Maximum step size is converged                                          NO
 OPT|
 OPT| RMS step size                                                 0.0154771841
 OPT| Convergence limit for RMS step size                           0.0015000000
 OPT| RMS step size is converged                                              NO
 OPT|
 OPT| Maximum gradient                                              0.0156924072
 OPT| Convergence limit for maximum gradient                        0.0004500000
 OPT| Maximum gradient is converged                                           NO
 OPT|
 OPT| RMS gradient                                                  0.0037775993
 OPT| Convergence limit for RMS gradient                            0.0003000000
 OPT| RMS gradient is converged                                               NO
 OPT|
 OPT| Pressure deviation [bar]                                 -25996.8615324798
 OPT| Pressure tolerance [bar]                                    100.0000000000
 OPT| Pressure is converged                                                   NO
 OPT| **************************************************************************
 OPT| Estimated peak process memory after this step [MiB]                    163

 --------------------------
 OPTIMIZATION STEP:      8
 --------------------------

 CELL| Volume [angstrom^3]:                                           153.942494
 CELL| Vector a [angstrom]:       5.363     0.000     0.000   |a| =     5.362824
 CELL| Vector b [angstrom]:      -0.000     5.909     0.000   |b| =     5.909341
 CELL| Vector c [angstrom]:      -2.319     0.000     4.858   |c| =     5.382738
 CELL| Angle (b,c), alpha [degree]:                                    90.000000
 CELL| Angle (a,c), beta  [degree]:                                   115.518137
 CELL| Angle (a,b), gamma [degree]:                                    90.000000
 CELL| Numerically orthorhombic:                                              NO
 CELL| Periodicity                                                           XYZ

 Extrapolation method: ASPC

 Number of electrons:                                                         68
 Number of occupied orbitals:                                                 34
 Number of molecular orbitals:                                                52

 Number of orbital functions:                                                 52
 Number of independent orbital functions:                                     52


 SCF WAVEFUNCTION OPTIMIZATION

  Step     Update method      Time    Convergence         Total energy    Change
  ------------------------------------------------------------------------------
     1 TBLite/Diag 0.40E+00    0.0     0.02209677       -43.2138114113 -4.32E+01
     2 TBLite/Diag 0.40E+00    0.0     0.00228223       -43.2138368693 -2.55E-05
     3 TBLite/Diag 0.40E+00    0.0     0.00106573       -43.2138390939 -2.22E-06
     4 TBLite/Diag 0.40E+00    0.0     0.00047209       -43.2138408516 -1.76E-06
     5 TBLite/Diag 0.40E+00    0.0     0.00012873       -43.2138408980 -4.64E-08
     6 TBLite/Diag 0.40E+00    0.0     0.00002743       -43.2138408992 -1.21E-09
     7 TBLite/Diag 0.40E+00    0.0     0.00001508       -43.2138408997 -5.51E-10
     8 TBLite/Diag 0.40E+00    0.0     0.00000556       -43.2138408999 -1.41E-10
     9 TBLite/Diag 0.40E+00    0.0     0.00000062       -43.2138408999 -1.83E-12
    10 TBLite/Diag 0.40E+00    0.0     0.00000039       -43.2138408999 -4.97E-13
    11 TBLite/Diag 0.40E+00    0.0     0.00000012       -43.2138408999 -7.82E-14
    12 TBLite/Diag 0.40E+00    0.0     0.00000004       -43.2138408999 -2.13E-14
    13 TBLite/Diag 0.40E+00    0.0     9.3606E-09       -43.2138408999  1.42E-14
    14 TBLite/Diag 0.40E+00    0.0     1.8994E-09       -43.2138408999  1.42E-14
    15 TBLite/Diag 0.40E+00    0.0     1.9960E-09       -43.2138408999 -3.55E-14
    16 TBLite/Diag 0.40E+00    0.0     1.8557E-10       -43.2138408999 -7.11E-15

  *** SCF run converged in    16 steps ***


  Core Hamiltonian energy:                                    -43.59893174411476
  Repulsive potential energy:                                   0.28204390235213
  Electrostatic energy:                                         0.13922408079172
  Self-consistent dispersion energy:                           -0.04552748229657
  Non-self consistent dispersion energy:                        0.00935034339803
  Correction for halogen bonding:                               0.00000000000000
  Electronic entropic energy:                                  -0.00000000000000
  Fermi energy:                                                -0.33265334526769

  Total energy:                                               -43.21384089986943
  Total energy (extrapolated to T->0):                        -43.21384089986943

 ENERGY| Total FORCE_EVAL ( QS ) energy [hartree]            -43.213840899869432

 OPT| **************************************************************************
 OPT| Step number                                                              8
 OPT| Optimization method                                                   BFGS
 OPT| Total energy [hartree]                                      -43.2138408999
 OPT| Internal pressure [bar]                                  -21543.1158466638
 OPT| Effective energy change [hartree]                            -0.0015001738
 OPT| Predicted energy change [hartree]                            -0.0010021553
 OPT| Scaling factor                                                0.0000000000
 OPT| Step size                                                     0.0759994933
 OPT| Trust radius                                                  0.4724315332
 OPT| Decrease in energy                                                     YES
 OPT| Used time [s]                                                        0.849
 OPT|
 OPT| Maximum step size                                             0.0759994933
 OPT| Convergence limit for maximum step size                       0.0030000000
 OPT| Maximum step size is converged                                          NO
 OPT|
 OPT| RMS step size                                                 0.0199770563
 OPT| Convergence limit for RMS step size                           0.0015000000
 OPT| RMS step size is converged                                              NO
 OPT|
 OPT| Maximum gradient                                              0.0088634703
 OPT| Convergence limit for maximum gradient                        0.0004500000
 OPT| Maximum gradient is converged                                           NO
 OPT|
 OPT| RMS gradient                                                  0.0040167102
 OPT| Convergence limit for RMS gradient                            0.0003000000
 OPT| RMS gradient is converged                                               NO
 OPT|
 OPT| Pressure deviation [bar]                                 -21543.1158466638
 OPT| Pressure tolerance [bar]                                    100.0000000000
 OPT| Pressure is converged                                                   NO
 OPT| **************************************************************************
 OPT| Estimated peak process memory after this step [MiB]                    163

 --------------------------
 OPTIMIZATION STEP:      9
 --------------------------

 CELL| Volume [angstrom^3]:                                           151.212662
 CELL| Vector a [angstrom]:       5.310     0.000     0.000   |a| =     5.309646
 CELL| Vector b [angstrom]:      -0.000     5.876     0.000   |b| =     5.876299
 CELL| Vector c [angstrom]:      -2.306    -0.000     4.846   |c| =     5.367162
 CELL| Angle (b,c), alpha [degree]:                                    90.000000
 CELL| Angle (a,c), beta  [degree]:                                   115.448590
 CELL| Angle (a,b), gamma [degree]:                                    90.000000
 CELL| Numerically orthorhombic:                                              NO
 CELL| Periodicity                                                           XYZ

 Extrapolation method: ASPC

 Number of electrons:                                                         68
 Number of occupied orbitals:                                                 34
 Number of molecular orbitals:                                                52

 Number of orbital functions:                                                 52
 Number of independent orbital functions:                                     52


 SCF WAVEFUNCTION OPTIMIZATION

  Step     Update method      Time    Convergence         Total energy    Change
  ------------------------------------------------------------------------------
     1 TBLite/Diag 0.40E+00    0.0     0.02899369       -43.2155295815 -4.32E+01
     2 TBLite/Diag 0.40E+00    0.0     0.00109758       -43.2155371350 -7.55E-06
     3 TBLite/Diag 0.40E+00    0.0     0.00080261       -43.2155381786 -1.04E-06
     4 TBLite/Diag 0.40E+00    0.0     0.00030900       -43.2155386642 -4.86E-07
     5 TBLite/Diag 0.40E+00    0.0     0.00006759       -43.2155386953 -3.12E-08
     6 TBLite/Diag 0.40E+00    0.0     0.00002844       -43.2155387008 -5.44E-09
     7 TBLite/Diag 0.40E+00    0.0     0.00000836       -43.2155387012 -4.22E-10
     8 TBLite/Diag 0.40E+00    0.0     0.00000367       -43.2155387013 -6.51E-11
     9 TBLite/Diag 0.40E+00    0.0     0.00000090       -43.2155387013 -4.45E-12
    10 TBLite/Diag 0.40E+00    0.0     0.00000005       -43.2155387013 -7.11E-15
    11 TBLite/Diag 0.40E+00    0.0     0.00000004       -43.2155387013 -2.13E-14
    12 TBLite/Diag 0.40E+00    0.0     0.00000002       -43.2155387013  7.11E-15
    13 TBLite/Diag 0.40E+00    0.0     4.0396E-09       -43.2155387013  4.97E-14
    14 TBLite/Diag 0.40E+00    0.0     3.0155E-10       -43.2155387013 -4.97E-14

  *** SCF run converged in    14 steps ***


  Core Hamiltonian energy:                                    -43.59990218254161
  Repulsive potential energy:                                   0.28232845432937
  Electrostatic energy:                                         0.13874922492311
  Self-consistent dispersion energy:                           -0.04638628955992
  Non-self consistent dispersion energy:                        0.00967209157048
  Correction for halogen bonding:                               0.00000000000000
  Electronic entropic energy:                                  -0.00000000000000
  Fermi energy:                                                -0.33186753448720

  Total energy:                                               -43.21553870127856
  Total energy (extrapolated to T->0):                        -43.21553870127856

 ENERGY| Total FORCE_EVAL ( QS ) energy [hartree]            -43.215538701278561

 OPT| **************************************************************************
 OPT| Step number                                                              9
 OPT| Optimization method                                                   BFGS
 OPT| Total energy [hartree]                                      -43.2155387013
 OPT| Internal pressure [bar]                                  -14959.3091909902
 OPT| Effective energy change [hartree]                            -0.0016978014
 OPT| Predicted energy change [hartree]                            -0.0011524288
 OPT| Scaling factor                                                0.0000000000
 OPT| Step size                                                     0.1004908179
 OPT| Trust radius                                                  0.4724315332
 OPT| Decrease in energy                                                     YES
 OPT| Used time [s]                                                        0.857
 OPT|
 OPT| Maximum step size                                             0.1004908179
 OPT| Convergence limit for maximum step size                       0.0030000000
 OPT| Maximum step size is converged                                          NO
 OPT|
 OPT| RMS step size                                                 0.0238322154
 OPT| Convergence limit for RMS step size                           0.0015000000
 OPT| RMS step size is converged                                              NO
 OPT|
 OPT| Maximum gradient                                              0.0094915288
 OPT| Convergence limit for maximum gradient                        0.0004500000
 OPT| Maximum gradient is converged                                           NO
 OPT|
 OPT| RMS gradient                                                  0.0037035692
 OPT| Convergence limit for RMS gradient                            0.0003000000
 OPT| RMS gradient is converged                                               NO
 OPT|
 OPT| Pressure deviation [bar]                                 -14959.3091909902
 OPT| Pressure tolerance [bar]                                    100.0000000000
 OPT| Pressure is converged                                                   NO
 OPT| **************************************************************************
 OPT| Estimated peak process memory after this step [MiB]                    163

 --------------------------
 OPTIMIZATION STEP:     10
 --------------------------

 CELL| Volume [angstrom^3]:                                           148.622010
 CELL| Vector a [angstrom]:       5.263     0.000     0.000   |a| =     5.263355
 CELL| Vector b [angstrom]:      -0.000     5.844     0.000   |b| =     5.843884
 CELL| Vector c [angstrom]:      -2.296    -0.000     4.832   |c| =     5.349752
 CELL| Angle (b,c), alpha [degree]:                                    90.000000
 CELL| Angle (a,c), beta  [degree]:                                   115.417720
 CELL| Angle (a,b), gamma [degree]:                                    90.000000
 CELL| Numerically orthorhombic:                                              NO
 CELL| Periodicity                                                           XYZ

 Extrapolation method: ASPC

 Number of electrons:                                                         68
 Number of occupied orbitals:                                                 34
 Number of molecular orbitals:                                                52

 Number of orbital functions:                                                 52
 Number of independent orbital functions:                                     52


 SCF WAVEFUNCTION OPTIMIZATION

  Step     Update method      Time    Convergence         Total energy    Change
  ------------------------------------------------------------------------------
     1 TBLite/Diag 0.40E+00    0.0     0.02751288       -43.2167728109 -4.32E+01
     2 TBLite/Diag 0.40E+00    0.0     0.00187880       -43.2167958330 -2.30E-05
     3 TBLite/Diag 0.40E+00    0.0     0.00091931       -43.2167965426 -7.10E-07
     4 TBLite/Diag 0.40E+00    0.0     0.00047558       -43.2167982545 -1.71E-06
     5 TBLite/Diag 0.40E+00    0.0     0.00004145       -43.2167982811 -2.66E-08
     6 TBLite/Diag 0.40E+00    0.0     0.00006540       -43.2167982948 -1.37E-08
     7 TBLite/Diag 0.40E+00    0.0     0.00000410       -43.2167982949 -1.37E-10
     8 TBLite/Diag 0.40E+00    0.0     0.00000244       -43.2167982949 -1.38E-11
     9 TBLite/Diag 0.40E+00    0.0     0.00000084       -43.2167982949 -3.08E-12
    10 TBLite/Diag 0.40E+00    0.0     0.00000009       -43.2167982949 -4.97E-14
    11 TBLite/Diag 0.40E+00    0.0     0.00000003       -43.2167982949  2.84E-14
    12 TBLite/Diag 0.40E+00    0.0     0.00000002       -43.2167982949 -3.55E-14
    13 TBLite/Diag 0.40E+00    0.0     4.2612E-09       -43.2167982949  2.84E-14
    14 TBLite/Diag 0.40E+00    0.0     4.4650E-10       -43.2167982949  0.00E+00

  *** SCF run converged in    14 steps ***


  Core Hamiltonian energy:                                    -43.59998623141647
  Repulsive potential energy:                                   0.28218827282286
  Electrostatic energy:                                         0.13823203675682
  Self-consistent dispersion energy:                           -0.04723251987760
  Non-self consistent dispersion energy:                        0.01000014676607
  Correction for halogen bonding:                               0.00000000000000
  Electronic entropic energy:                                  -0.00000000000000
  Fermi energy:                                                -0.33267521143412

  Total energy:                                               -43.21679829494832
  Total energy (extrapolated to T->0):                        -43.21679829494832

 ENERGY| Total FORCE_EVAL ( QS ) energy [hartree]            -43.216798294948319

 OPT| **************************************************************************
 OPT| Step number                                                             10
 OPT| Optimization method                                                   BFGS
 OPT| Total energy [hartree]                                      -43.2167982949
 OPT| Internal pressure [bar]                                   -7060.9398447860
 OPT| Effective energy change [hartree]                            -0.0012595937
 OPT| Predicted energy change [hartree]                            -0.0009620913
 OPT| Scaling factor                                                0.0000000000
 OPT| Step size                                                     0.0874774568
 OPT| Trust radius                                                  0.4724315332
 OPT| Decrease in energy                                                     YES
 OPT| Used time [s]                                                        0.883
 OPT|
 OPT| Maximum step size                                             0.0874774568
 OPT| Convergence limit for maximum step size                       0.0030000000
 OPT| Maximum step size is converged                                          NO
 OPT|
 OPT| RMS step size                                                 0.0210817832
 OPT| Convergence limit for RMS step size                           0.0015000000
 OPT| RMS step size is converged                                              NO
 OPT|
 OPT| Maximum gradient                                              0.0071349771
 OPT| Convergence limit for maximum gradient                        0.0004500000
 OPT| Maximum gradient is converged                                           NO
 OPT|
 OPT| RMS gradient                                                  0.0027531117
 OPT| Convergence limit for RMS gradient                            0.0003000000
 OPT| RMS gradient is converged                                               NO
 OPT|
 OPT| Pressure deviation [bar]                                  -7060.9398447860
 OPT| Pressure tolerance [bar]                                    100.0000000000
 OPT| Pressure is converged                                                   NO
 OPT| **************************************************************************
 OPT| Estimated peak process memory after this step [MiB]                    163

 --------------------------
 OPTIMIZATION STEP:     11
 --------------------------

 CELL| Volume [angstrom^3]:                                           147.549770
 CELL| Vector a [angstrom]:       5.251     0.000     0.000   |a| =     5.250867
 CELL| Vector b [angstrom]:      -0.000     5.828     0.000   |b| =     5.827522
 CELL| Vector c [angstrom]:      -2.293    -0.000     4.822   |c| =     5.339381
 CELL| Angle (b,c), alpha [degree]:                                    90.000000
 CELL| Angle (a,c), beta  [degree]:                                   115.432269
 CELL| Angle (a,b), gamma [degree]:                                    90.000000
 CELL| Numerically orthorhombic:                                              NO
 CELL| Periodicity                                                           XYZ

 Extrapolation method: ASPC

 Number of electrons:                                                         68
 Number of occupied orbitals:                                                 34
 Number of molecular orbitals:                                                52

 Number of orbital functions:                                                 52
 Number of independent orbital functions:                                     52


 SCF WAVEFUNCTION OPTIMIZATION

  Step     Update method      Time    Convergence         Total energy    Change
  ------------------------------------------------------------------------------
     1 TBLite/Diag 0.40E+00    0.0     0.01208008       -43.2173357143 -4.32E+01
     2 TBLite/Diag 0.40E+00    0.0     0.00229788       -43.2173625476 -2.68E-05
     3 TBLite/Diag 0.40E+00    0.0     0.00058958       -43.2173648105 -2.26E-06
     4 TBLite/Diag 0.40E+00    0.0     0.00038532       -43.2173653314 -5.21E-07
     5 TBLite/Diag 0.40E+00    0.0     0.00003153       -43.2173653466 -1.53E-08
     6 TBLite/Diag 0.40E+00    0.0     0.00003127       -43.2173653534 -6.79E-09
     7 TBLite/Diag 0.40E+00    0.0     0.00001105       -43.2173653539 -4.79E-10
     8 TBLite/Diag 0.40E+00    0.0     0.00000155       -43.2173653539 -5.79E-12
     9 TBLite/Diag 0.40E+00    0.0     0.00000111       -43.2173653539 -4.39E-12
    10 TBLite/Diag 0.40E+00    0.0     0.00000013       -43.2173653539 -4.26E-14
    11 TBLite/Diag 0.40E+00    0.0     0.00000002       -43.2173653539 -7.11E-15
    12 TBLite/Diag 0.40E+00    0.0     0.00000001       -43.2173653539 -7.11E-15
    13 TBLite/Diag 0.40E+00    0.0     3.6724E-09       -43.2173653539  0.00E+00
    14 TBLite/Diag 0.40E+00    0.0     5.6736E-10       -43.2173653539 -7.11E-15

  *** SCF run converged in    14 steps ***


  Core Hamiltonian energy:                                    -43.59930482941020
  Repulsive potential energy:                                   0.28156074775321
  Electrostatic energy:                                         0.13783518429062
  Self-consistent dispersion energy:                           -0.04760069050196
  Non-self consistent dispersion energy:                        0.01014423396651
  Correction for halogen bonding:                               0.00000000000000
  Electronic entropic energy:                                  -0.00000000000000
  Fermi energy:                                                -0.33401647396931

  Total energy:                                               -43.21736535390182
  Total energy (extrapolated to T->0):                        -43.21736535390182

 ENERGY| Total FORCE_EVAL ( QS ) energy [hartree]            -43.217365353901819

 OPT| **************************************************************************
 OPT| Step number                                                             11
 OPT| Optimization method                                                   BFGS
 OPT| Total energy [hartree]                                      -43.2173653539
 OPT| Internal pressure [bar]                                   -3824.7263036356
 OPT| Effective energy change [hartree]                            -0.0005670590
 OPT| Predicted energy change [hartree]                            -0.0004189834
 OPT| Scaling factor                                                0.0000000000
 OPT| Step size                                                     0.0309209244
 OPT| Trust radius                                                  0.4724315332
 OPT| Decrease in energy                                                     YES
 OPT| Used time [s]                                                        0.892
 OPT|
 OPT| Maximum step size                                             0.0309209244
 OPT| Convergence limit for maximum step size                       0.0030000000
 OPT| Maximum step size is converged                                          NO
 OPT|
 OPT| RMS step size                                                 0.0092440164
 OPT| Convergence limit for RMS step size                           0.0015000000
 OPT| RMS step size is converged                                              NO
 OPT|
 OPT| Maximum gradient                                              0.0075764519
 OPT| Convergence limit for maximum gradient                        0.0004500000
 OPT| Maximum gradient is converged                                           NO
 OPT|
 OPT| RMS gradient                                                  0.0020968881
 OPT| Convergence limit for RMS gradient                            0.0003000000
 OPT| RMS gradient is converged                                               NO
 OPT|
[...]

 CELL| Volume [angstrom^3]:                                           144.663694
 CELL| Vector a [angstrom]:       5.274     0.000     0.000   |a| =     5.274039
 CELL| Vector b [angstrom]:       0.000     5.590     0.000   |b| =     5.590112
 CELL| Vector c [angstrom]:      -2.641    -0.000     4.907   |c| =     5.572133
 CELL| Angle (b,c), alpha [degree]:                                    90.000176
 CELL| Angle (a,c), beta  [degree]:                                   118.286285
 CELL| Angle (a,b), gamma [degree]:                                    89.999946
 CELL| Numerically orthorhombic:                                              NO
 CELL| Periodicity                                                           XYZ

 Extrapolation method: ASPC

 Number of electrons:                                                         68
 Number of occupied orbitals:                                                 34
 Number of molecular orbitals:                                                52

 Number of orbital functions:                                                 52
 Number of independent orbital functions:                                     52


 SCF WAVEFUNCTION OPTIMIZATION

  Step     Update method      Time    Convergence         Total energy    Change
  ------------------------------------------------------------------------------
     1 TBLite/Diag 0.40E+00    0.0     0.00069998       -43.2264027001 -4.32E+01
     2 TBLite/Diag 0.40E+00    0.0     0.00016344       -43.2264027521 -5.21E-08
     3 TBLite/Diag 0.40E+00    0.0     0.00002470       -43.2264027552 -3.06E-09
     4 TBLite/Diag 0.40E+00    0.0     0.00001944       -43.2264027561 -8.59E-10
     5 TBLite/Diag 0.40E+00    0.0     0.00000681       -43.2264027562 -1.31E-10
     6 TBLite/Diag 0.40E+00    0.0     0.00000213       -43.2264027562 -2.40E-11
     7 TBLite/Diag 0.40E+00    0.0     0.00000086       -43.2264027562 -1.12E-12
     8 TBLite/Diag 0.40E+00    0.0     0.00000041       -43.2264027562 -7.74E-13
     9 TBLite/Diag 0.40E+00    0.0     0.00000004       -43.2264027562 -4.97E-14
    10 TBLite/Diag 0.40E+00    0.0     0.00000003       -43.2264027562  7.11E-15
    11 TBLite/Diag 0.40E+00    0.0     0.00000001       -43.2264027562 -7.11E-15
    12 TBLite/Diag 0.40E+00    0.0     4.8350E-09       -43.2264027562  0.00E+00
    13 TBLite/Diag 0.40E+00    0.0     9.8671E-10       -43.2264027562  1.42E-14

  *** SCF run converged in    13 steps ***


  Core Hamiltonian energy:                                    -43.59967397040201
  Repulsive potential energy:                                   0.27630144939262
  Electrostatic energy:                                         0.13505357519010
  Self-consistent dispersion energy:                           -0.04862783406261
  Non-self consistent dispersion energy:                        0.01054402367233
  Correction for halogen bonding:                               0.00000000000000
  Electronic entropic energy:                                  -0.00000000000000
  Fermi energy:                                                -0.33379285169412

  Total energy:                                               -43.22640275620956
  Total energy (extrapolated to T->0):                        -43.22640275620956

 ENERGY| Total FORCE_EVAL ( QS ) energy [hartree]            -43.226402756209559

 OPT| **************************************************************************
 OPT| Step number                                                             73
 OPT| Optimization method                                                   BFGS
 OPT| Total energy [hartree]                                      -43.2264027562
 OPT| Internal pressure [bar]                                     -39.9201713493
 OPT| Effective energy change [hartree]                            -0.0000015209
 OPT| Predicted energy change [hartree]                            -0.0000012679
 OPT| Scaling factor                                                0.8115298707
 OPT| Step size                                                     0.0022723991
 OPT| Trust radius                                                  0.4724315332
 OPT| Decrease in energy                                                     YES
 OPT| Used time [s]                                                        0.474
 OPT|
 OPT| Maximum step size                                             0.0022723991
 OPT| Convergence limit for maximum step size                       0.0030000000
 OPT| Maximum step size is converged                                         YES
 OPT|
 OPT| RMS step size                                                 0.0007285259
 OPT| Convergence limit for RMS step size                           0.0015000000
 OPT| RMS step size is converged                                             YES
 OPT|
 OPT| Maximum gradient                                              0.0002355659
 OPT| Convergence limit for maximum gradient                        0.0004500000
 OPT| Maximum gradient is converged                                          YES
 OPT|
 OPT| RMS gradient                                                  0.0000736844
 OPT| Convergence limit for RMS gradient                            0.0003000000
 OPT| RMS gradient is converged                                              YES
 OPT|
 OPT| Pressure deviation [bar]                                    -39.9201713493
 OPT| Pressure tolerance [bar]                                    100.0000000000
 OPT| Pressure is converged                                                  YES
 OPT| **************************************************************************
 OPT| Estimated peak process memory after this step [MiB]                    163

 *******************************************************************************
 ***                    GEOMETRY OPTIMIZATION COMPLETED                      ***
 *******************************************************************************

 write_final_structure: Optimization converged, writing XYZ file gladly:
  oxalic_acid_beta_GFN2_gamma_cell_opt-FINAL-1_73.xyz

 write_final_structure: Optimization converged, writing CIF file gladly:
  oxalic_acid_beta_GFN2_gamma_cell_opt-FINAL-1_73.cif

 write_final_structure: Done!

                    Reevaluating energy at the minimum

 CELL| Volume [angstrom^3]:                                           144.663694
 CELL| Vector a [angstrom]:       5.274     0.000     0.000   |a| =     5.274039
 CELL| Vector b [angstrom]:       0.000     5.590     0.000   |b| =     5.590112
 CELL| Vector c [angstrom]:      -2.641    -0.000     4.907   |c| =     5.572133
 CELL| Angle (b,c), alpha [degree]:                                    90.000176
 CELL| Angle (a,c), beta  [degree]:                                   118.286285
 CELL| Angle (a,b), gamma [degree]:                                    89.999946
 CELL| Numerically orthorhombic:                                              NO
 CELL| Periodicity                                                           XYZ

 Extrapolation method: ASPC

 Number of electrons:                                                         68
 Number of occupied orbitals:                                                 34
 Number of molecular orbitals:                                                52

 Number of orbital functions:                                                 52
 Number of independent orbital functions:                                     52


 SCF WAVEFUNCTION OPTIMIZATION

  Step     Update method      Time    Convergence         Total energy    Change
  ------------------------------------------------------------------------------
     1 TBLite/Diag 0.40E+00    0.0     1.7534E-10       -43.2264027562 -4.32E+01

  *** SCF run converged in     1 steps ***


  Core Hamiltonian energy:                                    -43.59967397038611
  Repulsive potential energy:                                   0.27630144939262
  Electrostatic energy:                                         0.13505357517414
  Self-consistent dispersion energy:                           -0.04862783406255
  Non-self consistent dispersion energy:                        0.01054402367233
  Correction for halogen bonding:                               0.00000000000000
  Electronic entropic energy:                                  -0.00000000000000
  Fermi energy:                                                -0.33379285169014

  Total energy:                                               -43.22640275620957
  Total energy (extrapolated to T->0):                        -43.22640275620957

 ENERGY| Total FORCE_EVAL ( QS ) energy [hartree]            -43.226402756209566

 -------------------------------------------------------------------------------
 -                                                                             -
 -                                DBCSR STATISTICS                             -
 -                                                                             -
 -------------------------------------------------------------------------------
 COUNTER                                    TOTAL       BLAS       SMM       ACC
 flops     1 x    20 x     1               230400       0.0%    100.0%      0.0%     
 flops     1 x    32 x     1               368640       0.0%    100.0%      0.0%     
 flops     1 x     1 x    52              1274000       0.0%    100.0%      0.0%     
 flops     1 x    20 x     4              2764800       0.0%    100.0%      0.0%     
 flops     4 x    20 x     1              2764800       0.0%    100.0%      0.0%     
 flops     1 x    32 x     4              4423680       0.0%    100.0%      0.0%     
 flops     4 x    32 x     1              4423680       0.0%    100.0%      0.0%     
 flops     1 x     4 x    52             12230400       0.0%    100.0%      0.0%     
 flops     4 x     1 x    52             12230400       0.0%    100.0%      0.0%     
 flops     4 x    20 x     4             33177600       0.0%    100.0%      0.0%     
 flops     4 x    32 x     4             53084160       0.0%    100.0%      0.0%     
 flops     4 x     4 x    52            158995200       0.0%    100.0%      0.0%     
 flops inhomo. stacks                           0       0.0%      0.0%      0.0%
 flops total                       285.967760E+06       0.0%    100.0%      0.0%
 flops max/rank                    285.967760E+06       0.0%    100.0%      0.0%
 matmuls inhomo. stacks                         0       0.0%      0.0%      0.0%
 matmuls total                             350920       0.0%    100.0%      0.0%
 number of processed stacks                  7780       0.0%    100.0%      0.0%
 average stack size                                     0.0      45.1       0.0
 marketing flops                   326.480960E+06
 -------------------------------------------------------------------------------
 # multiplications                           1585
 max memory usage/rank              13.669728E+09
 # max total images/rank                        1
 # max 3D layers                                1
 # MPI messages exchanged                       0
 -------------------------------------------------------------------------------
 -                                                                             -
 -                      DBCSR MESSAGE PASSING PERFORMANCE                      -
 -                                                                             -
 -------------------------------------------------------------------------------
 ROUTINE             CALLS      AVE VOLUME [Bytes]
 MP_Bcast               13                     12.
 MP_Allreduce         7248                      8.
 MP_Alltoall         53008                  14432.
 MP_ISend             6340                   1149.
 MP_IRecv             6340                   1149.
 -------------------------------------------------------------------------------

 -------------------------------------------------------------------------------
 -                                                                             -
 -                          OFFLOAD MEMPOOL STATISTICS                         -
 -                                                                             -
 -------------------------------------------------------------------------------
 Memory consumption                Number of allocations  Used [MiB]  Size [MiB]
 Device                                                1           0           0
 Host                                                  1           0           0
 -------------------------------------------------------------------------------

 MEMORY| Estimated peak process memory [MiB]                                 163

 -------------------------------------------------------------------------------
 -                                                                             -
 -                         MESSAGE PASSING PERFORMANCE                         -
 -                                                                             -
 -------------------------------------------------------------------------------

 ROUTINE             CALLS      AVE VOLUME [Bytes]
 MP_Group               74
 MP_Bcast             2448                    211.
 MP_Allreduce        37620                    122.
 MP_Sync              1298
 MP_comm_split        1224
 -------------------------------------------------------------------------------


 -------------------------------------------------------------------------------
 -                                                                             -
 -                           R E F E R E N C E S                               -
 -                                                                             -
 -------------------------------------------------------------------------------
 
 CP2K version 2026.1 (Development Version), the CP2K developers group (2026).
 CP2K is freely available from https://www.cp2k.org/ .
 
 M. Iannuzzi, J. Wilhelm, F. Stein, A. Bussy, H. Elgabarty, D. Golze, A. Hehn, 
 M. Graml, S. Marek, B. Sertcan Gökmen, C. Schran, H. Forbert, R. Z. 
 Khaliullin, A. Kozhevnikov, M. Taillefumier, R. Meli, V. V. Rybkin, M. Brehm, 
 R. Schade, O. Schütt, J. V. Pototschnig, H. Mirhosseini, A. Knüpfer, D. Marx, 
 M. Krack, J. Hutter, T. D. Kühne.
 J. Phys. Chem. B 130, 1237-1310 (2026).
 The CP2K Program Package Made Simple.
 https://doi.org/10.1021/acs.jpcb.5c05851

 A. Katbashev, M. Stahn, T. Rose, V. Alizadeh, M. Friede, C. Plett, P. 
 Steinbach, S. Ehlert.
 J. Phys. Chem. A 129, 2667-2682 (2025).
 Overview on Building Blocks and Applications of Efficient and Robust Extended 
 Tight Binding.
 https://doi.org/10.1021/acs.jpca.4c08263

 T. D. Kühne, M. Iannuzzi, M. Del Ben, V. V. Rybkin, P. Seewald, F. Stein, T. 
 Laino, R. Z. Khaliullin, O. Schütt, F. Schiffmann, D. Golze, J. Wilhelm, S. 
 Chulkov, M. H. Bani-Hashemian, V. Weber, U. Borstnik, M. Taillefumier, A. S. 
 Jakobovits, A. Lazzaro, H. Pabst, T. Müller, R. Schade, M. Guidon, S. 
 Andermatt, N. Holmberg, G. K. Schenter, A. Hehn, A. Bussy, F. Belleflamme, G. 
 Tabacchi, A. Glöß, M. Lass, I. Bethune, C. J. Mundy, C. Plessl, M. Watkins, 
 J. VandeVondele, M. Krack, J. Hutter.
 J. Chem. Phys. 152, 194103 (2020).
 CP2K: An electronic structure and molecular dynamics software package - 
 Quickstep: Efficient and accurate electronic structure calculations.
 https://doi.org/10.1063/5.0007045

 P. Pracht, E. Caldeweyher, S. Ehlert, S. Grimme.
 ChemRxiv, (2019).
 A Robust Non-Self-Consistent Tight-Binding Quantum Chemistry Method for large 
 Molecules.
 https://doi.org/10.26434/chemrxiv.8326202.v1

 S. Grimme, C. Bannwarth, P. Shushkov.
 J. Chem. Theory Comput. 13, 1989 (2017).
 A Robust and Accurate Tight-Binding Quantum Chemical Method for Structures, 
 Vibrational Frequencies, and Noncovalent Interactions of Large Molecular 
 Systems Parametrized for All spd-Block Elements (Z = 1-86).
 https://doi.org/10.1021/acs.jctc.7b00118

 O. Schuett, P. Messmer, J. Hutter, J. VandeVondele.
 Electronic Structure Calculations on Graphics Processing Units, 173-190 (2016).
 GPU-Accelerated Sparse Matrix-Matrix Multiplication for Linear Scaling Density 
 Functional Theory.
 https://doi.org/10.1002/9781118670712.ch8

 A. Heinecke, G. Henry, M. Hutchinson, H. Pabst.
 Proceedings of Intl. Supercomputing Conference, 981-991 (2016).
 LIBXSMM: Accelerating Small Matrix Multiplications by Runtime Code Generation.
 https://doi.org/10.1109/SC.2016.83

 U. Borstnik, J. VandeVondele, V. Weber, J. Hutter.
 Parallel Comput. 40, 47-58 (2014).
 Sparse matrix multiplication: The distributed block-compressed sparse row 
 library.
 https://doi.org/10.1016/j.parco.2014.03.012

 T. D. Kühne, M. Krack, F. R. Mohamed, M. Parrinello.
 Phys. Rev. Lett. 98, 066401 (2007).
 Efficient and accurate Car-Parrinello-like approach to Born-Oppenheimer 
 molecular dynamics.
 https://doi.org/10.1103/PhysRevLett.98.066401

 M. Frigo, S. G. Johnson.
 Proc. IEEE 93, 216-231 (2005).
 The design and implementation of FFTW3.
 https://doi.org/10.1109/JPROC.2004.840301

 J. Kolafa.
 J. Comput. Chem. 25, 335-342 (2004).
 Time-reversible always stable predictor-corrector method for molecular dynamics 
 of polarizable molecules.
 https://doi.org/10.1002/jcc.10385

 N. D. Mermin.
 Phys. Rev. 137, A1441-A1443 (1965).
 Thermal Properties of the Inhomogeneous Electron Gas.
 https://doi.org/10.1103/PhysRev.137.A1441


 -------------------------------------------------------------------------------
 -                                                                             -
 -                                T I M I N G                                  -
 -                                                                             -
 -------------------------------------------------------------------------------
 SUBROUTINE                       CALLS  ASD         SELF TIME        TOTAL TIME
                                MAXIMUM       AVERAGE  MAXIMUM  AVERAGE  MAXIMUM
 CP2K                                 1  1.0    0.002    0.002   43.837   43.837
 cp_cell_opt                          1  2.0    0.000    0.000   43.832   43.832
 geoopt_bfgs                          1  3.0    0.007    0.007   43.832   43.832
 cp_eval_at                          75  4.0    0.007    0.007   43.752   43.752
 qs_forces                           74  5.0    0.004    0.004   43.634   43.634
 build_tblite_matrices              149  7.0   37.429   37.429   38.285   38.285
 qs_energies                         75  6.0    0.002    0.002   12.876   12.876
 qs_energies_init_hamiltonians       75  7.0    0.000    0.000   10.754   10.754
 rebuild_ks_matrix                 1151  9.8    0.001    0.001    3.641    3.641
 build_tblite_ks_matrix            1151 10.8    3.622    3.622    3.641    3.641
 qs_ks_update_qs_env_forces          74  6.0    0.000    0.000    3.275    3.275
 scf_env_do_scf                      75  7.0    0.001    0.001    1.850    1.850
 scf_env_do_scf_inner_loop         1077  8.0    0.203    0.203    1.847    1.847
 qs_scf_new_mos                    1077  9.0    0.004    0.004    1.185    1.185
 -------------------------------------------------------------------------------

 The number of warnings for this run is : 0
 
 -------------------------------------------------------------------------------
  **** **** ******  **  PROGRAM ENDED AT                 2026-05-23 22:48:26.557
 ***** ** ***  *** **   PROGRAM RAN ON                                spark-c86c
 **    ****   ******    PROGRAM RAN BY                                  kuehne88
 ***** **    ** ** **   PROGRAM PROCESS ID                               2270256
  **** **  *******  **  PROGRAM STOPPED IN /home/kuehne88/periodic-gfn2-benchmar
                                           ks/X23b/runs/cellopt_gamma/GFN2/oxali
                                           c_acid_beta_GFN2_gamma_cellopt
