 DBCSR| CPU Multiplication driver                                           XSMM (U)
 DBCSR| Multrec recursion limit                                              512 (U)
 DBCSR| Multiplication stack size                                           1000 (D)
 DBCSR| Maximum elements for images                                    UNLIMITED (U)
 DBCSR| Multiplicative factor virtual images                                   1 (U)
 DBCSR| Use multiplication densification                                       T (D)
 DBCSR| Multiplication size stacks                                             3 (U)
 DBCSR| Use memory pool for CPU allocation                                     F (U)
 DBCSR| Number of 3D layers                                               SINGLE (U)
 DBCSR| Use MPI memory allocation                                              F (U)
 DBCSR| Use RMA algorithm                                                      F (U)
 DBCSR| Use Communication thread                                               T (U)
 DBCSR| Communication thread load                                             87 (D)
 DBCSR| MPI: My process id                                                     0
 DBCSR| MPI: Number of processes                                               1
 DBCSR| OMP: Current number of threads                                         1
 DBCSR| OMP: Max number of threads                                             1
 DBCSR| Split modifier for TAS multiplication algorithm                  1.0E+00 (U)


  **** **** ******  **  PROGRAM STARTED AT               2026-05-23 22:46:41.395
 ***** ** ***  *** **   PROGRAM STARTED ON                            spark-c86c
 **    ****   ******    PROGRAM STARTED BY                              kuehne88
 ***** **    ** ** **   PROGRAM PROCESS ID                               2260370
  **** **  *******  **  PROGRAM STARTED IN /home/kuehne88/periodic-gfn2-benchmar
                                           ks/X23b/runs/crystal_sp/k333/GFN2/co2
                                           _GFN2_k333_sp

 CP2K| version string:                 CP2K version 2026.1 (Development Version)
 CP2K| source code revision number:                                   0622d442e4
 CP2K| cp2kflags: omp fftw3 libxc parallel scalapack mpi_f08 xsmm spglib libdftd
 CP2K|            4 dftd4_v3 mctc-lib tblite
 CP2K| is freely available from                            https://www.cp2k.org/
 CP2K| Program compiled at                                   2026-05-23 22:05:08
 CP2K| Program compiled on                                            spark-c86c
 CP2K| Program compiled for                                              aarch64
 CP2K| Data directory path    /home/kuehne88/cp2k-master-tblite-20260523/install
 CP2K| Input file name                                      co2_GFN2_k333_sp.inp

 GLOBAL| Force Environment number                                              1
 GLOBAL| Basis set file name                                           BASIS_SET
 GLOBAL| Potential file name                                           POTENTIAL
 GLOBAL| MM Potential file name                                     MM_POTENTIAL
 GLOBAL| Coordinate file name                                      __STD_INPUT__
 GLOBAL| Method name                                                        CP2K
 GLOBAL| Project name                                       co2_GFN2_k333_energy
 GLOBAL| Run type                                                         ENERGY
 GLOBAL| FFT library                                                       FFTW3
 GLOBAL| Diagonalization library                                       ScaLAPACK
 GLOBAL| Cholesky decomposition library                                ScaLAPACK
 GLOBAL| DGEMM library                                                      BLAS
 GLOBAL| Direct generalized diagonalization requested                          F
 GLOBAL| Orthonormality check for eigenvectors                          DISABLED
 GLOBAL| Matrix multiplication library                                 ScaLAPACK
 GLOBAL| All-to-all communication in single precision                          F
 GLOBAL| FFTs using library dependent lengths                                  F
 GLOBAL| Grid backend                                                       AUTO
 GLOBAL| Global print level                                                  LOW
 GLOBAL| MPI I/O enabled                                                       T
 GLOBAL| Total number of message passing processes                             1
 GLOBAL| Number of distributed systems (nodes)                                 1
 GLOBAL| Number of threads for this process                                    1
 GLOBAL| This output is from process                                           0
 GLOBAL| OpenMP stack size per thread (OMP_STACKSIZE)                    default
 GLOBAL| CPU model name                                                  UNKNOWN
 GLOBAL| CPUID                                                              2200
 GLOBAL| Compiled for CPUID                                                 2000

 *** HINT in environment.F:970 :: The compiler target flags (arm_arch64)   ***
 *** used to build this binary cannot exploit all extensions of this CPU   ***
 *** model (arm_sve256). Consider compiler target flags as part of FCFLAGS ***
 *** and CFLAGS (ARCH file).                                               ***


 MEMORY| system memory details [Kb]
 MEMORY|                        rank 0           min           max       average
 MEMORY| MemTotal            125508532     125508532     125508532     125508532
 MEMORY| MemFree             102174232     102174232     102174232     102174232
 MEMORY| Buffers                867356        867356        867356        867356
 MEMORY| Cached               13806312      13806312      13806312      13806312
 MEMORY| Slab                  1584916       1584916       1584916       1584916
 MEMORY| SReclaimable           906916        906916        906916        906916
 MEMORY| MemLikelyFree       117754816     117754816     117754816     117754816


 GENERATE|  Preliminary Number of Bonds generated:                             0
 GENERATE|  Achieved consistency in connectivity generation.


                  #####   #####        #     #   #     #       #          
                 #     # #     #      #    ##### #     #   # #####  ####  
                 #     # #           #       #   ###   #       #   #    # 
                 #     #  #####     #        #   #  #  #   #   #   ###### 
                 #   # #       #   #         #   #   # #   #   #   #      
                 #    #  #     #  #          #   #  #  # # #   #    #   # 
                  #### #  #####  #           #   ###   ##  #   #     ###  

                                   GFN2-xTB  
                                 Version 0.0                       
                            Johann V. Pototschnig                  



 TOTAL NUMBERS AND MAXIMUM NUMBERS

  Total number of            - Atomic kinds:                                   2
                             - Atoms:                                         12
                             - Shell sets:                                    24
                             - Shells:                                        24
                             - Primitive Cartesian functions:                 96
                             - Cartesian basis functions:                     48
                             - Spherical basis functions:                     48

  Maximum angular momentum of the orbital basis functions:                     1


 SCF PARAMETERS         Density guess:                                     MOPAC
                        --------------------------------------------------------
                        max_scf:                                             300
                        max_scf_history:                                       0
                        max_diis:                                              4
                        --------------------------------------------------------
                        eps_scf:                                        1.00E-09
                        eps_scf_history:                                0.00E+00
                        eps_diis:                                       1.00E-01
                        eps_eigval:                                     1.00E-05
                        --------------------------------------------------------
                        level_shift [a.u.]:                             0.000000
                        added MOs                                        16    0
                        --------------------------------------------------------
                        Mixing method:                           DIRECT_P_MIXING
                        --------------------------------------------------------
                        Smear method:                                FERMI_DIRAC
                        Electronic temperature [K]:                        300.0
                        Electronic temperature [a.u.]:                  9.50E-04
                        Accuracy threshold:                             1.00E-06
                        --------------------------------------------------------
                        No outer SCF

 Extrapolation method: initial_guess

 Number of electrons:                                                         64
 Number of occupied orbitals:                                                 32
 Number of molecular orbitals:                                                48

 Number of orbital functions:                                                 48
 Number of independent orbital functions:                                     48


 SCF WAVEFUNCTION OPTIMIZATION

  Step     Update method      Time    Convergence         Total energy    Change
  ------------------------------------------------------------------------------
     1 TBLite/Diag 0.40E+00    0.1     0.69480723       -40.2980674753 -4.03E+01
     2 TBLite/Diag 0.40E+00    0.1     0.29521970       -41.2391824834 -9.41E-01
     3 TBLite/Diag 0.40E+00    0.1     0.06066373       -41.2622674640 -2.31E-02
     4 TBLite/Diag 0.40E+00    0.1     0.02535709       -41.2624496109 -1.82E-04
     5 TBLite/Diag 0.40E+00    0.1     0.01338888       -41.2643498292 -1.90E-03
     6 TBLite/Diag 0.40E+00    0.1     0.00066591       -41.2643541664 -4.34E-06
     7 TBLite/Diag 0.40E+00    0.1     0.00005199       -41.2643541973 -3.08E-08
     8 TBLite/Diag 0.40E+00    0.1     0.00000358       -41.2643541973 -3.71E-11
     9 TBLite/Diag 0.40E+00    0.1     0.00000125       -41.2643541973 -1.88E-11
    10 TBLite/Diag 0.40E+00    0.1     0.00000019       -41.2643541973  0.00E+00
    11 TBLite/Diag 0.40E+00    0.0     0.00000015       -41.2643541973 -1.28E-13
    12 TBLite/Diag 0.40E+00    0.0     0.00000001       -41.2643541973  7.11E-15
    13 TBLite/Diag 0.40E+00    0.0     0.00000002       -41.2643541973 -7.11E-15
    14 TBLite/Diag 0.40E+00    0.0     2.7812E-10       -41.2643541973 -1.42E-14

  *** SCF run converged in    14 steps ***


  Core Hamiltonian energy:                                    -41.83117549180065
  Repulsive potential energy:                                   0.44992134370496
  Electrostatic energy:                                         0.14572263715335
  Self-consistent dispersion energy:                           -0.03363746780449
  Non-self consistent dispersion energy:                        0.00481478140056
  Correction for halogen bonding:                               0.00000000000000
  Electronic entropic energy:                                  -0.00000000000000
  Fermi energy:                                                -0.32995430193664

  Total energy:                                               -41.26435419734626
  Total energy (extrapolated to T->0):                        -41.26435419734626

 ENERGY| Total FORCE_EVAL ( QS ) energy [hartree]            -41.264354197346258

 -------------------------------------------------------------------------------
 -                                                                             -
 -                                DBCSR STATISTICS                             -
 -                                                                             -
 -------------------------------------------------------------------------------
 COUNTER                                    TOTAL       BLAS       SMM       ACC
 flops inhomo. stacks                           0       0.0%      0.0%      0.0%
 flops total                         0.000000E+00       0.0%      0.0%      0.0%
 flops max/rank                      0.000000E+00       0.0%      0.0%      0.0%
 matmuls inhomo. stacks                         0       0.0%      0.0%      0.0%
 matmuls total                                  0       0.0%      0.0%      0.0%
 number of processed stacks                     0       0.0%      0.0%      0.0%
 average stack size                                     0.0       0.0       0.0
 marketing flops                     0.000000E+00
 -------------------------------------------------------------------------------
 -                                                                             -
 -                      DBCSR MESSAGE PASSING PERFORMANCE                      -
 -                                                                             -
 -------------------------------------------------------------------------------
 ROUTINE             CALLS      AVE VOLUME [Bytes]
 MP_Bcast                1                     12.
 MP_Allreduce           19                     21.
 MP_Alltoall         32442                  13152.
 -------------------------------------------------------------------------------

 -------------------------------------------------------------------------------
 -                                                                             -
 -                          OFFLOAD MEMPOOL STATISTICS                         -
 -                                                                             -
 -------------------------------------------------------------------------------
 Memory consumption                Number of allocations  Used [MiB]  Size [MiB]
 Device                                                1           0           0
 Host                                                  1           0           0
 -------------------------------------------------------------------------------

 MEMORY| Estimated peak process memory [MiB]                                 188

 -------------------------------------------------------------------------------
 -                                                                             -
 -                         MESSAGE PASSING PERFORMANCE                         -
 -                                                                             -
 -------------------------------------------------------------------------------

 ROUTINE             CALLS      AVE VOLUME [Bytes]
 MP_Group                1
 MP_Bcast            13946                      7.
 MP_Allreduce        15527                    111.
 MP_Sync                 1
 MP_Wait             11610
 MP_ISend            16254                   2639.
 MP_IRecv            16254                   2639.
 -------------------------------------------------------------------------------


 -------------------------------------------------------------------------------
 -                                                                             -
 -                           R E F E R E N C E S                               -
 -                                                                             -
 -------------------------------------------------------------------------------
 
 CP2K version 2026.1 (Development Version), the CP2K developers group (2026).
 CP2K is freely available from https://www.cp2k.org/ .
 
 M. Iannuzzi, J. Wilhelm, F. Stein, A. Bussy, H. Elgabarty, D. Golze, A. Hehn, 
 M. Graml, S. Marek, B. Sertcan Gökmen, C. Schran, H. Forbert, R. Z. 
 Khaliullin, A. Kozhevnikov, M. Taillefumier, R. Meli, V. V. Rybkin, M. Brehm, 
 R. Schade, O. Schütt, J. V. Pototschnig, H. Mirhosseini, A. Knüpfer, D. Marx, 
 M. Krack, J. Hutter, T. D. Kühne.
 J. Phys. Chem. B 130, 1237-1310 (2026).
 The CP2K Program Package Made Simple.
 https://doi.org/10.1021/acs.jpcb.5c05851

 A. Katbashev, M. Stahn, T. Rose, V. Alizadeh, M. Friede, C. Plett, P. 
 Steinbach, S. Ehlert.
 J. Phys. Chem. A 129, 2667-2682 (2025).
 Overview on Building Blocks and Applications of Efficient and Robust Extended 
 Tight Binding.
 https://doi.org/10.1021/acs.jpca.4c08263

 T. D. Kühne, M. Iannuzzi, M. Del Ben, V. V. Rybkin, P. Seewald, F. Stein, T. 
 Laino, R. Z. Khaliullin, O. Schütt, F. Schiffmann, D. Golze, J. Wilhelm, S. 
 Chulkov, M. H. Bani-Hashemian, V. Weber, U. Borstnik, M. Taillefumier, A. S. 
 Jakobovits, A. Lazzaro, H. Pabst, T. Müller, R. Schade, M. Guidon, S. 
 Andermatt, N. Holmberg, G. K. Schenter, A. Hehn, A. Bussy, F. Belleflamme, G. 
 Tabacchi, A. Glöß, M. Lass, I. Bethune, C. J. Mundy, C. Plessl, M. Watkins, 
 J. VandeVondele, M. Krack, J. Hutter.
 J. Chem. Phys. 152, 194103 (2020).
 CP2K: An electronic structure and molecular dynamics software package - 
 Quickstep: Efficient and accurate electronic structure calculations.
 https://doi.org/10.1063/5.0007045

 P. Pracht, E. Caldeweyher, S. Ehlert, S. Grimme.
 ChemRxiv, (2019).
 A Robust Non-Self-Consistent Tight-Binding Quantum Chemistry Method for large 
 Molecules.
 https://doi.org/10.26434/chemrxiv.8326202.v1

 S. Grimme, C. Bannwarth, P. Shushkov.
 J. Chem. Theory Comput. 13, 1989 (2017).
 A Robust and Accurate Tight-Binding Quantum Chemical Method for Structures, 
 Vibrational Frequencies, and Noncovalent Interactions of Large Molecular 
 Systems Parametrized for All spd-Block Elements (Z = 1-86).
 https://doi.org/10.1021/acs.jctc.7b00118

 O. Schuett, P. Messmer, J. Hutter, J. VandeVondele.
 Electronic Structure Calculations on Graphics Processing Units, 173-190 (2016).
 GPU-Accelerated Sparse Matrix-Matrix Multiplication for Linear Scaling Density 
 Functional Theory.
 https://doi.org/10.1002/9781118670712.ch8

 A. Heinecke, G. Henry, M. Hutchinson, H. Pabst.
 Proceedings of Intl. Supercomputing Conference, 981-991 (2016).
 LIBXSMM: Accelerating Small Matrix Multiplications by Runtime Code Generation.
 https://doi.org/10.1109/SC.2016.83

 U. Borstnik, J. VandeVondele, V. Weber, J. Hutter.
 Parallel Comput. 40, 47-58 (2014).
 Sparse matrix multiplication: The distributed block-compressed sparse row 
 library.
 https://doi.org/10.1016/j.parco.2014.03.012

 M. Frigo, S. G. Johnson.
 Proc. IEEE 93, 216-231 (2005).
 The design and implementation of FFTW3.
 https://doi.org/10.1109/JPROC.2004.840301

 N. D. Mermin.
 Phys. Rev. 137, A1441-A1443 (1965).
 Thermal Properties of the Inhomogeneous Electron Gas.
 https://doi.org/10.1103/PhysRev.137.A1441


 -------------------------------------------------------------------------------
 -                                                                             -
 -                                T I M I N G                                  -
 -                                                                             -
 -------------------------------------------------------------------------------
 SUBROUTINE                       CALLS  ASD         SELF TIME        TOTAL TIME
                                MAXIMUM       AVERAGE  MAXIMUM  AVERAGE  MAXIMUM
 CP2K                                 1  1.0    0.004    0.004    1.338    1.338
 qs_energies                          1  2.0    0.000    0.000    1.330    1.330
 scf_env_do_scf                       1  3.0    0.000    0.000    1.204    1.204
 scf_env_do_scf_inner_loop           14  4.0    0.072    0.072    1.204    1.204
 qs_scf_new_mos_kp                   14  5.0    0.000    0.000    0.989    0.989
 do_general_diag_kp                  14  6.0    0.007    0.007    0.989    0.989
 copy_dbcsr_to_fm                  1610  6.9    0.007    0.007    0.216    0.216
 kpoint_density_transform            14  7.0    0.002    0.002    0.198    0.198
 cp_cfm_geeig                       378  7.0    0.001    0.001    0.183    0.183
 dbcsr_complete_redistribute       2366  8.2    0.098    0.098    0.174    0.174
 rskp_transform                     783  6.9    0.146    0.146    0.146    0.146
 cp_cfm_heevd                       378  8.0    0.000    0.000    0.122    0.122
 cp_cfm_heevd_base                  378  9.0    0.122    0.122    0.122    0.122
 qs_ks_update_qs_env                 14  5.0    0.000    0.000    0.116    0.116
 qs_energies_init_hamiltonians        1  3.0    0.000    0.000    0.112    0.112
 dbcsr_desymmetrize_deep           3176  7.4    0.057    0.057    0.111    0.111
 rebuild_ks_matrix                   14  6.0    0.000    0.000    0.110    0.110
 build_tblite_matrices                1  4.0    0.079    0.079    0.110    0.110
 build_tblite_ks_matrix              14  7.0    0.100    0.100    0.110    0.110
 copy_fm_to_dbcsr                   756  8.0    0.002    0.002    0.089    0.089
 cp_fm_start_copy_general          2322  7.3    0.065    0.065    0.083    0.083
 transform_dmat                     378  8.0    0.064    0.064    0.064    0.064
 qs_diis_b_calc_err_kp              351  7.0    0.003    0.003    0.047    0.047
 cp_cfm_triangular_multiply        1134  8.0    0.043    0.043    0.043    0.043
 parallel_gemm_cfm                 1404  8.0    0.001    0.001    0.042    0.042
 cp_fm_finish_copy_general         2322  7.3    0.041    0.041    0.042    0.042
 parallel_gemm_cfm_gemm            1404  9.0    0.001    0.001    0.042    0.042
 dbcsr_finalize                    8562  8.0    0.007    0.007    0.042    0.042
 cp_cfm_gemm                       1404 10.0    0.041    0.041    0.041    0.041
 kpoint_density_matrices             14  7.0    0.002    0.002    0.037    0.037
 parallel_gemm_fm_gemm             1512  8.0    0.001    0.001    0.035    0.035
 cp_fm_gemm                        1512  9.0    0.034    0.034    0.034    0.034
 dbcsr_copy                        1988  7.5    0.003    0.003    0.030    0.030
 cp_dbcsr_alloc_block_from_nbl     1070  5.8    0.020    0.020    0.029    0.029
 tb_get_multipole                     1  5.0    0.006    0.006    0.028    0.028
 -------------------------------------------------------------------------------

 The number of warnings for this run is : 0
 
 -------------------------------------------------------------------------------
  **** **** ******  **  PROGRAM ENDED AT                 2026-05-23 22:46:43.092
 ***** ** ***  *** **   PROGRAM RAN ON                                spark-c86c
 **    ****   ******    PROGRAM RAN BY                                  kuehne88
 ***** **    ** ** **   PROGRAM PROCESS ID                               2260370
  **** **  *******  **  PROGRAM STOPPED IN /home/kuehne88/periodic-gfn2-benchmar
                                           ks/X23b/runs/crystal_sp/k333/GFN2/co2
                                           _GFN2_k333_sp
