 DBCSR| CPU Multiplication driver                                           XSMM (U)
 DBCSR| Multrec recursion limit                                              512 (U)
 DBCSR| Multiplication stack size                                           1000 (D)
 DBCSR| Maximum elements for images                                    UNLIMITED (U)
 DBCSR| Multiplicative factor virtual images                                   1 (U)
 DBCSR| Use multiplication densification                                       T (D)
 DBCSR| Multiplication size stacks                                             3 (U)
 DBCSR| Use memory pool for CPU allocation                                     F (U)
 DBCSR| Number of 3D layers                                               SINGLE (U)
 DBCSR| Use MPI memory allocation                                              F (U)
 DBCSR| Use RMA algorithm                                                      F (U)
 DBCSR| Use Communication thread                                               T (U)
 DBCSR| Communication thread load                                             87 (D)
 DBCSR| MPI: My process id                                                     0
 DBCSR| MPI: Number of processes                                               1
 DBCSR| OMP: Current number of threads                                         1
 DBCSR| OMP: Max number of threads                                             1
 DBCSR| Split modifier for TAS multiplication algorithm                  1.0E+00 (U)


  **** **** ******  **  PROGRAM STARTED AT               2026-05-23 23:04:09.190
 ***** ** ***  *** **   PROGRAM STARTED ON                            spark-c86c
 **    ****   ******    PROGRAM STARTED BY                              kuehne88
 ***** **    ** ** **   PROGRAM PROCESS ID                               2275655
  **** **  *******  **  PROGRAM STARTED IN /home/kuehne88/periodic-gfn2-benchmar
                                           ks/X23b/runs/cellopt_gamma/GFN1/cytos
                                           ine_GFN1_gamma_cellopt

 CP2K| version string:                 CP2K version 2026.1 (Development Version)
 CP2K| source code revision number:                                   0622d442e4
 CP2K| cp2kflags: omp fftw3 libxc parallel scalapack mpi_f08 xsmm spglib libdftd
 CP2K|            4 dftd4_v3 mctc-lib tblite
 CP2K| is freely available from                            https://www.cp2k.org/
 CP2K| Program compiled at                                   2026-05-23 22:05:08
 CP2K| Program compiled on                                            spark-c86c
 CP2K| Program compiled for                                              aarch64
 CP2K| Data directory path    /home/kuehne88/cp2k-master-tblite-20260523/install
 CP2K| Input file name                                          continue_800.inp

 GLOBAL| Force Environment number                                              1
 GLOBAL| Basis set file name                                           BASIS_SET
 GLOBAL| Potential file name                                           POTENTIAL
 GLOBAL| MM Potential file name                                     MM_POTENTIAL
 GLOBAL| Coordinate file name                                      __STD_INPUT__
 GLOBAL| Method name                                                        CP2K
 GLOBAL| Project name                               cytosine_GFN1_gamma_cell_opt
 GLOBAL| Run type                                                       CELL_OPT
 GLOBAL| FFT library                                                       FFTW3
 GLOBAL| Diagonalization library                                       ScaLAPACK
 GLOBAL| Cholesky decomposition library                                ScaLAPACK
 GLOBAL| DGEMM library                                                      BLAS
 GLOBAL| Direct generalized diagonalization requested                          F
 GLOBAL| Orthonormality check for eigenvectors                          DISABLED
 GLOBAL| Matrix multiplication library                                 ScaLAPACK
 GLOBAL| All-to-all communication in single precision                          F
 GLOBAL| FFTs using library dependent lengths                                  F
 GLOBAL| Grid backend                                                       AUTO
 GLOBAL| Global print level                                                  LOW
 GLOBAL| MPI I/O enabled                                                       T
 GLOBAL| Total number of message passing processes                             1
 GLOBAL| Number of distributed systems (nodes)                                 1
 GLOBAL| Number of threads for this process                                    1
 GLOBAL| This output is from process                                           0
 GLOBAL| OpenMP stack size per thread (OMP_STACKSIZE)                    default
 GLOBAL| CPU model name                                                  UNKNOWN
 GLOBAL| CPUID                                                              2200
 GLOBAL| Compiled for CPUID                                                 2000

 *** HINT in environment.F:970 :: The compiler target flags (arm_arch64)   ***
 *** used to build this binary cannot exploit all extensions of this CPU   ***
 *** model (arm_sve256). Consider compiler target flags as part of FCFLAGS ***
 *** and CFLAGS (ARCH file).                                               ***


 MEMORY| system memory details [Kb]
 MEMORY|                        rank 0           min           max       average
 MEMORY| MemTotal            125508532     125508532     125508532     125508532
 MEMORY| MemFree             106405684     106405684     106405684     106405684
 MEMORY| Buffers                870280        870280        870280        870280
 MEMORY| Cached               14131464      14131464      14131464      14131464
 MEMORY| Slab                  1599112       1599112       1599112       1599112
 MEMORY| SReclaimable           926060        926060        926060        926060
 MEMORY| MemLikelyFree       122333488     122333488     122333488     122333488


 GENERATE|  Preliminary Number of Bonds generated:                             0
 GENERATE|  Achieved consistency in connectivity generation.


                  #####   #####        #     #   #     #       #          
                 #     # #     #      #    ##### #     #   # #####  ####  
                 #     # #           #       #   ###   #       #   #    # 
                 #     #  #####     #        #   #  #  #   #   #   ###### 
                 #   # #       #   #         #   #   # #   #   #   #      
                 #    #  #     #  #          #   #  #  # # #   #    #   # 
                  #### #  #####  #           #   ###   ##  #   #     ###  

                                   GFN1-xTB  
                                 Version 0.0                       
                            Johann V. Pototschnig                  



 TOTAL NUMBERS AND MAXIMUM NUMBERS

  Total number of            - Atomic kinds:                                   4
                             - Atoms:                                         52
                             - Shell sets:                                   104
                             - Shells:                                       104
                             - Primitive Cartesian functions:                604
                             - Cartesian basis functions:                    168
                             - Spherical basis functions:                    168

  Maximum angular momentum of the orbital basis functions:                     1


 SCF PARAMETERS         Density guess:                                     MOPAC
                        --------------------------------------------------------
                        max_scf:                                             300
                        max_scf_history:                                       0
                        max_diis:                                              4
                        --------------------------------------------------------
                        eps_scf:                                        1.00E-09
                        eps_scf_history:                                0.00E+00
                        eps_diis:                                       1.00E-01
                        eps_eigval:                                     1.00E-05
                        --------------------------------------------------------
                        level_shift [a.u.]:                             0.000000
                        added MOs                                        84    0
                        --------------------------------------------------------
                        Mixing method:                           DIRECT_P_MIXING
                        --------------------------------------------------------
                        Smear method:                                FERMI_DIRAC
                        Electronic temperature [K]:                        300.0
                        Electronic temperature [a.u.]:                  9.50E-04
                        Accuracy threshold:                             1.00E-06
                        --------------------------------------------------------
                        No outer SCF

 CELL_OPT| Pressure tolerance [bar]:                                       100.0
 CELL_OPT| Keep volume of cell:                                               NO
 CELL_OPT| Keep angles between the cell vectors:                              NO
 CELL_OPT| Keep cell symmetry:                                                NO
 CELL_OPT| Constraint:                                                      NONE

 BFGS| Use rational function optimization for step estimation:                NO
 BFGS| Use model Hessian for initial guess:                                   NO
 BFGS| Restart Hessian:                                                       NO
 BFGS| Trust radius:                                                       0.472

 *******************************************************************************
 ***                     STARTING   CELL   OPTIMIZATION                      ***
 ***                                   BFGS                                  ***
 *******************************************************************************

 CELL| Volume [angstrom^3]:                                           434.942247
 CELL| Vector a [angstrom]:      10.637     0.000     0.000   |a| =    10.637214
 CELL| Vector b [angstrom]:      -0.000    10.431     0.000   |b| =    10.431285
 CELL| Vector c [angstrom]:       0.000    -0.000     3.920   |c| =     3.919818
 CELL| Angle (b,c), alpha [degree]:                                    90.000000
 CELL| Angle (a,c), beta  [degree]:                                    90.000000
 CELL| Angle (a,b), gamma [degree]:                                    90.000000
 CELL| Numerically orthorhombic:                                              NO
 CELL| Periodicity                                                           XYZ

 Extrapolation method: initial_guess

 Number of electrons:                                                        168
 Number of occupied orbitals:                                                 84
 Number of molecular orbitals:                                               168

 Number of orbital functions:                                                168
 Number of independent orbital functions:                                    168


 SCF WAVEFUNCTION OPTIMIZATION

  Step     Update method      Time    Convergence         Total energy    Change
  ------------------------------------------------------------------------------
     1 TBLite/Diag 0.40E+00    0.0     1.59906553      -100.7426891693 -1.01E+02
     2 TBLite/Diag 0.40E+00    0.0     0.27234412      -102.0639153822 -1.32E+00
     3 TBLite/Diag 0.40E+00    0.0     0.05505104      -102.0942901011 -3.04E-02
     4 TBLite/Diag 0.40E+00    0.0     0.02853147      -102.0982216370 -3.93E-03
     5 TBLite/Diag 0.40E+00    0.0     0.01966472      -102.1005402823 -2.32E-03
     6 TBLite/Diag 0.40E+00    0.0     0.00566198      -102.1007843763 -2.44E-04
     7 TBLite/Diag 0.40E+00    0.0     0.00186226      -102.1008155602 -3.12E-05
     8 TBLite/Diag 0.40E+00    0.0     0.00022645      -102.1008161230 -5.63E-07
     9 TBLite/Diag 0.40E+00    0.0     0.00004234      -102.1008161415 -1.85E-08
    10 TBLite/Diag 0.40E+00    0.0     0.00000790      -102.1008161427 -1.13E-09
    11 TBLite/Diag 0.40E+00    0.0     0.00000188      -102.1008161427 -1.88E-11
    12 TBLite/Diag 0.40E+00    0.0     0.00000039      -102.1008161427  4.12E-13
    13 TBLite/Diag 0.40E+00    0.0     0.00000035      -102.1008161427 -9.95E-13
    14 TBLite/Diag 0.40E+00    0.0     0.00000010      -102.1008161427  1.85E-13
    15 TBLite/Diag 0.40E+00    0.0     0.00000004      -102.1008161427 -1.14E-13
    16 TBLite/Diag 0.40E+00    0.0     1.2528E-09      -102.1008161427 -4.26E-14
    17 TBLite/Diag 0.40E+00    0.0     2.4001E-10      -102.1008161427  5.68E-14

  *** SCF run converged in    17 steps ***


  Core Hamiltonian energy:                                   -103.59409729719958
  Repulsive potential energy:                                   1.21370947046591
  Electrostatic energy:                                         0.39333359700757
  Self-consistent dispersion energy:                            0.00000000000000
  Non-self consistent dispersion energy:                       -0.11376191294539
  Correction for halogen bonding:                               0.00000000000000
  Electronic entropic energy:                                  -0.00000000000000
  Fermi energy:                                                -0.30459326437942

  Total energy:                                              -102.10081614267149
  Total energy (extrapolated to T->0):                       -102.10081614267149

 ENERGY| Total FORCE_EVAL ( QS ) energy [hartree]           -102.100816142671491

 OPT| **************************************************************************
 OPT| Step number                                                            200
 OPT| Optimization method                                                   BFGS
 OPT| Total energy [hartree]                                     -102.1008161427
 OPT| Internal pressure [bar]                                      33.9193424800
 OPT| Used time [s]                                                        0.408

 --------------------------
 OPTIMIZATION STEP:    201
 --------------------------

 CELL| Volume [angstrom^3]:                                           434.943716
 CELL| Vector a [angstrom]:      10.637     0.000     0.000   |a| =    10.637251
 CELL| Vector b [angstrom]:       0.000    10.431     0.000   |b| =    10.431273
 CELL| Vector c [angstrom]:       0.000    -0.000     3.920   |c| =     3.919822
 CELL| Angle (b,c), alpha [degree]:                                    90.000000
 CELL| Angle (a,c), beta  [degree]:                                    90.000000
 CELL| Angle (a,b), gamma [degree]:                                    90.000000
 CELL| Numerically orthorhombic:                                              NO
 CELL| Periodicity                                                           XYZ

 Extrapolation method: ASPC

 Number of electrons:                                                        168
 Number of occupied orbitals:                                                 84
 Number of molecular orbitals:                                               168

 Number of orbital functions:                                                168
 Number of independent orbital functions:                                    168


 SCF WAVEFUNCTION OPTIMIZATION

  Step     Update method      Time    Convergence         Total energy    Change
  ------------------------------------------------------------------------------
     1 TBLite/Diag 0.40E+00    0.0     0.00005917      -102.1008162666 -1.02E+02
     2 TBLite/Diag 0.40E+00    0.0     0.00000426      -102.1008162668 -2.23E-10
     3 TBLite/Diag 0.40E+00    0.0     0.00000094      -102.1008162668 -5.23E-12
     4 TBLite/Diag 0.40E+00    0.0     0.00000037      -102.1008162668 -4.12E-13
     5 TBLite/Diag 0.40E+00    0.0     0.00000017      -102.1008162668 -2.56E-13
     6 TBLite/Diag 0.40E+00    0.0     0.00000003      -102.1008162668  2.98E-13
     7 TBLite/Diag 0.40E+00    0.0     7.2114E-09      -102.1008162668 -2.56E-13
     8 TBLite/Diag 0.40E+00    0.0     1.5372E-09      -102.1008162668 -1.28E-13
     9 TBLite/Diag 0.40E+00    0.0     4.4294E-10      -102.1008162668  2.27E-13

  *** SCF run converged in     9 steps ***


  Core Hamiltonian energy:                                   -103.59404609664639
  Repulsive potential energy:                                   1.21365507216847
  Electrostatic energy:                                         0.39333633812397
  Self-consistent dispersion energy:                            0.00000000000000
  Non-self consistent dispersion energy:                       -0.11376158046651
  Correction for halogen bonding:                               0.00000000000000
  Electronic entropic energy:                                  -0.00000000000000
  Fermi energy:                                                -0.30459449797026

  Total energy:                                              -102.10081626682046
  Total energy (extrapolated to T->0):                       -102.10081626682046

 ENERGY| Total FORCE_EVAL ( QS ) energy [hartree]           -102.100816266820459

 OPT| **************************************************************************
 OPT| Step number                                                            201
 OPT| Optimization method                                                   BFGS
 OPT| Total energy [hartree]                                     -102.1008162668
 OPT| Internal pressure [bar]                                      11.6817821151
 OPT| Effective energy change [hartree]                            -0.0000001241
 OPT| Predicted energy change [hartree]                            -0.0000000692
 OPT| Scaling factor                                                0.0000000000
 OPT| Step size                                                     0.0000692944
 OPT| Trust radius                                                  0.4724315332
 OPT| Decrease in energy                                                     YES
 OPT| Used time [s]                                                        0.375
 OPT|
 OPT| Maximum step size                                             0.0000692944
 OPT| Convergence limit for maximum step size                       0.0030000000
 OPT| Maximum step size is converged                                         YES
 OPT|
 OPT| RMS step size                                                 0.0000292350
 OPT| Convergence limit for RMS step size                           0.0015000000
 OPT| RMS step size is converged                                             YES
 OPT|
 OPT| Maximum gradient                                              0.0000623080
 OPT| Convergence limit for maximum gradient                        0.0004500000
 OPT| Maximum gradient is converged                                          YES
 OPT|
 OPT| RMS gradient                                                  0.0000274359
 OPT| Convergence limit for RMS gradient                            0.0003000000
 OPT| RMS gradient is converged                                              YES
 OPT|
 OPT| Pressure deviation [bar]                                     11.6817821151
 OPT| Pressure tolerance [bar]                                    100.0000000000
 OPT| Pressure is converged                                                  YES
 OPT| **************************************************************************
 OPT| Estimated peak process memory after this step [MiB]                    175

 *******************************************************************************
 ***                    GEOMETRY OPTIMIZATION COMPLETED                      ***
 *******************************************************************************

 write_final_structure: Optimization converged, writing XYZ file gladly:
  cytosine_GFN1_gamma_cell_opt-FINAL-1_201.xyz

 write_final_structure: Optimization converged, writing CIF file gladly:
  cytosine_GFN1_gamma_cell_opt-FINAL-1_201.cif

 write_final_structure: Done!

                    Reevaluating energy at the minimum

 CELL| Volume [angstrom^3]:                                           434.943716
 CELL| Vector a [angstrom]:      10.637     0.000     0.000   |a| =    10.637251
 CELL| Vector b [angstrom]:       0.000    10.431     0.000   |b| =    10.431273
 CELL| Vector c [angstrom]:       0.000    -0.000     3.920   |c| =     3.919822
 CELL| Angle (b,c), alpha [degree]:                                    90.000000
 CELL| Angle (a,c), beta  [degree]:                                    90.000000
 CELL| Angle (a,b), gamma [degree]:                                    90.000000
 CELL| Numerically orthorhombic:                                              NO
 CELL| Periodicity                                                           XYZ

 Extrapolation method: ASPC

 Number of electrons:                                                        168
 Number of occupied orbitals:                                                 84
 Number of molecular orbitals:                                               168

 Number of orbital functions:                                                168
 Number of independent orbital functions:                                    168


 SCF WAVEFUNCTION OPTIMIZATION

  Step     Update method      Time    Convergence         Total energy    Change
  ------------------------------------------------------------------------------
     1 TBLite/Diag 0.40E+00    0.0     1.1512E-10      -102.1008162668 -1.02E+02

  *** SCF run converged in     1 steps ***


  Core Hamiltonian energy:                                   -103.59404609670052
  Repulsive potential energy:                                   1.21365507216847
  Electrostatic energy:                                         0.39333633817805
  Self-consistent dispersion energy:                            0.00000000000000
  Non-self consistent dispersion energy:                       -0.11376158046651
  Correction for halogen bonding:                               0.00000000000000
  Electronic entropic energy:                                  -0.00000000000000
  Fermi energy:                                                -0.30459449795312

  Total energy:                                              -102.10081626682052
  Total energy (extrapolated to T->0):                       -102.10081626682052

 ENERGY| Total FORCE_EVAL ( QS ) energy [hartree]           -102.100816266820516

 -------------------------------------------------------------------------------
 -                                                                             -
 -                                DBCSR STATISTICS                             -
 -                                                                             -
 -------------------------------------------------------------------------------
 COUNTER                                    TOTAL       BLAS       SMM       ACC
 flops     2 x     8 x     2                76800       0.0%    100.0%      0.0%     
 flops     2 x     8 x     4               245760       0.0%    100.0%      0.0%     
 flops     4 x     8 x     2               245760       0.0%    100.0%      0.0%     
 flops     4 x     8 x     4               786432       0.0%    100.0%      0.0%     
 flops     2 x    32 x     2              1536000       0.0%    100.0%      0.0%     
 flops     2 x    32 x     4              4915200       0.0%    100.0%      0.0%     
 flops     4 x    32 x     2              4915200       0.0%    100.0%      0.0%     
 flops     2 x     2 x   168              8749440       0.0%    100.0%      0.0%     
 flops     4 x    32 x     4             15728640       0.0%    100.0%      0.0%     
 flops     2 x     4 x   168             26664960       0.0%    100.0%      0.0%     
 flops     4 x     2 x   168             26664960       0.0%    100.0%      0.0%     
 flops     4 x     4 x   168             87994368       0.0%    100.0%      0.0%     
 flops inhomo. stacks                           0       0.0%      0.0%      0.0%
 flops total                       178.523520E+06       0.0%    100.0%      0.0%
 flops max/rank                    178.523520E+06       0.0%    100.0%      0.0%
 matmuls inhomo. stacks                         0       0.0%      0.0%      0.0%
 matmuls total                              91390       0.0%    100.0%      0.0%
 number of processed stacks                   187       0.0%    100.0%      0.0%
 average stack size                                     0.0     488.7       0.0
 marketing flops                   175.440384E+06
 -------------------------------------------------------------------------------
 # multiplications                             34
 max memory usage/rank              13.679686E+09
 # max total images/rank                        1
 # max 3D layers                                1
 # MPI messages exchanged                       0
 -------------------------------------------------------------------------------
 -                                                                             -
 -                      DBCSR MESSAGE PASSING PERFORMANCE                      -
 -                                                                             -
 -------------------------------------------------------------------------------
 ROUTINE             CALLS      AVE VOLUME [Bytes]
 MP_Bcast               13                     12.
 MP_Allreduce          207                     12.
 MP_Alltoall          1207                 152384.
 MP_ISend              136                   8351.
 MP_IRecv              136                   8351.
 -------------------------------------------------------------------------------

 -------------------------------------------------------------------------------
 -                                                                             -
 -                          OFFLOAD MEMPOOL STATISTICS                         -
 -                                                                             -
 -------------------------------------------------------------------------------
 Memory consumption                Number of allocations  Used [MiB]  Size [MiB]
 Device                                                1           0           0
 Host                                                  1           0           0
 -------------------------------------------------------------------------------

 MEMORY| Estimated peak process memory [MiB]                                 176

 -------------------------------------------------------------------------------
 -                                                                             -
 -                         MESSAGE PASSING PERFORMANCE                         -
 -                                                                             -
 -------------------------------------------------------------------------------

 ROUTINE             CALLS      AVE VOLUME [Bytes]
 MP_Group                2
 MP_Bcast               60                    673.
 MP_Allreduce          528                    302.
 MP_Sync                32
 MP_comm_split          30
 -------------------------------------------------------------------------------


 -------------------------------------------------------------------------------
 -                                                                             -
 -                           R E F E R E N C E S                               -
 -                                                                             -
 -------------------------------------------------------------------------------
 
 CP2K version 2026.1 (Development Version), the CP2K developers group (2026).
 CP2K is freely available from https://www.cp2k.org/ .
 
 M. Iannuzzi, J. Wilhelm, F. Stein, A. Bussy, H. Elgabarty, D. Golze, A. Hehn, 
 M. Graml, S. Marek, B. Sertcan Gökmen, C. Schran, H. Forbert, R. Z. 
 Khaliullin, A. Kozhevnikov, M. Taillefumier, R. Meli, V. V. Rybkin, M. Brehm, 
 R. Schade, O. Schütt, J. V. Pototschnig, H. Mirhosseini, A. Knüpfer, D. Marx, 
 M. Krack, J. Hutter, T. D. Kühne.
 J. Phys. Chem. B 130, 1237-1310 (2026).
 The CP2K Program Package Made Simple.
 https://doi.org/10.1021/acs.jpcb.5c05851

 A. Katbashev, M. Stahn, T. Rose, V. Alizadeh, M. Friede, C. Plett, P. 
 Steinbach, S. Ehlert.
 J. Phys. Chem. A 129, 2667-2682 (2025).
 Overview on Building Blocks and Applications of Efficient and Robust Extended 
 Tight Binding.
 https://doi.org/10.1021/acs.jpca.4c08263

 T. D. Kühne, M. Iannuzzi, M. Del Ben, V. V. Rybkin, P. Seewald, F. Stein, T. 
 Laino, R. Z. Khaliullin, O. Schütt, F. Schiffmann, D. Golze, J. Wilhelm, S. 
 Chulkov, M. H. Bani-Hashemian, V. Weber, U. Borstnik, M. Taillefumier, A. S. 
 Jakobovits, A. Lazzaro, H. Pabst, T. Müller, R. Schade, M. Guidon, S. 
 Andermatt, N. Holmberg, G. K. Schenter, A. Hehn, A. Bussy, F. Belleflamme, G. 
 Tabacchi, A. Glöß, M. Lass, I. Bethune, C. J. Mundy, C. Plessl, M. Watkins, 
 J. VandeVondele, M. Krack, J. Hutter.
 J. Chem. Phys. 152, 194103 (2020).
 CP2K: An electronic structure and molecular dynamics software package - 
 Quickstep: Efficient and accurate electronic structure calculations.
 https://doi.org/10.1063/5.0007045

 P. Pracht, E. Caldeweyher, S. Ehlert, S. Grimme.
 ChemRxiv, (2019).
 A Robust Non-Self-Consistent Tight-Binding Quantum Chemistry Method for large 
 Molecules.
 https://doi.org/10.26434/chemrxiv.8326202.v1

 S. Grimme, C. Bannwarth, P. Shushkov.
 J. Chem. Theory Comput. 13, 1989 (2017).
 A Robust and Accurate Tight-Binding Quantum Chemical Method for Structures, 
 Vibrational Frequencies, and Noncovalent Interactions of Large Molecular 
 Systems Parametrized for All spd-Block Elements (Z = 1-86).
 https://doi.org/10.1021/acs.jctc.7b00118

 O. Schuett, P. Messmer, J. Hutter, J. VandeVondele.
 Electronic Structure Calculations on Graphics Processing Units, 173-190 (2016).
 GPU-Accelerated Sparse Matrix-Matrix Multiplication for Linear Scaling Density 
 Functional Theory.
 https://doi.org/10.1002/9781118670712.ch8

 A. Heinecke, G. Henry, M. Hutchinson, H. Pabst.
 Proceedings of Intl. Supercomputing Conference, 981-991 (2016).
 LIBXSMM: Accelerating Small Matrix Multiplications by Runtime Code Generation.
 https://doi.org/10.1109/SC.2016.83

 U. Borstnik, J. VandeVondele, V. Weber, J. Hutter.
 Parallel Comput. 40, 47-58 (2014).
 Sparse matrix multiplication: The distributed block-compressed sparse row 
 library.
 https://doi.org/10.1016/j.parco.2014.03.012

 T. D. Kühne, M. Krack, F. R. Mohamed, M. Parrinello.
 Phys. Rev. Lett. 98, 066401 (2007).
 Efficient and accurate Car-Parrinello-like approach to Born-Oppenheimer 
 molecular dynamics.
 https://doi.org/10.1103/PhysRevLett.98.066401

 M. Frigo, S. G. Johnson.
 Proc. IEEE 93, 216-231 (2005).
 The design and implementation of FFTW3.
 https://doi.org/10.1109/JPROC.2004.840301

 J. Kolafa.
 J. Comput. Chem. 25, 335-342 (2004).
 Time-reversible always stable predictor-corrector method for molecular dynamics 
 of polarizable molecules.
 https://doi.org/10.1002/jcc.10385

 N. D. Mermin.
 Phys. Rev. 137, A1441-A1443 (1965).
 Thermal Properties of the Inhomogeneous Electron Gas.
 https://doi.org/10.1103/PhysRev.137.A1441


 -------------------------------------------------------------------------------
 -                                                                             -
 -                                T I M I N G                                  -
 -                                                                             -
 -------------------------------------------------------------------------------
 SUBROUTINE                       CALLS  ASD         SELF TIME        TOTAL TIME
                                MAXIMUM       AVERAGE  MAXIMUM  AVERAGE  MAXIMUM
 CP2K                                 1  1.0    0.002    0.002    0.870    0.870
 cp_cell_opt                          1  2.0    0.000    0.000    0.864    0.864
 geoopt_bfgs                          1  3.0    0.000    0.000    0.864    0.864
 cp_eval_at                           3  4.0    0.000    0.000    0.861    0.861
 qs_forces                            2  5.0    0.000    0.000    0.781    0.781
 build_tblite_matrices                5  7.0    0.376    0.376    0.380    0.380
 qs_energies                          3  5.7    0.000    0.000    0.378    0.378
 rebuild_ks_matrix                   29  9.8    0.000    0.000    0.304    0.304
 build_tblite_ks_matrix              29 10.8    0.303    0.303    0.304    0.304
 qs_ks_update_qs_env_forces           2  6.0    0.000    0.000    0.294    0.294
 qs_energies_init_hamiltonians        3  6.7    0.000    0.000    0.199    0.199
 scf_env_do_scf                       3  6.7    0.000    0.000    0.159    0.159
 scf_env_do_scf_inner_loop           27  8.0    0.003    0.003    0.159    0.159
 qs_scf_new_mos                      27  9.0    0.000    0.000    0.138    0.138
 eigensolver                         27 10.0    0.000    0.000    0.061    0.061
 cp_fm_syevd                         30 10.8    0.000    0.000    0.052    0.052
 cp_fm_syevd_base                    30 11.8    0.050    0.050    0.050    0.050
 cp_dbcsr_plus_fm_fm_t               31 10.8    0.000    0.000    0.040    0.040
 calculate_dm_sparse                 29  9.9    0.000    0.000    0.038    0.038
 dbcsr_complete_redistribute        122 12.1    0.027    0.027    0.032    0.032
 copy_dbcsr_to_fm                    57 10.4    0.000    0.000    0.031    0.031
 dbcsr_multiply_generic              34 11.9    0.001    0.001    0.030    0.030
 qs_diis_b_step                      24 10.0    0.000    0.000    0.025    0.025
 -------------------------------------------------------------------------------

 The number of warnings for this run is : 0
 
 -------------------------------------------------------------------------------
  **** **** ******  **  PROGRAM ENDED AT                 2026-05-23 23:04:10.591
 ***** ** ***  *** **   PROGRAM RAN ON                                spark-c86c
 **    ****   ******    PROGRAM RAN BY                                  kuehne88
 ***** **    ** ** **   PROGRAM PROCESS ID                               2275655
  **** **  *******  **  PROGRAM STOPPED IN /home/kuehne88/periodic-gfn2-benchmar
                                           ks/X23b/runs/cellopt_gamma/GFN1/cytos
                                           ine_GFN1_gamma_cellopt
