 DBCSR| CPU Multiplication driver                                           XSMM (U)
 DBCSR| Multrec recursion limit                                              512 (U)
 DBCSR| Multiplication stack size                                           1000 (D)
 DBCSR| Maximum elements for images                                    UNLIMITED (U)
 DBCSR| Multiplicative factor virtual images                                   1 (U)
 DBCSR| Use multiplication densification                                       T (D)
 DBCSR| Multiplication size stacks                                             3 (U)
 DBCSR| Use memory pool for CPU allocation                                     F (U)
 DBCSR| Number of 3D layers                                               SINGLE (U)
 DBCSR| Use MPI memory allocation                                              F (U)
 DBCSR| Use RMA algorithm                                                      F (U)
 DBCSR| Use Communication thread                                               T (U)
 DBCSR| Communication thread load                                             87 (D)
 DBCSR| MPI: My process id                                                     0
 DBCSR| MPI: Number of processes                                               1
 DBCSR| OMP: Current number of threads                                         1
 DBCSR| OMP: Max number of threads                                             1
 DBCSR| Split modifier for TAS multiplication algorithm                  1.0E+00 (U)


  **** **** ******  **  PROGRAM STARTED AT               2026-05-23 22:46:51.049
 ***** ** ***  *** **   PROGRAM STARTED ON                            spark-c86c
 **    ****   ******    PROGRAM STARTED BY                              kuehne88
 ***** **    ** ** **   PROGRAM PROCESS ID                               2264778
  **** **  *******  **  PROGRAM STARTED IN /home/kuehne88/periodic-gfn2-benchmar
                                           ks/X23b/runs/cellopt_gamma/GFN1/cytos
                                           ine_GFN1_gamma_cellopt

 CP2K| version string:                 CP2K version 2026.1 (Development Version)
 CP2K| source code revision number:                                   0622d442e4
 CP2K| cp2kflags: omp fftw3 libxc parallel scalapack mpi_f08 xsmm spglib libdftd
 CP2K|            4 dftd4_v3 mctc-lib tblite
 CP2K| is freely available from                            https://www.cp2k.org/
 CP2K| Program compiled at                                   2026-05-23 22:05:08
 CP2K| Program compiled on                                            spark-c86c
 CP2K| Program compiled for                                              aarch64
 CP2K| Data directory path    /home/kuehne88/cp2k-master-tblite-20260523/install
 CP2K| Input file name                           cytosine_GFN1_gamma_cellopt.inp

 GLOBAL| Force Environment number                                              1
 GLOBAL| Basis set file name                                           BASIS_SET
 GLOBAL| Potential file name                                           POTENTIAL
 GLOBAL| MM Potential file name                                     MM_POTENTIAL
 GLOBAL| Coordinate file name                                      __STD_INPUT__
 GLOBAL| Method name                                                        CP2K
 GLOBAL| Project name                               cytosine_GFN1_gamma_cell_opt
 GLOBAL| Run type                                                       CELL_OPT
 GLOBAL| FFT library                                                       FFTW3
 GLOBAL| Diagonalization library                                       ScaLAPACK
 GLOBAL| Cholesky decomposition library                                ScaLAPACK
 GLOBAL| DGEMM library                                                      BLAS
 GLOBAL| Direct generalized diagonalization requested                          F
 GLOBAL| Orthonormality check for eigenvectors                          DISABLED
 GLOBAL| Matrix multiplication library                                 ScaLAPACK
 GLOBAL| All-to-all communication in single precision                          F
 GLOBAL| FFTs using library dependent lengths                                  F
 GLOBAL| Grid backend                                                       AUTO
 GLOBAL| Global print level                                                  LOW
 GLOBAL| MPI I/O enabled                                                       T
 GLOBAL| Total number of message passing processes                             1
 GLOBAL| Number of distributed systems (nodes)                                 1
 GLOBAL| Number of threads for this process                                    1
 GLOBAL| This output is from process                                           0
 GLOBAL| OpenMP stack size per thread (OMP_STACKSIZE)                    default
 GLOBAL| CPU model name                                                  UNKNOWN
 GLOBAL| CPUID                                                              2200
 GLOBAL| Compiled for CPUID                                                 2000

 *** HINT in environment.F:970 :: The compiler target flags (arm_arch64)   ***
 *** used to build this binary cannot exploit all extensions of this CPU   ***
 *** model (arm_sve256). Consider compiler target flags as part of FCFLAGS ***
 *** and CFLAGS (ARCH file).                                               ***


 MEMORY| system memory details [Kb]
 MEMORY|                        rank 0           min           max       average
 MEMORY| MemTotal            125508532     125508532     125508532     125508532
 MEMORY| MemFree             101804256     101804256     101804256     101804256
 MEMORY| Buffers                867412        867412        867412        867412
 MEMORY| Cached               13934192      13934192      13934192      13934192
 MEMORY| Slab                  1588876       1588876       1588876       1588876
 MEMORY| SReclaimable           910740        910740        910740        910740
 MEMORY| MemLikelyFree       117516600     117516600     117516600     117516600


 GENERATE|  Preliminary Number of Bonds generated:                             0
 GENERATE|  Achieved consistency in connectivity generation.


                  #####   #####        #     #   #     #       #          
                 #     # #     #      #    ##### #     #   # #####  ####  
                 #     # #           #       #   ###   #       #   #    # 
                 #     #  #####     #        #   #  #  #   #   #   ###### 
                 #   # #       #   #         #   #   # #   #   #   #      
                 #    #  #     #  #          #   #  #  # # #   #    #   # 
                  #### #  #####  #           #   ###   ##  #   #     ###  

                                   GFN1-xTB  
                                 Version 0.0                       
                            Johann V. Pototschnig                  



 TOTAL NUMBERS AND MAXIMUM NUMBERS

  Total number of            - Atomic kinds:                                   4
                             - Atoms:                                         52
                             - Shell sets:                                   104
                             - Shells:                                       104
                             - Primitive Cartesian functions:                604
                             - Cartesian basis functions:                    168
                             - Spherical basis functions:                    168

  Maximum angular momentum of the orbital basis functions:                     1


 SCF PARAMETERS         Density guess:                                     MOPAC
                        --------------------------------------------------------
                        max_scf:                                             300
                        max_scf_history:                                       0
                        max_diis:                                              4
                        --------------------------------------------------------
                        eps_scf:                                        1.00E-09
                        eps_scf_history:                                0.00E+00
                        eps_diis:                                       1.00E-01
                        eps_eigval:                                     1.00E-05
                        --------------------------------------------------------
                        level_shift [a.u.]:                             0.000000
                        added MOs                                        84    0
                        --------------------------------------------------------
                        Mixing method:                           DIRECT_P_MIXING
                        --------------------------------------------------------
                        Smear method:                                FERMI_DIRAC
                        Electronic temperature [K]:                        300.0
                        Electronic temperature [a.u.]:                  9.50E-04
                        Accuracy threshold:                             1.00E-06
                        --------------------------------------------------------
                        No outer SCF

 CELL_OPT| Pressure tolerance [bar]:                                       100.0
 CELL_OPT| Keep volume of cell:                                               NO
 CELL_OPT| Keep angles between the cell vectors:                              NO
 CELL_OPT| Keep cell symmetry:                                                NO
 CELL_OPT| Constraint:                                                      NONE

 BFGS| Use rational function optimization for step estimation:                NO
 BFGS| Use model Hessian for initial guess:                                   NO
 BFGS| Restart Hessian:                                                       NO
 BFGS| Trust radius:                                                       0.472

 *******************************************************************************
 ***                     STARTING   CELL   OPTIMIZATION                      ***
 ***                                   BFGS                                  ***
 *******************************************************************************

 CELL| Volume [angstrom^3]:                                           472.424253
 CELL| Vector a [angstrom]:      13.044     0.000     0.000   |a| =    13.044000
 CELL| Vector b [angstrom]:       0.000     9.496     0.000   |b| =     9.496000
 CELL| Vector c [angstrom]:       0.000     0.000     3.814   |c| =     3.814000
 CELL| Angle (b,c), alpha [degree]:                                    90.000000
 CELL| Angle (a,c), beta  [degree]:                                    90.000000
 CELL| Angle (a,b), gamma [degree]:                                    90.000000
 CELL| Numerically orthorhombic:                                             YES
 CELL| Periodicity                                                           XYZ

 Extrapolation method: initial_guess

 Number of electrons:                                                        168
 Number of occupied orbitals:                                                 84
 Number of molecular orbitals:                                               168

 Number of orbital functions:                                                168
 Number of independent orbital functions:                                    168


 SCF WAVEFUNCTION OPTIMIZATION

  Step     Update method      Time    Convergence         Total energy    Change
  ------------------------------------------------------------------------------
     1 TBLite/Diag 0.40E+00    0.0     1.60103768      -100.3273101353 -1.00E+02
     2 TBLite/Diag 0.40E+00    0.0     0.27688601      -101.7058580229 -1.38E+00
     3 TBLite/Diag 0.40E+00    0.0     0.08980372      -101.7333657028 -2.75E-02
     4 TBLite/Diag 0.40E+00    0.0     0.03109067      -101.7368957200 -3.53E-03
     5 TBLite/Diag 0.40E+00    0.0     0.02415082      -101.7388368198 -1.94E-03
     6 TBLite/Diag 0.40E+00    0.0     0.00699259      -101.7390993612 -2.63E-04
     7 TBLite/Diag 0.40E+00    0.0     0.00167935      -101.7391443570 -4.50E-05
     8 TBLite/Diag 0.40E+00    0.0     0.00032884      -101.7391455117 -1.15E-06
     9 TBLite/Diag 0.40E+00    0.0     0.00008156      -101.7391455951 -8.34E-08
    10 TBLite/Diag 0.40E+00    0.0     0.00001589      -101.7391455977 -2.62E-09
    11 TBLite/Diag 0.40E+00    0.0     0.00000229      -101.7391455978 -5.33E-11
    12 TBLite/Diag 0.40E+00    0.0     0.00000085      -101.7391455978 -7.23E-12
    13 TBLite/Diag 0.40E+00    0.0     0.00000030      -101.7391455978 -4.97E-13
    14 TBLite/Diag 0.40E+00    0.0     0.00000005      -101.7391455978 -1.56E-13
    15 TBLite/Diag 0.40E+00    0.0     0.00000005      -101.7391455978  2.84E-14
    16 TBLite/Diag 0.40E+00    0.0     0.00000002      -101.7391455978  5.68E-14
    17 TBLite/Diag 0.40E+00    0.0     7.4632E-09      -101.7391455978  7.11E-14
    18 TBLite/Diag 0.40E+00    0.0     8.5892E-11      -101.7391455978 -2.13E-13

  *** SCF run converged in    18 steps ***


  Core Hamiltonian energy:                                   -103.73404523726680
  Repulsive potential energy:                                   1.68204161255211
  Electrostatic energy:                                         0.41935039387772
  Self-consistent dispersion energy:                            0.00000000000000
  Non-self consistent dispersion energy:                       -0.10649236697123
  Correction for halogen bonding:                               0.00000000000000
  Electronic entropic energy:                                  -0.00000000000000
  Fermi energy:                                                -0.32635925580845

  Total energy:                                              -101.73914559780819
  Total energy (extrapolated to T->0):                       -101.73914559780819

 ENERGY| Total FORCE_EVAL ( QS ) energy [hartree]           -101.739145597808189

 OPT| **************************************************************************
 OPT| Step number                                                              0
 OPT| Optimization method                                                   BFGS
 OPT| Total energy [hartree]                                     -101.7391455978
 OPT| Internal pressure [bar]                                  129953.5378253100
 OPT| Used time [s]                                                        0.914
 OPT| **************************************************************************
 OPT| Estimated peak process memory [MiB]                                    172

 --------------------------
 OPTIMIZATION STEP:      1
 --------------------------

 CELL| Volume [angstrom^3]:                                           484.414831
 CELL| Vector a [angstrom]:      13.080     0.000     0.000   |a| =    13.080104
 CELL| Vector b [angstrom]:       0.000     9.544     0.000   |b| =     9.544379
 CELL| Vector c [angstrom]:       0.000     0.000     3.880   |c| =     3.880239
 CELL| Angle (b,c), alpha [degree]:                                    90.000000
 CELL| Angle (a,c), beta  [degree]:                                    90.000000
 CELL| Angle (a,b), gamma [degree]:                                    90.000000
 CELL| Numerically orthorhombic:                                             YES
 CELL| Periodicity                                                           XYZ

 Extrapolation method: ASPC

 Number of electrons:                                                        168
 Number of occupied orbitals:                                                 84
 Number of molecular orbitals:                                               168

 Number of orbital functions:                                                168
 Number of independent orbital functions:                                    168


 SCF WAVEFUNCTION OPTIMIZATION

  Step     Update method      Time    Convergence         Total energy    Change
  ------------------------------------------------------------------------------
     1 TBLite/Diag 0.40E+00    0.0     0.15622675      -101.9185625907 -1.02E+02
     2 TBLite/Diag 0.40E+00    0.0     0.03972547      -101.9257679386 -7.21E-03
     3 TBLite/Diag 0.40E+00    0.0     0.00732705      -101.9261992454 -4.31E-04
     4 TBLite/Diag 0.40E+00    0.0     0.00245382      -101.9262895535 -9.03E-05
     5 TBLite/Diag 0.40E+00    0.0     0.00055405      -101.9262917109 -2.16E-06
     6 TBLite/Diag 0.40E+00    0.0     0.00024002      -101.9262921619 -4.51E-07
     7 TBLite/Diag 0.40E+00    0.0     0.00008485      -101.9262922371 -7.52E-08
     8 TBLite/Diag 0.40E+00    0.0     0.00001056      -101.9262922382 -1.10E-09
     9 TBLite/Diag 0.40E+00    0.0     0.00000362      -101.9262922383 -7.76E-11
    10 TBLite/Diag 0.40E+00    0.0     0.00000072      -101.9262922383 -4.63E-12
    11 TBLite/Diag 0.40E+00    0.0     0.00000006      -101.9262922383 -3.13E-13
    12 TBLite/Diag 0.40E+00    0.0     0.00000003      -101.9262922383  1.56E-13
    13 TBLite/Diag 0.40E+00    0.0     1.3172E-09      -101.9262922383  1.85E-13
    14 TBLite/Diag 0.40E+00    0.0     4.9381E-10      -101.9262922383 -1.71E-13

  *** SCF run converged in    14 steps ***


  Core Hamiltonian energy:                                   -103.55876094506016
  Repulsive potential energy:                                   1.31512599517331
  Electrostatic energy:                                         0.42094107646038
  Self-consistent dispersion energy:                            0.00000000000000
  Non-self consistent dispersion energy:                       -0.10359836487148
  Correction for halogen bonding:                               0.00000000000000
  Electronic entropic energy:                                  -0.00000000000000
  Fermi energy:                                                -0.30869807864496

  Total energy:                                              -101.92629223829796
  Total energy (extrapolated to T->0):                       -101.92629223829796

 ENERGY| Total FORCE_EVAL ( QS ) energy [hartree]           -101.926292238297961

 OPT| **************************************************************************
 OPT| Step number                                                              1
 OPT| Optimization method                                                   BFGS
 OPT| Total energy [hartree]                                     -101.9262922383
 OPT| Internal pressure [bar]                                   48829.7994424537
 OPT| Effective energy change [hartree]                            -0.1871466405
 OPT| Predicted energy change [hartree]                            -0.2914802233
 OPT| Scaling factor                                                0.0000000000
 OPT| Step size                                                     0.2137612664
 OPT| Trust radius                                                  0.4724315332
 OPT| Decrease in energy                                                     YES
 OPT| Used time [s]                                                        0.871
 OPT|
 OPT| Maximum step size                                             0.2137612664
 OPT| Convergence limit for maximum step size                       0.0030000000
 OPT| Maximum step size is converged                                          NO
 OPT|
 OPT| RMS step size                                                 0.0599876760
 OPT| Convergence limit for RMS step size                           0.0015000000
 OPT| RMS step size is converged                                              NO
 OPT|
 OPT| Maximum gradient                                              0.0914606729
 OPT| Convergence limit for maximum gradient                        0.0004500000
 OPT| Maximum gradient is converged                                           NO
 OPT|
 OPT| RMS gradient                                                  0.0272011946
 OPT| Convergence limit for RMS gradient                            0.0003000000
 OPT| RMS gradient is converged                                               NO
 OPT|
 OPT| Pressure deviation [bar]                                  48829.7994424537
 OPT| Pressure tolerance [bar]                                    100.0000000000
 OPT| Pressure is converged                                                   NO
 OPT| **************************************************************************
 OPT| Estimated peak process memory after this step [MiB]                    174

 --------------------------
 OPTIMIZATION STEP:      2
 --------------------------

 CELL| Volume [angstrom^3]:                                           491.358436
 CELL| Vector a [angstrom]:      13.087     0.000     0.000   |a| =    13.086803
 CELL| Vector b [angstrom]:       0.000     9.573     0.000   |b| =     9.572851
 CELL| Vector c [angstrom]:       0.000     0.000     3.922   |c| =     3.922144
 CELL| Angle (b,c), alpha [degree]:                                    90.000000
 CELL| Angle (a,c), beta  [degree]:                                    90.000000
 CELL| Angle (a,b), gamma [degree]:                                    90.000000
 CELL| Numerically orthorhombic:                                             YES
 CELL| Periodicity                                                           XYZ

 Extrapolation method: ASPC

 Number of electrons:                                                        168
 Number of occupied orbitals:                                                 84
 Number of molecular orbitals:                                               168

 Number of orbital functions:                                                168
 Number of independent orbital functions:                                    168


 SCF WAVEFUNCTION OPTIMIZATION

  Step     Update method      Time    Convergence         Total energy    Change
  ------------------------------------------------------------------------------
     1 TBLite/Diag 0.40E+00    0.0     0.09739396      -101.9649946312 -1.02E+02
     2 TBLite/Diag 0.40E+00    0.0     0.04268498      -101.9709649708 -5.97E-03
     3 TBLite/Diag 0.40E+00    0.0     0.00689834      -101.9714375006 -4.73E-04
     4 TBLite/Diag 0.40E+00    0.0     0.00101670      -101.9714460331 -8.53E-06
     5 TBLite/Diag 0.40E+00    0.0     0.00037855      -101.9714475767 -1.54E-06
     6 TBLite/Diag 0.40E+00    0.0     0.00012825      -101.9714477579 -1.81E-07
     7 TBLite/Diag 0.40E+00    0.0     0.00002362      -101.9714477657 -7.86E-09
     8 TBLite/Diag 0.40E+00    0.0     0.00000767      -101.9714477662 -5.23E-10
     9 TBLite/Diag 0.40E+00    0.0     0.00000137      -101.9714477663 -1.64E-11
    10 TBLite/Diag 0.40E+00    0.0     0.00000042      -101.9714477663 -8.81E-13
    11 TBLite/Diag 0.40E+00    0.0     0.00000003      -101.9714477663 -9.95E-14
    12 TBLite/Diag 0.40E+00    0.0     7.3882E-09      -101.9714477663  0.00E+00
    13 TBLite/Diag 0.40E+00    0.0     2.0931E-09      -101.9714477663 -1.28E-13
    14 TBLite/Diag 0.40E+00    0.0     2.3549E-10      -101.9714477663  1.42E-14

  *** SCF run converged in    14 steps ***


  Core Hamiltonian energy:                                   -103.50774201453419
  Repulsive potential energy:                                   1.22154899092892
  Electrostatic energy:                                         0.41679973722491
  Self-consistent dispersion energy:                            0.00000000000000
  Non-self consistent dispersion energy:                       -0.10205447987879
  Correction for halogen bonding:                               0.00000000000000
  Electronic entropic energy:                                  -0.00000000000000
  Fermi energy:                                                -0.32026500148174

  Total energy:                                              -101.97144776625915
  Total energy (extrapolated to T->0):                       -101.97144776625915

 ENERGY| Total FORCE_EVAL ( QS ) energy [hartree]           -101.971447766259146

 OPT| **************************************************************************
 OPT| Step number                                                              2
 OPT| Optimization method                                                   BFGS
 OPT| Total energy [hartree]                                     -101.9714477663
 OPT| Internal pressure [bar]                                   12512.4828074757
 OPT| Effective energy change [hartree]                            -0.0451555280
 OPT| Predicted energy change [hartree]                            -0.0435255643
 OPT| Scaling factor                                                0.0000000000
 OPT| Step size                                                     0.0791888338
 OPT| Trust radius                                                  0.4724315332
 OPT| Decrease in energy                                                     YES
 OPT| Used time [s]                                                        0.869
 OPT|
 OPT| Maximum step size                                             0.0791888338
 OPT| Convergence limit for maximum step size                       0.0030000000
 OPT| Maximum step size is converged                                          NO
 OPT|
 OPT| RMS step size                                                 0.0207608129
 OPT| Convergence limit for RMS step size                           0.0015000000
 OPT| RMS step size is converged                                              NO
 OPT|
 OPT| Maximum gradient                                              0.0604048722
 OPT| Convergence limit for maximum gradient                        0.0004500000
 OPT| Maximum gradient is converged                                           NO
 OPT|
 OPT| RMS gradient                                                  0.0083322599
 OPT| Convergence limit for RMS gradient                            0.0003000000
 OPT| RMS gradient is converged                                               NO
 OPT|
 OPT| Pressure deviation [bar]                                  12512.4828074757
 OPT| Pressure tolerance [bar]                                    100.0000000000
 OPT| Pressure is converged                                                   NO
 OPT| **************************************************************************
 OPT| Estimated peak process memory after this step [MiB]                    176

 --------------------------
 OPTIMIZATION STEP:      3
 --------------------------

 CELL| Volume [angstrom^3]:                                           496.781204
 CELL| Vector a [angstrom]:      13.083     0.000     0.000   |a| =    13.083220
 CELL| Vector b [angstrom]:      -0.000     9.582     0.000   |b| =     9.582280
 CELL| Vector c [angstrom]:      -0.000     0.000     3.963   |c| =     3.962613
 CELL| Angle (b,c), alpha [degree]:                                    90.000000
 CELL| Angle (a,c), beta  [degree]:                                    90.000000
 CELL| Angle (a,b), gamma [degree]:                                    90.000000
 CELL| Numerically orthorhombic:                                              NO
 CELL| Periodicity                                                           XYZ

 Extrapolation method: ASPC

 Number of electrons:                                                        168
 Number of occupied orbitals:                                                 84
 Number of molecular orbitals:                                               168

 Number of orbital functions:                                                168
 Number of independent orbital functions:                                    168


 SCF WAVEFUNCTION OPTIMIZATION

  Step     Update method      Time    Convergence         Total energy    Change
  ------------------------------------------------------------------------------
     1 TBLite/Diag 0.40E+00    0.0     0.01959455      -101.9799976770 -1.02E+02
     2 TBLite/Diag 0.40E+00    0.0     0.00637909      -101.9802745488 -2.77E-04
     3 TBLite/Diag 0.40E+00    0.0     0.00130838      -101.9802917702 -1.72E-05
     4 TBLite/Diag 0.40E+00    0.0     0.00018313      -101.9802919629 -1.93E-07
     5 TBLite/Diag 0.40E+00    0.0     0.00003173      -101.9802919723 -9.40E-09
     6 TBLite/Diag 0.40E+00    0.0     0.00001642      -101.9802919749 -2.58E-09
     7 TBLite/Diag 0.40E+00    0.0     0.00000729      -101.9802919756 -7.90E-10
     8 TBLite/Diag 0.40E+00    0.0     0.00000096      -101.9802919757 -1.00E-11
     9 TBLite/Diag 0.40E+00    0.0     0.00000013      -101.9802919757  1.14E-13
    10 TBLite/Diag 0.40E+00    0.0     0.00000003      -101.9802919757  2.42E-13
    11 TBLite/Diag 0.40E+00    0.0     3.9873E-09      -101.9802919757 -1.56E-13
    12 TBLite/Diag 0.40E+00    0.0     1.5177E-09      -101.9802919757 -5.68E-14
    13 TBLite/Diag 0.40E+00    0.0     2.2929E-10      -101.9802919757  1.56E-13

  *** SCF run converged in    13 steps ***


  Core Hamiltonian energy:                                   -103.49609958636665
  Repulsive potential energy:                                   1.20254898275392
  Electrostatic energy:                                         0.41428182446343
  Self-consistent dispersion energy:                            0.00000000000000
  Non-self consistent dispersion energy:                       -0.10102319650413
  Correction for halogen bonding:                               0.00000000000000
  Electronic entropic energy:                                  -0.00000000000000
  Fermi energy:                                                -0.32213982753971

  Total energy:                                              -101.98029197565343
  Total energy (extrapolated to T->0):                       -101.98029197565343

 ENERGY| Total FORCE_EVAL ( QS ) energy [hartree]           -101.980291975653429

 OPT| **************************************************************************
 OPT| Step number                                                              3
 OPT| Optimization method                                                   BFGS
 OPT| Total energy [hartree]                                     -101.9802919757
 OPT| Internal pressure [bar]                                    1114.7146761543
 OPT| Effective energy change [hartree]                            -0.0088442094
 OPT| Predicted energy change [hartree]                            -0.0064776983
 OPT| Scaling factor                                                0.0000000000
 OPT| Step size                                                     0.0764745154
 OPT| Trust radius                                                  0.4724315332
 OPT| Decrease in energy                                                     YES
 OPT| Used time [s]                                                        0.858
 OPT|
 OPT| Maximum step size                                             0.0764745154
 OPT| Convergence limit for maximum step size                       0.0030000000
 OPT| Maximum step size is converged                                          NO
 OPT|
 OPT| RMS step size                                                 0.0098509876
 OPT| Convergence limit for RMS step size                           0.0015000000
 OPT| RMS step size is converged                                              NO
 OPT|
 OPT| Maximum gradient                                              0.0468520469
 OPT| Convergence limit for maximum gradient                        0.0004500000
 OPT| Maximum gradient is converged                                           NO
 OPT|
 OPT| RMS gradient                                                  0.0046853079
 OPT| Convergence limit for RMS gradient                            0.0003000000
 OPT| RMS gradient is converged                                               NO
 OPT|
 OPT| Pressure deviation [bar]                                   1114.7146761543
 OPT| Pressure tolerance [bar]                                    100.0000000000
 OPT| Pressure is converged                                                   NO
 OPT| **************************************************************************
 OPT| Estimated peak process memory after this step [MiB]                    176

 --------------------------
 OPTIMIZATION STEP:      4
 --------------------------

 CELL| Volume [angstrom^3]:                                           503.937042
 CELL| Vector a [angstrom]:      13.073     0.000     0.000   |a| =    13.072717
 CELL| Vector b [angstrom]:       0.000     9.588     0.000   |b| =     9.588087
 CELL| Vector c [angstrom]:      -0.000     0.000     4.020   |c| =     4.020485
 CELL| Angle (b,c), alpha [degree]:                                    90.000000
 CELL| Angle (a,c), beta  [degree]:                                    90.000000
 CELL| Angle (a,b), gamma [degree]:                                    90.000000
 CELL| Numerically orthorhombic:                                              NO
 CELL| Periodicity                                                           XYZ

 Extrapolation method: ASPC

 Number of electrons:                                                        168
 Number of occupied orbitals:                                                 84
 Number of molecular orbitals:                                               168

 Number of orbital functions:                                                168
 Number of independent orbital functions:                                    168


 SCF WAVEFUNCTION OPTIMIZATION

  Step     Update method      Time    Convergence         Total energy    Change
  ------------------------------------------------------------------------------
     1 TBLite/Diag 0.40E+00    0.0     0.01486508      -101.9853704138 -1.02E+02
     2 TBLite/Diag 0.40E+00    0.0     0.00423766      -101.9854222784 -5.19E-05
     3 TBLite/Diag 0.40E+00    0.0     0.00066609      -101.9854262634 -3.99E-06
     4 TBLite/Diag 0.40E+00    0.0     0.00017248      -101.9854263171 -5.37E-08
     5 TBLite/Diag 0.40E+00    0.0     0.00004932      -101.9854263392 -2.21E-08
     6 TBLite/Diag 0.40E+00    0.0     0.00001575      -101.9854263419 -2.73E-09
     7 TBLite/Diag 0.40E+00    0.0     0.00000533      -101.9854263422 -3.01E-10
     8 TBLite/Diag 0.40E+00    0.0     0.00000031      -101.9854263422 -8.81E-13
     9 TBLite/Diag 0.40E+00    0.0     0.00000017      -101.9854263422 -1.56E-13
    10 TBLite/Diag 0.40E+00    0.0     0.00000004      -101.9854263422  5.68E-14
    11 TBLite/Diag 0.40E+00    0.0     3.7966E-09      -101.9854263422  1.14E-13
    12 TBLite/Diag 0.40E+00    0.0     1.9213E-09      -101.9854263422 -2.13E-13
    13 TBLite/Diag 0.40E+00    0.0     1.4124E-10      -101.9854263422  4.26E-14

  *** SCF run converged in    13 steps ***


  Core Hamiltonian energy:                                   -103.47920844008628
  Repulsive potential energy:                                   1.17940254841667
  Electrostatic energy:                                         0.41394579713766
  Self-consistent dispersion energy:                            0.00000000000000
  Non-self consistent dispersion energy:                       -0.09956624765517
  Correction for halogen bonding:                               0.00000000000000
  Electronic entropic energy:                                  -0.00000000000000
  Fermi energy:                                                -0.32299719232251

  Total energy:                                              -101.98542634218714
  Total energy (extrapolated to T->0):                       -101.98542634218714

 ENERGY| Total FORCE_EVAL ( QS ) energy [hartree]           -101.985426342187139

 OPT| **************************************************************************
 OPT| Step number                                                              4
 OPT| Optimization method                                                   BFGS
 OPT| Total energy [hartree]                                     -101.9854263422
 OPT| Internal pressure [bar]                                  -12494.4797251219
 OPT| Effective energy change [hartree]                            -0.0051343665
 OPT| Predicted energy change [hartree]                            -0.0036462576
 OPT| Scaling factor                                                0.0000000000
 OPT| Step size                                                     0.1093628779
 OPT| Trust radius                                                  0.4724315332
 OPT| Decrease in energy                                                     YES
 OPT| Used time [s]                                                        0.858
 OPT|
 OPT| Maximum step size                                             0.1093628779
 OPT| Convergence limit for maximum step size                       0.0030000000
 OPT| Maximum step size is converged                                          NO
 OPT|
 OPT| RMS step size                                                 0.0105677384
 OPT| Convergence limit for RMS step size                           0.0015000000
 OPT| RMS step size is converged                                              NO
 OPT|
 OPT| Maximum gradient                                              0.0269911514
 OPT| Convergence limit for maximum gradient                        0.0004500000
 OPT| Maximum gradient is converged                                           NO
 OPT|
 OPT| RMS gradient                                                  0.0038849866
 OPT| Convergence limit for RMS gradient                            0.0003000000
 OPT| RMS gradient is converged                                               NO
 OPT|
 OPT| Pressure deviation [bar]                                 -12494.4797251219
 OPT| Pressure tolerance [bar]                                    100.0000000000
 OPT| Pressure is converged                                                   NO
 OPT| **************************************************************************
 OPT| Estimated peak process memory after this step [MiB]                    176

 --------------------------
 OPTIMIZATION STEP:      5
 --------------------------

 CELL| Volume [angstrom^3]:                                           510.941642
 CELL| Vector a [angstrom]:      13.051     0.000     0.000   |a| =    13.050712
 CELL| Vector b [angstrom]:      -0.000     9.586     0.000   |b| =     9.585952
 CELL| Vector c [angstrom]:      -0.000     0.000     4.084   |c| =     4.084152
 CELL| Angle (b,c), alpha [degree]:                                    90.000000
 CELL| Angle (a,c), beta  [degree]:                                    90.000000
 CELL| Angle (a,b), gamma [degree]:                                    90.000000
 CELL| Numerically orthorhombic:                                              NO
 CELL| Periodicity                                                           XYZ

 Extrapolation method: ASPC

 Number of electrons:                                                        168
 Number of occupied orbitals:                                                 84
 Number of molecular orbitals:                                               168

 Number of orbital functions:                                                168
 Number of independent orbital functions:                                    168


 SCF WAVEFUNCTION OPTIMIZATION

  Step     Update method      Time    Convergence         Total energy    Change
  ------------------------------------------------------------------------------
     1 TBLite/Diag 0.40E+00    0.0     0.01576803      -101.9892950616 -1.02E+02
     2 TBLite/Diag 0.40E+00    0.0     0.00270709      -101.9893221644 -2.71E-05
     3 TBLite/Diag 0.40E+00    0.0     0.00057089      -101.9893247372 -2.57E-06
     4 TBLite/Diag 0.40E+00    0.0     0.00007887      -101.9893247460 -8.73E-09
     5 TBLite/Diag 0.40E+00    0.0     0.00004898      -101.9893247656 -1.97E-08
     6 TBLite/Diag 0.40E+00    0.0     0.00001110      -101.9893247665 -8.61E-10
     7 TBLite/Diag 0.40E+00    0.0     0.00000421      -101.9893247667 -1.73E-10
     8 TBLite/Diag 0.40E+00    0.0     0.00000060      -101.9893247667 -4.08E-12
     9 TBLite/Diag 0.40E+00    0.0     0.00000029      -101.9893247667 -5.26E-13
    10 TBLite/Diag 0.40E+00    0.0     0.00000004      -101.9893247667 -8.53E-14
    11 TBLite/Diag 0.40E+00    0.0     0.00000001      -101.9893247667  1.71E-13
    12 TBLite/Diag 0.40E+00    0.0     1.4404E-09      -101.9893247667 -1.42E-14
    13 TBLite/Diag 0.40E+00    0.0     8.3341E-11      -101.9893247667 -5.68E-14

  *** SCF run converged in    13 steps ***


  Core Hamiltonian energy:                                   -103.47000011662679
  Repulsive potential energy:                                   1.16549024848734
  Electrostatic energy:                                         0.41328754833799
  Self-consistent dispersion energy:                            0.00000000000000
  Non-self consistent dispersion energy:                       -0.09810244688413
  Correction for halogen bonding:                               0.00000000000000
  Electronic entropic energy:                                  -0.00000000000000
  Fermi energy:                                                -0.32288435472368

  Total energy:                                              -101.98932476668560
  Total energy (extrapolated to T->0):                       -101.98932476668560

 ENERGY| Total FORCE_EVAL ( QS ) energy [hartree]           -101.989324766685598

 OPT| **************************************************************************
 OPT| Step number                                                              5
 OPT| Optimization method                                                   BFGS
 OPT| Total energy [hartree]                                     -101.9893247667
 OPT| Internal pressure [bar]                                  -20560.1131046027
 OPT| Effective energy change [hartree]                            -0.0038984245
 OPT| Predicted energy change [hartree]                            -0.0025584801
 OPT| Scaling factor                                                0.0000000000
 OPT| Step size                                                     0.1203118908
 OPT| Trust radius                                                  0.4724315332
 OPT| Decrease in energy                                                     YES
 OPT| Used time [s]                                                        0.857
 OPT|
 OPT| Maximum step size                                             0.1203118908
 OPT| Convergence limit for maximum step size                       0.0030000000
 OPT| Maximum step size is converged                                          NO
 OPT|
 OPT| RMS step size                                                 0.0113137703
 OPT| Convergence limit for RMS step size                           0.0015000000
 OPT| RMS step size is converged                                              NO
 OPT|
 OPT| Maximum gradient                                              0.0220163993
 OPT| Convergence limit for maximum gradient                        0.0004500000
 OPT| Maximum gradient is converged                                           NO
 OPT|
 OPT| RMS gradient                                                  0.0037115991
 OPT| Convergence limit for RMS gradient                            0.0003000000
 OPT| RMS gradient is converged                                               NO
 OPT|
 OPT| Pressure deviation [bar]                                 -20560.1131046027
 OPT| Pressure tolerance [bar]                                    100.0000000000
 OPT| Pressure is converged                                                   NO
 OPT| **************************************************************************
 OPT| Estimated peak process memory after this step [MiB]                    177

 --------------------------
 OPTIMIZATION STEP:      6
 --------------------------

 CELL| Volume [angstrom^3]:                                           520.412429
 CELL| Vector a [angstrom]:      13.003     0.000     0.000   |a| =    13.003170
 CELL| Vector b [angstrom]:       0.000     9.571     0.000   |b| =     9.571191
 CELL| Vector c [angstrom]:       0.000     0.000     4.182   |c| =     4.181503
 CELL| Angle (b,c), alpha [degree]:                                    90.000000
 CELL| Angle (a,c), beta  [degree]:                                    90.000000
 CELL| Angle (a,b), gamma [degree]:                                    90.000000
 CELL| Numerically orthorhombic:                                              NO
 CELL| Periodicity                                                           XYZ

 Extrapolation method: ASPC

 Number of electrons:                                                        168
 Number of occupied orbitals:                                                 84
 Number of molecular orbitals:                                               168

 Number of orbital functions:                                                168
 Number of independent orbital functions:                                    168


 SCF WAVEFUNCTION OPTIMIZATION

  Step     Update method      Time    Convergence         Total energy    Change
  ------------------------------------------------------------------------------
     1 TBLite/Diag 0.40E+00    0.0     0.02557512      -101.9946304111 -1.02E+02
     2 TBLite/Diag 0.40E+00    0.0     0.00232194      -101.9946692254 -3.88E-05
     3 TBLite/Diag 0.40E+00    0.0     0.00049187      -101.9946714407 -2.22E-06
     4 TBLite/Diag 0.40E+00    0.0     0.00011683      -101.9946715120 -7.13E-08
     5 TBLite/Diag 0.40E+00    0.0     0.00004220      -101.9946715344 -2.24E-08
     6 TBLite/Diag 0.40E+00    0.0     0.00001648      -101.9946715357 -1.28E-09
     7 TBLite/Diag 0.40E+00    0.0     0.00000403      -101.9946715359 -1.70E-10
     8 TBLite/Diag 0.40E+00    0.0     0.00000098      -101.9946715359 -1.56E-11
     9 TBLite/Diag 0.40E+00    0.0     0.00000018      -101.9946715359 -4.41E-13
    10 TBLite/Diag 0.40E+00    0.0     0.00000003      -101.9946715359 -5.68E-14
    11 TBLite/Diag 0.40E+00    0.0     5.9298E-09      -101.9946715359  1.28E-13
    12 TBLite/Diag 0.40E+00    0.0     2.6275E-09      -101.9946715359  5.68E-14
    13 TBLite/Diag 0.40E+00    0.0     1.4506E-10      -101.9946715359 -1.14E-13

  *** SCF run converged in    13 steps ***


  Core Hamiltonian energy:                                   -103.47094006439632
  Repulsive potential energy:                                   1.15821282985376
  Electrostatic energy:                                         0.41414170930348
  Self-consistent dispersion energy:                            0.00000000000000
  Non-self consistent dispersion energy:                       -0.09608601066537
  Correction for halogen bonding:                               0.00000000000000
  Electronic entropic energy:                                  -0.00000000000000
  Fermi energy:                                                -0.32245984508526

  Total energy:                                              -101.99467153590444
  Total energy (extrapolated to T->0):                       -101.99467153590444

 ENERGY| Total FORCE_EVAL ( QS ) energy [hartree]           -101.994671535904445

 OPT| **************************************************************************
 OPT| Step number                                                              6
 OPT| Optimization method                                                   BFGS
 OPT| Total energy [hartree]                                     -101.9946715359
 OPT| Internal pressure [bar]                                  -24046.1973218238
 OPT| Effective energy change [hartree]                            -0.0053467692
 OPT| Predicted energy change [hartree]                            -0.0032707361
 OPT| Scaling factor                                                0.0000000000
 OPT| Step size                                                     0.1839684293
 OPT| Trust radius                                                  0.4724315332
 OPT| Decrease in energy                                                     YES
 OPT| Used time [s]                                                        0.861
 OPT|
 OPT| Maximum step size                                             0.1839684293
 OPT| Convergence limit for maximum step size                       0.0030000000
 OPT| Maximum step size is converged                                          NO
 OPT|
 OPT| RMS step size                                                 0.0181522964
 OPT| Convergence limit for RMS step size                           0.0015000000
 OPT| RMS step size is converged                                              NO
 OPT|
 OPT| Maximum gradient                                              0.0237138163
 OPT| Convergence limit for maximum gradient                        0.0004500000
 OPT| Maximum gradient is converged                                           NO
 OPT|
 OPT| RMS gradient                                                  0.0037049754
 OPT| Convergence limit for RMS gradient                            0.0003000000
 OPT| RMS gradient is converged                                               NO
 OPT|
 OPT| Pressure deviation [bar]                                 -24046.1973218238
 OPT| Pressure tolerance [bar]                                    100.0000000000
 OPT| Pressure is converged                                                   NO
 OPT| **************************************************************************
 OPT| Estimated peak process memory after this step [MiB]                    177

 --------------------------
 OPTIMIZATION STEP:      7
 --------------------------

 CELL| Volume [angstrom^3]:                                           539.868466
 CELL| Vector a [angstrom]:      12.881     0.000     0.000   |a| =    12.880513
 CELL| Vector b [angstrom]:      -0.000     9.526     0.000   |b| =     9.526111
 CELL| Vector c [angstrom]:       0.000     0.000     4.400   |c| =     4.399863
 CELL| Angle (b,c), alpha [degree]:                                    90.000000
 CELL| Angle (a,c), beta  [degree]:                                    90.000000
 CELL| Angle (a,b), gamma [degree]:                                    90.000000
 CELL| Numerically orthorhombic:                                              NO
 CELL| Periodicity                                                           XYZ

 Extrapolation method: ASPC

 Number of electrons:                                                        168
 Number of occupied orbitals:                                                 84
 Number of molecular orbitals:                                               168

 Number of orbital functions:                                                168
 Number of independent orbital functions:                                    168


 SCF WAVEFUNCTION OPTIMIZATION

  Step     Update method      Time    Convergence         Total energy    Change
  ------------------------------------------------------------------------------
     1 TBLite/Diag 0.40E+00    0.0     0.05807315      -102.0033357490 -1.02E+02
     2 TBLite/Diag 0.40E+00    0.0     0.00440425      -102.0034686865 -1.33E-04
     3 TBLite/Diag 0.40E+00    0.0     0.00053084      -102.0034722065 -3.52E-06
     4 TBLite/Diag 0.40E+00    0.0     0.00021729      -102.0034723608 -1.54E-07
     5 TBLite/Diag 0.40E+00    0.0     0.00004417      -102.0034723751 -1.43E-08
     6 TBLite/Diag 0.40E+00    0.0     0.00002081      -102.0034723778 -2.69E-09
     7 TBLite/Diag 0.40E+00    0.0     0.00000628      -102.0034723782 -4.24E-10
     8 TBLite/Diag 0.40E+00    0.0     0.00000115      -102.0034723782 -1.36E-11
     9 TBLite/Diag 0.40E+00    0.0     0.00000051      -102.0034723782 -2.91E-12
    10 TBLite/Diag 0.40E+00    0.0     0.00000009      -102.0034723782  9.95E-14
    11 TBLite/Diag 0.40E+00    0.0     0.00000001      -102.0034723782 -1.14E-13
    12 TBLite/Diag 0.40E+00    0.0     3.6340E-09      -102.0034723782 -2.84E-14
    13 TBLite/Diag 0.40E+00    0.0     1.3742E-10      -102.0034723782  1.42E-14

  *** SCF run converged in    13 steps ***


  Core Hamiltonian energy:                                   -103.48451672133098
  Repulsive potential energy:                                   1.15733073420553
  Electrostatic energy:                                         0.41575103849344
  Self-consistent dispersion energy:                            0.00000000000000
  Non-self consistent dispersion energy:                       -0.09203742956072
  Correction for halogen bonding:                               0.00000000000000
  Electronic entropic energy:                                  -0.00000000000000
  Fermi energy:                                                -0.32215835323110

  Total energy:                                              -102.00347237819273
  Total energy (extrapolated to T->0):                       -102.00347237819273

 ENERGY| Total FORCE_EVAL ( QS ) energy [hartree]           -102.003472378192726

 OPT| **************************************************************************
 OPT| Step number                                                              7
 OPT| Optimization method                                                   BFGS
 OPT| Total energy [hartree]                                     -102.0034723782
 OPT| Internal pressure [bar]                                  -25068.1703415827
 OPT| Effective energy change [hartree]                            -0.0088008423
 OPT| Predicted energy change [hartree]                            -0.0061314690
 OPT| Scaling factor                                                0.0000000000
 OPT| Step size                                                     0.4126404484
 OPT| Trust radius                                                  0.4724315332
 OPT| Decrease in energy                                                     YES
 OPT| Used time [s]                                                        0.841
 OPT|
 OPT| Maximum step size                                             0.4126404484
 OPT| Convergence limit for maximum step size                       0.0030000000
 OPT| Maximum step size is converged                                          NO
 OPT|
 OPT| RMS step size                                                 0.0420913272
 OPT| Convergence limit for RMS step size                           0.0015000000
 OPT| RMS step size is converged                                              NO
 OPT|
 OPT| Maximum gradient                                              0.0230243346
 OPT| Convergence limit for maximum gradient                        0.0004500000
 OPT| Maximum gradient is converged                                           NO
 OPT|
 OPT| RMS gradient                                                  0.0042440350
 OPT| Convergence limit for RMS gradient                            0.0003000000
 OPT| RMS gradient is converged                                               NO
 OPT|
 OPT| Pressure deviation [bar]                                 -25068.1703415827
 OPT| Pressure tolerance [bar]                                    100.0000000000
 OPT| Pressure is converged                                                   NO
 OPT| **************************************************************************
 OPT| Estimated peak process memory after this step [MiB]                    177

 --------------------------
 OPTIMIZATION STEP:      8
 --------------------------

 CELL| Volume [angstrom^3]:                                           551.678674
 CELL| Vector a [angstrom]:      12.778     0.000     0.000   |a| =    12.778166
 CELL| Vector b [angstrom]:       0.000     9.483     0.000   |b| =     9.482934
 CELL| Vector c [angstrom]:       0.000     0.000     4.553   |c| =     4.552762
 CELL| Angle (b,c), alpha [degree]:                                    90.000000
 CELL| Angle (a,c), beta  [degree]:                                    90.000000
 CELL| Angle (a,b), gamma [degree]:                                    90.000000
 CELL| Numerically orthorhombic:                                              NO
 CELL| Periodicity                                                           XYZ

 Extrapolation method: ASPC

 Number of electrons:                                                        168
 Number of occupied orbitals:                                                 84
 Number of molecular orbitals:                                               168

 Number of orbital functions:                                                168
 Number of independent orbital functions:                                    168


 SCF WAVEFUNCTION OPTIMIZATION

  Step     Update method      Time    Convergence         Total energy    Change
  ------------------------------------------------------------------------------
     1 TBLite/Diag 0.40E+00    0.0     0.04109338      -102.0081275253 -1.02E+02
     2 TBLite/Diag 0.40E+00    0.0     0.00361690      -102.0082185198 -9.10E-05
     3 TBLite/Diag 0.40E+00    0.0     0.00064003      -102.0082231738 -4.65E-06
     4 TBLite/Diag 0.40E+00    0.0     0.00017532      -102.0082234526 -2.79E-07
     5 TBLite/Diag 0.40E+00    0.0     0.00007466      -102.0082235133 -6.06E-08
     6 TBLite/Diag 0.40E+00    0.0     0.00002266      -102.0082235170 -3.70E-09
     7 TBLite/Diag 0.40E+00    0.0     0.00000830      -102.0082235174 -4.60E-10
     8 TBLite/Diag 0.40E+00    0.0     0.00000101      -102.0082235174 -1.20E-11
     9 TBLite/Diag 0.40E+00    0.0     0.00000066      -102.0082235174 -9.24E-13
    10 TBLite/Diag 0.40E+00    0.0     0.00000007      -102.0082235174 -2.42E-13
    11 TBLite/Diag 0.40E+00    0.0     4.4565E-09      -102.0082235174  8.53E-14
    12 TBLite/Diag 0.40E+00    0.0     1.1805E-09      -102.0082235174 -9.95E-14
    13 TBLite/Diag 0.40E+00    0.0     1.5214E-10      -102.0082235174  2.98E-13

  *** SCF run converged in    13 steps ***


  Core Hamiltonian energy:                                   -103.50668223406255
  Repulsive potential energy:                                   1.17282307887624
  Electrostatic energy:                                         0.41525497249908
  Self-consistent dispersion energy:                            0.00000000000000
  Non-self consistent dispersion energy:                       -0.08961933475673
  Correction for halogen bonding:                               0.00000000000000
  Electronic entropic energy:                                  -0.00000000000000
  Fermi energy:                                                -0.32165741341374

  Total energy:                                              -102.00822351744395
  Total energy (extrapolated to T->0):                       -102.00822351744395

 ENERGY| Total FORCE_EVAL ( QS ) energy [hartree]           -102.008223517443952

 OPT| **************************************************************************
 OPT| Step number                                                              8
 OPT| Optimization method                                                   BFGS
 OPT| Total energy [hartree]                                     -102.0082235174
 OPT| Internal pressure [bar]                                  -19951.7231680415
 OPT| Effective energy change [hartree]                            -0.0047511393
 OPT| Predicted energy change [hartree]                            -0.0031846968
 OPT| Scaling factor                                                0.0000000000
 OPT| Step size                                                     0.2889364411
 OPT| Trust radius                                                  0.4724315332
 OPT| Decrease in energy                                                     YES
 OPT| Used time [s]                                                        0.815
 OPT|
 OPT| Maximum step size                                             0.2889364411
 OPT| Convergence limit for maximum step size                       0.0030000000
 OPT| Maximum step size is converged                                          NO
 OPT|
 OPT| RMS step size                                                 0.0314327561
 OPT| Convergence limit for RMS step size                           0.0015000000
 OPT| RMS step size is converged                                              NO
 OPT|
 OPT| Maximum gradient                                              0.0176270835
 OPT| Convergence limit for maximum gradient                        0.0004500000
 OPT| Maximum gradient is converged                                           NO
 OPT|
 OPT| RMS gradient                                                  0.0037890931
 OPT| Convergence limit for RMS gradient                            0.0003000000
 OPT| RMS gradient is converged                                               NO
 OPT|
 OPT| Pressure deviation [bar]                                 -19951.7231680415
 OPT| Pressure tolerance [bar]                                    100.0000000000
 OPT| Pressure is converged                                                   NO
 OPT| **************************************************************************
 OPT| Estimated peak process memory after this step [MiB]                    177

 --------------------------
 OPTIMIZATION STEP:      9
 --------------------------

 CELL| Volume [angstrom^3]:                                           558.686452
 CELL| Vector a [angstrom]:      12.683     0.000     0.000   |a| =    12.683397
 CELL| Vector b [angstrom]:      -0.000     9.438     0.000   |b| =     9.437582
 CELL| Vector c [angstrom]:       0.000     0.000     4.667   |c| =     4.667366
 CELL| Angle (b,c), alpha [degree]:                                    90.000000
 CELL| Angle (a,c), beta  [degree]:                                    90.000000
 CELL| Angle (a,b), gamma [degree]:                                    90.000000
 CELL| Numerically orthorhombic:                                              NO
 CELL| Periodicity                                                           XYZ

 Extrapolation method: ASPC

 Number of electrons:                                                        168
 Number of occupied orbitals:                                                 84
 Number of molecular orbitals:                                               168

 Number of orbital functions:                                                168
 Number of independent orbital functions:                                    168


 SCF WAVEFUNCTION OPTIMIZATION

  Step     Update method      Time    Convergence         Total energy    Change
  ------------------------------------------------------------------------------
     1 TBLite/Diag 0.40E+00    0.0     0.03164539      -102.0116663577 -1.02E+02
     2 TBLite/Diag 0.40E+00    0.0     0.00491797      -102.0117516943 -8.53E-05
     3 TBLite/Diag 0.40E+00    0.0     0.00068469      -102.0117573040 -5.61E-06
     4 TBLite/Diag 0.40E+00    0.0     0.00015746      -102.0117574739 -1.70E-07
     5 TBLite/Diag 0.40E+00    0.0     0.00007985      -102.0117575400 -6.61E-08
     6 TBLite/Diag 0.40E+00    0.0     0.00002422      -102.0117575461 -6.10E-09
     7 TBLite/Diag 0.40E+00    0.0     0.00000606      -102.0117575465 -4.37E-10
     8 TBLite/Diag 0.40E+00    0.0     0.00000062      -102.0117575465 -4.62E-12
     9 TBLite/Diag 0.40E+00    0.0     0.00000038      -102.0117575465 -7.39E-13
    10 TBLite/Diag 0.40E+00    0.0     0.00000004      -102.0117575465  1.28E-13
    11 TBLite/Diag 0.40E+00    0.0     3.8278E-09      -102.0117575465  5.68E-14
    12 TBLite/Diag 0.40E+00    0.0     2.3956E-09      -102.0117575465 -5.68E-14
    13 TBLite/Diag 0.40E+00    0.0     6.8639E-11      -102.0117575465  4.26E-14

  *** SCF run converged in    13 steps ***


  Core Hamiltonian energy:                                   -103.53809023599779
  Repulsive potential energy:                                   1.19929873075144
  Electrostatic energy:                                         0.41516525114254
  Self-consistent dispersion energy:                            0.00000000000000
  Non-self consistent dispersion energy:                       -0.08813129241857
  Correction for halogen bonding:                               0.00000000000000
  Electronic entropic energy:                                  -0.00000000000000
  Fermi energy:                                                -0.32110333934114

  Total energy:                                              -102.01175754652238
  Total energy (extrapolated to T->0):                       -102.01175754652238

 ENERGY| Total FORCE_EVAL ( QS ) energy [hartree]           -102.011757546522375

 OPT| **************************************************************************
 OPT| Step number                                                              9
 OPT| Optimization method                                                   BFGS
 OPT| Total energy [hartree]                                     -102.0117575465
 OPT| Internal pressure [bar]                                  -11134.8548483868
 OPT| Effective energy change [hartree]                            -0.0035340291
 OPT| Predicted energy change [hartree]                            -0.0025440848
 OPT| Scaling factor                                                0.0000000000
 OPT| Step size                                                     0.2165694632
 OPT| Trust radius                                                  0.4724315332
 OPT| Decrease in energy                                                     YES
 OPT| Used time [s]                                                        0.811
 OPT|
 OPT| Maximum step size                                             0.2165694632
 OPT| Convergence limit for maximum step size                       0.0030000000
 OPT| Maximum step size is converged                                          NO
 OPT|
 OPT| RMS step size                                                 0.0263639556
 OPT| Convergence limit for RMS step size                           0.0015000000
 OPT| RMS step size is converged                                              NO
 OPT|
 OPT| Maximum gradient                                              0.0102249206
 OPT| Convergence limit for maximum gradient                        0.0004500000
 OPT| Maximum gradient is converged                                           NO
 OPT|
 OPT| RMS gradient                                                  0.0027690727
 OPT| Convergence limit for RMS gradient                            0.0003000000
 OPT| RMS gradient is converged                                               NO
 OPT|
 OPT| Pressure deviation [bar]                                 -11134.8548483868
 OPT| Pressure tolerance [bar]                                    100.0000000000
 OPT| Pressure is converged                                                   NO
 OPT| **************************************************************************
 OPT| Estimated peak process memory after this step [MiB]                    177

 --------------------------
 OPTIMIZATION STEP:     10
 --------------------------

 CELL| Volume [angstrom^3]:                                           557.020097
 CELL| Vector a [angstrom]:      12.654     0.000     0.000   |a| =    12.653885
 CELL| Vector b [angstrom]:       0.000     9.419     0.000   |b| =     9.418974
 CELL| Vector c [angstrom]:       0.000     0.000     4.674   |c| =     4.673512
 CELL| Angle (b,c), alpha [degree]:                                    90.000000
 CELL| Angle (a,c), beta  [degree]:                                    90.000000
 CELL| Angle (a,b), gamma [degree]:                                    90.000000
 CELL| Numerically orthorhombic:                                              NO
 CELL| Periodicity                                                           XYZ

 Extrapolation method: ASPC

 Number of electrons:                                                        168
 Number of occupied orbitals:                                                 84
 Number of molecular orbitals:                                               168

 Number of orbital functions:                                                168
 Number of independent orbital functions:                                    168


 SCF WAVEFUNCTION OPTIMIZATION

  Step     Update method      Time    Convergence         Total energy    Change
  ------------------------------------------------------------------------------
     1 TBLite/Diag 0.40E+00    0.0     0.00935895      -102.0136982916 -1.02E+02
     2 TBLite/Diag 0.40E+00    0.0     0.00250477      -102.0137322903 -3.40E-05
     3 TBLite/Diag 0.40E+00    0.0     0.00051673      -102.0137347916 -2.50E-06
     4 TBLite/Diag 0.40E+00    0.0     0.00010251      -102.0137348558 -6.43E-08
     5 TBLite/Diag 0.40E+00    0.0     0.00004715      -102.0137348896 -3.38E-08
     6 TBLite/Diag 0.40E+00    0.0     0.00001235      -102.0137348908 -1.21E-09
     7 TBLite/Diag 0.40E+00    0.0     0.00000206      -102.0137348909 -5.47E-11
     8 TBLite/Diag 0.40E+00    0.0     0.00000061      -102.0137348909 -2.22E-12
     9 TBLite/Diag 0.40E+00    0.0     0.00000017      -102.0137348909 -3.55E-13
    10 TBLite/Diag 0.40E+00    0.0     0.00000002      -102.0137348909  9.95E-14
    11 TBLite/Diag 0.40E+00    0.0     1.8189E-09      -102.0137348909  1.42E-14
    12 TBLite/Diag 0.40E+00    0.0     1.0333E-09      -102.0137348909 -2.84E-14
    13 TBLite/Diag 0.40E+00    0.0     3.1321E-11      -102.0137348909 -1.71E-13

  *** SCF run converged in    13 steps ***


  Core Hamiltonian energy:                                   -103.56043836311339
  Repulsive potential energy:                                   1.21957076120584
  Electrostatic energy:                                         0.41546041698843
  Self-consistent dispersion energy:                            0.00000000000000
  Non-self consistent dispersion energy:                       -0.08832770596217
  Correction for halogen bonding:                               0.00000000000000
  Electronic entropic energy:                                  -0.00000000000000
  Fermi energy:                                                -0.32057319503553

  Total energy:                                              -102.01373489088130
  Total energy (extrapolated to T->0):                       -102.01373489088130

 ENERGY| Total FORCE_EVAL ( QS ) energy [hartree]           -102.013734890881295

 OPT| **************************************************************************
 OPT| Step number                                                             10
 OPT| Optimization method                                                   BFGS
 OPT| Total energy [hartree]                                     -102.0137348909
 OPT| Internal pressure [bar]                                   -3239.2176478509
 OPT| Effective energy change [hartree]                            -0.0019773444
 OPT| Predicted energy change [hartree]                            -0.0012657630
 OPT| Scaling factor                                                0.0000000000
 OPT| Step size                                                     0.0557701370
 OPT| Trust radius                                                  0.4724315332
 OPT| Decrease in energy                                                     YES
 OPT| Used time [s]                                                        0.809
 OPT|
 OPT| Maximum step size                                             0.0557701370
 OPT| Convergence limit for maximum step size                       0.0030000000
 OPT| Maximum step size is converged                                          NO
 OPT|
 OPT| RMS step size                                                 0.0077901327
 OPT| Convergence limit for RMS step size                           0.0015000000
 OPT| RMS step size is converged                                              NO
 OPT|
 OPT| Maximum gradient                                              0.0050079672
 OPT| Convergence limit for maximum gradient                        0.0004500000
 OPT| Maximum gradient is converged                                           NO
 OPT|
 OPT| RMS gradient                                                  0.0021590875
 OPT| Convergence limit for RMS gradient                            0.0003000000
 OPT| RMS gradient is converged                                               NO
 OPT|
 OPT| Pressure deviation [bar]                                  -3239.2176478509
 OPT| Pressure tolerance [bar]                                    100.0000000000
 OPT| Pressure is converged                                                   NO
 OPT| **************************************************************************
 OPT| Estimated peak process memory after this step [MiB]                    177

 --------------------------
 OPTIMIZATION STEP:     11
 --------------------------

 CELL| Volume [angstrom^3]:                                           555.087433
 CELL| Vector a [angstrom]:      12.630     0.000     0.000   |a| =    12.630348
 CELL| Vector b [angstrom]:       0.000     9.406     0.000   |b| =     9.406020
 CELL| Vector c [angstrom]:      -0.000     0.000     4.672   |c| =     4.672402
 CELL| Angle (b,c), alpha [degree]:                                    90.000000
 CELL| Angle (a,c), beta  [degree]:                                    90.000000
 CELL| Angle (a,b), gamma [degree]:                                    90.000000
 CELL| Numerically orthorhombic:                                              NO
 CELL| Periodicity                                                           XYZ

 Extrapolation method: ASPC

 Number of electrons:                                                        168
 Number of occupied orbitals:                                                 84
 Number of molecular orbitals:                                               168

 Number of orbital functions:                                                168
 Number of independent orbital functions:                                    168


 SCF WAVEFUNCTION OPTIMIZATION

  Step     Update method      Time    Convergence         Total energy    Change
  ------------------------------------------------------------------------------
     1 TBLite/Diag 0.40E+00    0.0     0.01101295      -102.0151891086 -1.02E+02
     2 TBLite/Diag 0.40E+00    0.0     0.00109269      -102.0151970298 -7.92E-06
     3 TBLite/Diag 0.40E+00    0.0     0.00026002      -102.0151974226 -3.93E-07
     4 TBLite/Diag 0.40E+00    0.0     0.00007840      -102.0151974731 -5.05E-08
     5 TBLite/Diag 0.40E+00    0.0     0.00002516      -102.0151974779 -4.82E-09
     6 TBLite/Diag 0.40E+00    0.0     0.00000813      -102.0151974785 -5.74E-10
     7 TBLite/Diag 0.40E+00    0.0     0.00000217      -102.0151974786 -4.54E-11
     8 TBLite/Diag 0.40E+00    0.0     0.00000045      -102.0151974786 -2.63E-12
     9 TBLite/Diag 0.40E+00    0.0     0.00000023      -102.0151974786 -2.56E-13
    10 TBLite/Diag 0.40E+00    0.0     0.00000002      -102.0151974786 -2.84E-14
    11 TBLite/Diag 0.40E+00    0.0     2.5402E-09      -102.0151974786 -4.26E-14
    12 TBLite/Diag 0.40E+00    0.0     1.3944E-09      -102.0151974786  1.85E-13
    13 TBLite/Diag 0.40E+00    0.0     3.6449E-11      -102.0151974786 -1.42E-13

  *** SCF run converged in    13 steps ***


  Core Hamiltonian energy:                                   -103.56973395144199
  Repulsive potential energy:                                   1.22770548632817
  Electrostatic energy:                                         0.41545264964178
  Self-consistent dispersion energy:                            0.00000000000000
  Non-self consistent dispersion energy:                       -0.08862166308172
  Correction for halogen bonding:                               0.00000000000000
  Electronic entropic energy:                                  -0.00000000000000
  Fermi energy:                                                -0.32041744200106

  Total energy:                                              -102.01519747855377
  Total energy (extrapolated to T->0):                       -102.01519747855377

 ENERGY| Total FORCE_EVAL ( QS ) energy [hartree]           -102.015197478553773

 OPT| **************************************************************************
 OPT| Step number                                                             11
 OPT| Optimization method                                                   BFGS
 OPT| Total energy [hartree]                                     -102.0151974786
 OPT| Internal pressure [bar]                                     550.4358837395
 OPT| Effective energy change [hartree]                            -0.0014625877
 OPT| Predicted energy change [hartree]                            -0.0009116014
 OPT| Scaling factor                                                0.0000000000
 OPT| Step size                                                     0.0444778141
 OPT| Trust radius                                                  0.4724315332
 OPT| Decrease in energy                                                     YES
 OPT| Used time [s]                                                        0.740
 OPT|
 OPT| Maximum step size                                             0.0444778141
 OPT| Convergence limit for maximum step size                       0.0030000000
 OPT| Maximum step size is converged                                          NO
 OPT|
 OPT| RMS step size                                                 0.0072836998
 OPT| Convergence limit for RMS step size                           0.0015000000
 OPT| RMS step size is converged                                              NO
 OPT|
 OPT| Maximum gradient                                              0.0053159478
 OPT| Convergence limit for maximum gradient                        0.0004500000
 OPT| Maximum gradient is converged                                           NO
 OPT|
 OPT| RMS gradient                                                  0.0021306746
 OPT| Convergence limit for RMS gradient                            0.0003000000
 OPT| RMS gradient is converged                                               NO
 OPT|
 OPT| Pressure deviation [bar]                                    550.4358837395
 OPT| Pressure tolerance [bar]                                    100.0000000000
 OPT| Pressure is converged                                                   NO
 OPT| **************************************************************************
 OPT| Estimated peak process memory after this step [MiB]                    177

 --------------------------
 OPTIMIZATION STEP:     12
 --------------------------

 CELL| Volume [angstrom^3]:                                           553.946354
 CELL| Vector a [angstrom]:      12.600     0.000     0.000   |a| =    12.600082
 CELL| Vector b [angstrom]:       0.000     9.393     0.000   |b| =     9.393266
 CELL| Vector c [angstrom]:      -0.000     0.000     4.680   |c| =     4.680343
 CELL| Angle (b,c), alpha [degree]:                                    90.000000
 CELL| Angle (a,c), beta  [degree]:                                    90.000000
 CELL| Angle (a,b), gamma [degree]:                                    90.000000
 CELL| Numerically orthorhombic:                                              NO
 CELL| Periodicity                                                           XYZ

 Extrapolation method: ASPC

 Number of electrons:                                                        168
[...]
 OPT| Step size                                                     0.0076574501
 OPT| Trust radius                                                  0.4724315332
 OPT| Decrease in energy                                                     YES
 OPT| Used time [s]                                                        0.785
 OPT|
 OPT| Maximum step size                                             0.0076574501
 OPT| Convergence limit for maximum step size                       0.0030000000
 OPT| Maximum step size is converged                                          NO
 OPT|
 OPT| RMS step size                                                 0.0013180697
 OPT| Convergence limit for RMS step size                           0.0015000000
 OPT| RMS step size is converged                                             YES
 OPT|
 OPT| Maximum gradient                                              0.0002372078
 OPT| Convergence limit for maximum gradient                        0.0004500000
 OPT| Maximum gradient is converged                                          YES
 OPT|
 OPT| RMS gradient                                                  0.0000533819
 OPT| Convergence limit for RMS gradient                            0.0003000000
 OPT| RMS gradient is converged                                              YES
 OPT|
 OPT| Pressure deviation [bar]                                   -226.2784485510
 OPT| Pressure tolerance [bar]                                    100.0000000000
 OPT| Pressure is converged                                                   NO
 OPT| **************************************************************************
 OPT| Estimated peak process memory after this step [MiB]                    177

 --------------------------
 OPTIMIZATION STEP:    200
 --------------------------

 CELL| Volume [angstrom^3]:                                           434.942247
 CELL| Vector a [angstrom]:      10.637     0.000     0.000   |a| =    10.637214
 CELL| Vector b [angstrom]:      -0.000    10.431     0.000   |b| =    10.431285
 CELL| Vector c [angstrom]:       0.000    -0.000     3.920   |c| =     3.919818
 CELL| Angle (b,c), alpha [degree]:                                    90.000000
 CELL| Angle (a,c), beta  [degree]:                                    90.000000
 CELL| Angle (a,b), gamma [degree]:                                    90.000000
 CELL| Numerically orthorhombic:                                              NO
 CELL| Periodicity                                                           XYZ

 Extrapolation method: ASPC

 Number of electrons:                                                        168
 Number of occupied orbitals:                                                 84
 Number of molecular orbitals:                                               168

 Number of orbital functions:                                                168
 Number of independent orbital functions:                                    168


 SCF WAVEFUNCTION OPTIMIZATION

  Step     Update method      Time    Convergence         Total energy    Change
  ------------------------------------------------------------------------------
     1 TBLite/Diag 0.40E+00    0.0     0.00041098      -102.1008161350 -1.02E+02
     2 TBLite/Diag 0.40E+00    0.0     0.00002840      -102.1008161422 -7.19E-09
     3 TBLite/Diag 0.40E+00    0.0     0.00000616      -102.1008161426 -4.33E-10
     4 TBLite/Diag 0.40E+00    0.0     0.00000225      -102.1008161427 -2.48E-11
     5 TBLite/Diag 0.40E+00    0.0     0.00000061      -102.1008161427 -3.33E-12
     6 TBLite/Diag 0.40E+00    0.0     0.00000023      -102.1008161427 -4.26E-13
     7 TBLite/Diag 0.40E+00    0.0     0.00000007      -102.1008161427 -8.53E-14
     8 TBLite/Diag 0.40E+00    0.0     9.7903E-09      -102.1008161427  5.68E-14
     9 TBLite/Diag 0.40E+00    0.0     2.8826E-09      -102.1008161427 -1.71E-13
    10 TBLite/Diag 0.40E+00    0.0     3.1026E-10      -102.1008161427  1.14E-13

  *** SCF run converged in    10 steps ***


  Core Hamiltonian energy:                                   -103.59409729740031
  Repulsive potential energy:                                   1.21370947046591
  Electrostatic energy:                                         0.39333359720831
  Self-consistent dispersion energy:                            0.00000000000000
  Non-self consistent dispersion energy:                       -0.11376191294539
  Correction for halogen bonding:                               0.00000000000000
  Electronic entropic energy:                                  -0.00000000000000
  Fermi energy:                                                -0.30459326439047

  Total energy:                                              -102.10081614267148
  Total energy (extrapolated to T->0):                       -102.10081614267148

 ENERGY| Total FORCE_EVAL ( QS ) energy [hartree]           -102.100816142671476

 OPT| **************************************************************************
 OPT| Step number                                                            200
 OPT| Optimization method                                                   BFGS
 OPT| Total energy [hartree]                                     -102.1008161427
 OPT| Internal pressure [bar]                                      33.9193546301
 OPT| Effective energy change [hartree]                            -0.0000006513
 OPT| Predicted energy change [hartree]                            -0.0000004518
 OPT| Scaling factor                                                0.7175178594
 OPT| Step size                                                     0.0042637493
 OPT| Trust radius                                                  0.4724315332
 OPT| Decrease in energy                                                     YES
 OPT| Used time [s]                                                        0.783
 OPT|
 OPT| Maximum step size                                             0.0042637493
 OPT| Convergence limit for maximum step size                       0.0030000000
 OPT| Maximum step size is converged                                          NO
 OPT|
 OPT| RMS step size                                                 0.0006979732
 OPT| Convergence limit for RMS step size                           0.0015000000
 OPT| RMS step size is converged                                             YES
 OPT|
 OPT| Maximum gradient                                              0.0000848702
 OPT| Convergence limit for maximum gradient                        0.0004500000
 OPT| Maximum gradient is converged                                          YES
 OPT|
 OPT| RMS gradient                                                  0.0000313111
 OPT| Convergence limit for RMS gradient                            0.0003000000
 OPT| RMS gradient is converged                                              YES
 OPT|
 OPT| Pressure deviation [bar]                                     33.9193546301
 OPT| Pressure tolerance [bar]                                    100.0000000000
 OPT| Pressure is converged                                                  YES
 OPT| **************************************************************************
 OPT| Estimated peak process memory after this step [MiB]                    177

 *** MAXIMUM NUMBER OF OPTIMIZATION STEPS REACHED ***
 ***        EXITING GEOMETRY OPTIMIZATION         ***

 write_final_structure: Optimization not yet converged, writing XYZ file anyway:
  cytosine_GFN1_gamma_cell_opt-FINAL-1_200.xyz

 write_final_structure: Optimization not yet converged, writing CIF file anyway:
  cytosine_GFN1_gamma_cell_opt-FINAL-1_200.cif

 write_final_structure: Done!

 -------------------------------------------------------------------------------
 -                                                                             -
 -                                DBCSR STATISTICS                             -
 -                                                                             -
 -------------------------------------------------------------------------------
 COUNTER                                    TOTAL       BLAS       SMM       ACC
 flops     2 x     8 x     2             25344000       0.0%    100.0%      0.0%     
 flops     2 x     8 x     4             81100800       0.0%    100.0%      0.0%     
 flops     4 x     8 x     2             81100800       0.0%    100.0%      0.0%     
 flops     4 x     8 x     4            259522560       0.0%    100.0%      0.0%     
 flops     2 x    32 x     2            506880000       0.0%    100.0%      0.0%     
 flops     2 x     2 x   168            794787840       0.0%    100.0%      0.0%     
 flops     2 x    32 x     4           1622016000       0.0%    100.0%      0.0%     
 flops     4 x    32 x     2           1622016000       0.0%    100.0%      0.0%     
 flops     2 x     4 x   168           2422210560       0.0%    100.0%      0.0%     
 flops     4 x     2 x   168           2422210560       0.0%    100.0%      0.0%     
 flops     4 x    32 x     4           5190451200       0.0%    100.0%      0.0%     
 flops     4 x     4 x   168           7993294848       0.0%    100.0%      0.0%     
 flops inhomo. stacks                           0       0.0%      0.0%      0.0%
 flops total                        23.020935E+09       0.0%    100.0%      0.0%
 flops max/rank                     23.020935E+09       0.0%    100.0%      0.0%
 matmuls inhomo. stacks                         0       0.0%      0.0%      0.0%
 matmuls total                           19942208       0.0%    100.0%      0.0%
 number of processed stacks                 32054       0.0%    100.0%      0.0%
 average stack size                                     0.0     622.1       0.0
 marketing flops                    22.739841E+09
 -------------------------------------------------------------------------------
 # multiplications                           3806
 max memory usage/rank              13.681115E+09
 # max total images/rank                        1
 # max 3D layers                                1
 # MPI messages exchanged                       0
 -------------------------------------------------------------------------------
 -                                                                             -
 -                      DBCSR MESSAGE PASSING PERFORMANCE                      -
 -                                                                             -
 -------------------------------------------------------------------------------
 ROUTINE             CALLS      AVE VOLUME [Bytes]
 MP_Bcast               13                     12.
 MP_Allreduce        17093                      8.
 MP_Alltoall        123806                 149780.
 MP_ISend            15224                  12462.
 MP_IRecv            15224                  12462.
 -------------------------------------------------------------------------------

 -------------------------------------------------------------------------------
 -                                                                             -
 -                          OFFLOAD MEMPOOL STATISTICS                         -
 -                                                                             -
 -------------------------------------------------------------------------------
 Memory consumption                Number of allocations  Used [MiB]  Size [MiB]
 Device                                                2           0           0
 Host                                                  2           0           0
 -------------------------------------------------------------------------------

 MEMORY| Estimated peak process memory [MiB]                                 177

 -------------------------------------------------------------------------------
 -                                                                             -
 -                         MESSAGE PASSING PERFORMANCE                         -
 -                                                                             -
 -------------------------------------------------------------------------------

 ROUTINE             CALLS      AVE VOLUME [Bytes]
 MP_Group              201
 MP_Bcast             5631                    672.
 MP_Allreduce        47282                    324.
 MP_Sync              3016
 MP_comm_split        2815
 -------------------------------------------------------------------------------


 -------------------------------------------------------------------------------
 -                                                                             -
 -                           R E F E R E N C E S                               -
 -                                                                             -
 -------------------------------------------------------------------------------
 
 CP2K version 2026.1 (Development Version), the CP2K developers group (2026).
 CP2K is freely available from https://www.cp2k.org/ .
 
 M. Iannuzzi, J. Wilhelm, F. Stein, A. Bussy, H. Elgabarty, D. Golze, A. Hehn, 
 M. Graml, S. Marek, B. Sertcan Gökmen, C. Schran, H. Forbert, R. Z. 
 Khaliullin, A. Kozhevnikov, M. Taillefumier, R. Meli, V. V. Rybkin, M. Brehm, 
 R. Schade, O. Schütt, J. V. Pototschnig, H. Mirhosseini, A. Knüpfer, D. Marx, 
 M. Krack, J. Hutter, T. D. Kühne.
 J. Phys. Chem. B 130, 1237-1310 (2026).
 The CP2K Program Package Made Simple.
 https://doi.org/10.1021/acs.jpcb.5c05851

 A. Katbashev, M. Stahn, T. Rose, V. Alizadeh, M. Friede, C. Plett, P. 
 Steinbach, S. Ehlert.
 J. Phys. Chem. A 129, 2667-2682 (2025).
 Overview on Building Blocks and Applications of Efficient and Robust Extended 
 Tight Binding.
 https://doi.org/10.1021/acs.jpca.4c08263

 T. D. Kühne, M. Iannuzzi, M. Del Ben, V. V. Rybkin, P. Seewald, F. Stein, T. 
 Laino, R. Z. Khaliullin, O. Schütt, F. Schiffmann, D. Golze, J. Wilhelm, S. 
 Chulkov, M. H. Bani-Hashemian, V. Weber, U. Borstnik, M. Taillefumier, A. S. 
 Jakobovits, A. Lazzaro, H. Pabst, T. Müller, R. Schade, M. Guidon, S. 
 Andermatt, N. Holmberg, G. K. Schenter, A. Hehn, A. Bussy, F. Belleflamme, G. 
 Tabacchi, A. Glöß, M. Lass, I. Bethune, C. J. Mundy, C. Plessl, M. Watkins, 
 J. VandeVondele, M. Krack, J. Hutter.
 J. Chem. Phys. 152, 194103 (2020).
 CP2K: An electronic structure and molecular dynamics software package - 
 Quickstep: Efficient and accurate electronic structure calculations.
 https://doi.org/10.1063/5.0007045

 P. Pracht, E. Caldeweyher, S. Ehlert, S. Grimme.
 ChemRxiv, (2019).
 A Robust Non-Self-Consistent Tight-Binding Quantum Chemistry Method for large 
 Molecules.
 https://doi.org/10.26434/chemrxiv.8326202.v1

 S. Grimme, C. Bannwarth, P. Shushkov.
 J. Chem. Theory Comput. 13, 1989 (2017).
 A Robust and Accurate Tight-Binding Quantum Chemical Method for Structures, 
 Vibrational Frequencies, and Noncovalent Interactions of Large Molecular 
 Systems Parametrized for All spd-Block Elements (Z = 1-86).
 https://doi.org/10.1021/acs.jctc.7b00118

 O. Schuett, P. Messmer, J. Hutter, J. VandeVondele.
 Electronic Structure Calculations on Graphics Processing Units, 173-190 (2016).
 GPU-Accelerated Sparse Matrix-Matrix Multiplication for Linear Scaling Density 
 Functional Theory.
 https://doi.org/10.1002/9781118670712.ch8

 A. Heinecke, G. Henry, M. Hutchinson, H. Pabst.
 Proceedings of Intl. Supercomputing Conference, 981-991 (2016).
 LIBXSMM: Accelerating Small Matrix Multiplications by Runtime Code Generation.
 https://doi.org/10.1109/SC.2016.83

 U. Borstnik, J. VandeVondele, V. Weber, J. Hutter.
 Parallel Comput. 40, 47-58 (2014).
 Sparse matrix multiplication: The distributed block-compressed sparse row 
 library.
 https://doi.org/10.1016/j.parco.2014.03.012

 T. D. Kühne, M. Krack, F. R. Mohamed, M. Parrinello.
 Phys. Rev. Lett. 98, 066401 (2007).
 Efficient and accurate Car-Parrinello-like approach to Born-Oppenheimer 
 molecular dynamics.
 https://doi.org/10.1103/PhysRevLett.98.066401

 M. Frigo, S. G. Johnson.
 Proc. IEEE 93, 216-231 (2005).
 The design and implementation of FFTW3.
 https://doi.org/10.1109/JPROC.2004.840301

 J. Kolafa.
 J. Comput. Chem. 25, 335-342 (2004).
 Time-reversible always stable predictor-corrector method for molecular dynamics 
 of polarizable molecules.
 https://doi.org/10.1002/jcc.10385

 N. D. Mermin.
 Phys. Rev. 137, A1441-A1443 (1965).
 Thermal Properties of the Inhomogeneous Electron Gas.
 https://doi.org/10.1103/PhysRev.137.A1441


 -------------------------------------------------------------------------------
 -                                                                             -
 -                                T I M I N G                                  -
 -                                                                             -
 -------------------------------------------------------------------------------
 SUBROUTINE                       CALLS  ASD         SELF TIME        TOTAL TIME
                                MAXIMUM       AVERAGE  MAXIMUM  AVERAGE  MAXIMUM
 CP2K                                 1  1.0    0.003    0.003  112.205  112.205
 cp_cell_opt                          1  2.0    0.000    0.000  112.196  112.196
 geoopt_bfgs                          1  3.0    0.026    0.026  112.195  112.195
 cp_eval_at                         201  4.0    0.024    0.024  111.507  111.507
 qs_forces                          201  5.0    0.015    0.015  111.479  111.479
 build_tblite_matrices              402  7.0   44.399   44.399   44.847   44.847
 qs_energies                        201  6.0    0.006    0.006   44.271   44.271
 rebuild_ks_matrix                 2616  9.8    0.003    0.003   42.206   42.206
 build_tblite_ks_matrix            2616 10.8   42.162   42.162   42.203   42.203
 qs_ks_update_qs_env_forces         201  6.0    0.001    0.001   40.836   40.836
 scf_env_do_scf                     201  7.0    0.003    0.003   20.772   20.772
 scf_env_do_scf_inner_loop         2415  8.0    0.419    0.419   20.747   20.747
 qs_energies_init_hamiltonians      201  7.0    0.001    0.001   19.153   19.153
 qs_scf_new_mos                    2415  9.0    0.014    0.014   17.985   17.985
 eigensolver                       2415 10.0    0.044    0.044    8.091    8.091
 cp_fm_syevd                       2815 10.6    0.009    0.009    7.224    7.224
 cp_fm_syevd_base                  2815 11.6    6.948    6.948    6.948    6.948
 cp_dbcsr_plus_fm_fm_t             2816 10.9    0.020    0.020    5.001    5.001
 calculate_dm_sparse               2615 10.0    0.018    0.018    4.694    4.694
 dbcsr_multiply_generic            3806 12.0    0.114    0.114    4.499    4.499
 dbcsr_complete_redistribute      12442 12.2    3.574    3.574    4.353    4.353
 copy_dbcsr_to_fm                  5820 10.6    0.036    0.036    3.917    3.917
 init_scf_run                       201  7.0    0.002    0.002    3.820    3.820
 scf_env_initial_rho_setup          201  8.0    0.002    0.002    3.627    3.627
 wfi_extrapolate                    201  9.0    0.008    0.008    3.625    3.625
 qs_diis_b_step                    2214 10.0    0.019    0.019    3.471    3.471
 -------------------------------------------------------------------------------

 The number of warnings for this run is : 0
 
 -------------------------------------------------------------------------------
  **** **** ******  **  PROGRAM ENDED AT                 2026-05-23 22:48:43.628
 ***** ** ***  *** **   PROGRAM RAN ON                                spark-c86c
 **    ****   ******    PROGRAM RAN BY                                  kuehne88
 ***** **    ** ** **   PROGRAM PROCESS ID                               2264778
  **** **  *******  **  PROGRAM STOPPED IN /home/kuehne88/periodic-gfn2-benchmar
                                           ks/X23b/runs/cellopt_gamma/GFN1/cytos
                                           ine_GFN1_gamma_cellopt
