 DBCSR| CPU Multiplication driver                                           XSMM (U)
 DBCSR| Multrec recursion limit                                              512 (U)
 DBCSR| Multiplication stack size                                           1000 (D)
 DBCSR| Maximum elements for images                                    UNLIMITED (U)
 DBCSR| Multiplicative factor virtual images                                   1 (U)
 DBCSR| Use multiplication densification                                       T (D)
 DBCSR| Multiplication size stacks                                             3 (U)
 DBCSR| Use memory pool for CPU allocation                                     F (U)
 DBCSR| Number of 3D layers                                               SINGLE (U)
 DBCSR| Use MPI memory allocation                                              F (U)
 DBCSR| Use RMA algorithm                                                      F (U)
 DBCSR| Use Communication thread                                               T (U)
 DBCSR| Communication thread load                                             87 (D)
 DBCSR| MPI: My process id                                                     0
 DBCSR| MPI: Number of processes                                               1
 DBCSR| OMP: Current number of threads                                         1
 DBCSR| OMP: Max number of threads                                             1
 DBCSR| Split modifier for TAS multiplication algorithm                  1.0E+00 (U)


  **** **** ******  **  PROGRAM STARTED AT               2026-05-23 22:46:20.880
 ***** ** ***  *** **   PROGRAM STARTED ON                            spark-c86c
 **    ****   ******    PROGRAM STARTED BY                              kuehne88
 ***** **    ** ** **   PROGRAM PROCESS ID                               2229791
  **** **  *******  **  PROGRAM STARTED IN /home/kuehne88/periodic-gfn2-benchmar
                                           ks/X23b/runs/molecule_geoopt/GFN2/tri
                                           oxane_GFN2_mol_geoopt

 CP2K| version string:                 CP2K version 2026.1 (Development Version)
 CP2K| source code revision number:                                   0622d442e4
 CP2K| cp2kflags: omp fftw3 libxc parallel scalapack mpi_f08 xsmm spglib libdftd
 CP2K|            4 dftd4_v3 mctc-lib tblite
 CP2K| is freely available from                            https://www.cp2k.org/
 CP2K| Program compiled at                                   2026-05-23 22:05:08
 CP2K| Program compiled on                                            spark-c86c
 CP2K| Program compiled for                                              aarch64
 CP2K| Data directory path    /home/kuehne88/cp2k-master-tblite-20260523/install
 CP2K| Input file name                              trioxane_GFN2_mol_geoopt.inp

 GLOBAL| Force Environment number                                              1
 GLOBAL| Basis set file name                                           BASIS_SET
 GLOBAL| Potential file name                                           POTENTIAL
 GLOBAL| MM Potential file name                                     MM_POTENTIAL
 GLOBAL| Coordinate file name                                      __STD_INPUT__
 GLOBAL| Method name                                                        CP2K
 GLOBAL| Project name                                   trioxane_GFN2_mol_geoopt
 GLOBAL| Run type                                                        GEO_OPT
 GLOBAL| FFT library                                                       FFTW3
 GLOBAL| Diagonalization library                                       ScaLAPACK
 GLOBAL| Cholesky decomposition library                                ScaLAPACK
 GLOBAL| DGEMM library                                                      BLAS
 GLOBAL| Direct generalized diagonalization requested                          F
 GLOBAL| Orthonormality check for eigenvectors                          DISABLED
 GLOBAL| Matrix multiplication library                                 ScaLAPACK
 GLOBAL| All-to-all communication in single precision                          F
 GLOBAL| FFTs using library dependent lengths                                  F
 GLOBAL| Grid backend                                                       AUTO
 GLOBAL| Global print level                                                  LOW
 GLOBAL| MPI I/O enabled                                                       T
 GLOBAL| Total number of message passing processes                             1
 GLOBAL| Number of distributed systems (nodes)                                 1
 GLOBAL| Number of threads for this process                                    1
 GLOBAL| This output is from process                                           0
 GLOBAL| OpenMP stack size per thread (OMP_STACKSIZE)                    default
 GLOBAL| CPU model name                                                  UNKNOWN
 GLOBAL| CPUID                                                              2200
 GLOBAL| Compiled for CPUID                                                 2000

 *** HINT in environment.F:970 :: The compiler target flags (arm_arch64)   ***
 *** used to build this binary cannot exploit all extensions of this CPU   ***
 *** model (arm_sve256). Consider compiler target flags as part of FCFLAGS ***
 *** and CFLAGS (ARCH file).                                               ***


 MEMORY| system memory details [Kb]
 MEMORY|                        rank 0           min           max       average
 MEMORY| MemTotal            125508532     125508532     125508532     125508532
 MEMORY| MemFree             106207300     106207300     106207300     106207300
 MEMORY| Buffers                866496        866496        866496        866496
 MEMORY| Cached               13218536      13218536      13218536      13218536
 MEMORY| Slab                  1565048       1565048       1565048       1565048
 MEMORY| SReclaimable           889004        889004        889004        889004
 MEMORY| MemLikelyFree       121181336     121181336     121181336     121181336


 GENERATE|  Preliminary Number of Bonds generated:                             0
 GENERATE|  Achieved consistency in connectivity generation.


                  #####   #####        #     #   #     #       #          
                 #     # #     #      #    ##### #     #   # #####  ####  
                 #     # #           #       #   ###   #       #   #    # 
                 #     #  #####     #        #   #  #  #   #   #   ###### 
                 #   # #       #   #         #   #   # #   #   #   #      
                 #    #  #     #  #          #   #  #  # # #   #    #   # 
                  #### #  #####  #           #   ###   ##  #   #     ###  

                                   GFN2-xTB  
                                 Version 0.0                       
                            Johann V. Pototschnig                  



 TOTAL NUMBERS AND MAXIMUM NUMBERS

  Total number of            - Atomic kinds:                                   3
                             - Atoms:                                         12
                             - Shell sets:                                    18
                             - Shells:                                        18
                             - Primitive Cartesian functions:                 66
                             - Cartesian basis functions:                     30
                             - Spherical basis functions:                     30

  Maximum angular momentum of the orbital basis functions:                     1


 SCF PARAMETERS         Density guess:                                     MOPAC
                        --------------------------------------------------------
                        max_scf:                                             300
                        max_scf_history:                                       0
                        max_diis:                                              4
                        --------------------------------------------------------
                        eps_scf:                                        1.00E-09
                        eps_scf_history:                                0.00E+00
                        eps_diis:                                       1.00E-01
                        eps_eigval:                                     1.00E-05
                        --------------------------------------------------------
                        level_shift [a.u.]:                             0.000000
                        added MOs                                        12    0
                        --------------------------------------------------------
                        Mixing method:                           DIRECT_P_MIXING
                        --------------------------------------------------------
                        Smear method:                                FERMI_DIRAC
                        Electronic temperature [K]:                        300.0
                        Electronic temperature [a.u.]:                  9.50E-04
                        Accuracy threshold:                             1.00E-06
                        --------------------------------------------------------
                        No outer SCF

 BFGS| Use rational function optimization for step estimation:                NO
 BFGS| Use model Hessian for initial guess:                                  YES
 BFGS| Restart Hessian:                                                       NO
 BFGS| Trust radius:                                                       0.472

 *******************************************************************************
 ***                     STARTING GEOMETRY OPTIMIZATION                      ***
 ***                                   BFGS                                  ***
 *******************************************************************************

 Extrapolation method: initial_guess

 Number of electrons:                                                         36
 Number of occupied orbitals:                                                 18
 Number of molecular orbitals:                                                30

 Number of orbital functions:                                                 30
 Number of independent orbital functions:                                     30


 SCF WAVEFUNCTION OPTIMIZATION

  Step     Update method      Time    Convergence         Total energy    Change
  ------------------------------------------------------------------------------
     1 TBLite/Diag 0.40E+00    0.0     0.62648534       -21.4863177663 -2.15E+01
     2 TBLite/Diag 0.40E+00    0.0     0.17547378       -21.6701889804 -1.84E-01
     3 TBLite/Diag 0.40E+00    0.0     0.04871700       -21.6772494103 -7.06E-03
     4 TBLite/Diag 0.40E+00    0.0     0.01115385       -21.6775935740 -3.44E-04
     5 TBLite/Diag 0.40E+00    0.0     0.00764155       -21.6776942267 -1.01E-04
     6 TBLite/Diag 0.40E+00    0.0     0.00251826       -21.6777061821 -1.20E-05
     7 TBLite/Diag 0.40E+00    0.0     0.00116010       -21.6777094348 -3.25E-06
     8 TBLite/Diag 0.40E+00    0.0     0.00037300       -21.6777101603 -7.25E-07
     9 TBLite/Diag 0.40E+00    0.0     0.00003078       -21.6777101628 -2.45E-09
    10 TBLite/Diag 0.40E+00    0.0     0.00000636       -21.6777101629 -1.56E-10
    11 TBLite/Diag 0.40E+00    0.0     0.00000095       -21.6777101629 -4.97E-12
    12 TBLite/Diag 0.40E+00    0.0     0.00000005       -21.6777101629 -1.42E-14
    13 TBLite/Diag 0.40E+00    0.0     0.00000002       -21.6777101629  7.11E-15
    14 TBLite/Diag 0.40E+00    0.0     1.1838E-09       -21.6777101629  0.00E+00
    15 TBLite/Diag 0.40E+00    0.0     1.2959E-09       -21.6777101629 -1.42E-14
    16 TBLite/Diag 0.40E+00    0.0     1.8080E-10       -21.6777101629  3.55E-15

  *** SCF run converged in    16 steps ***


  Core Hamiltonian energy:                                    -21.86243720567166
  Repulsive potential energy:                                   0.13751340077854
  Electrostatic energy:                                         0.05367421955406
  Self-consistent dispersion energy:                           -0.00646539297754
  Non-self consistent dispersion energy:                        0.00000481540332
  Correction for halogen bonding:                               0.00000000000000
  Electronic entropic energy:                                  -0.00000000000000
  Fermi energy:                                                -0.03337752983394

  Total energy:                                               -21.67771016291328
  Total energy (extrapolated to T->0):                        -21.67771016291328

 ENERGY| Total FORCE_EVAL ( QS ) energy [hartree]            -21.677710162913282

 OPT| **************************************************************************
 OPT| Step number                                                              0
 OPT| Optimization method                                                   BFGS
 OPT| Total energy [hartree]                                      -21.6777101629
 OPT| Used time [s]                                                        0.018
 OPT| **************************************************************************
 OPT| Estimated peak process memory [MiB]                                    163

 --------------------------
 OPTIMIZATION STEP:      1
 --------------------------

 Extrapolation method: ASPC

 Number of electrons:                                                         36
 Number of occupied orbitals:                                                 18
 Number of molecular orbitals:                                                30

 Number of orbital functions:                                                 30
 Number of independent orbital functions:                                     30


 SCF WAVEFUNCTION OPTIMIZATION

  Step     Update method      Time    Convergence         Total energy    Change
  ------------------------------------------------------------------------------
     1 TBLite/Diag 0.40E+00    0.0     0.01396898       -21.6783042819 -2.17E+01
     2 TBLite/Diag 0.40E+00    0.0     0.00184704       -21.6783134465 -9.16E-06
     3 TBLite/Diag 0.40E+00    0.0     0.00095156       -21.6783143351 -8.89E-07
     4 TBLite/Diag 0.40E+00    0.0     0.00021353       -21.6783144743 -1.39E-07
     5 TBLite/Diag 0.40E+00    0.0     0.00010560       -21.6783144965 -2.21E-08
     6 TBLite/Diag 0.40E+00    0.0     0.00000524       -21.6783144965 -7.57E-11
     7 TBLite/Diag 0.40E+00    0.0     0.00000115       -21.6783144965 -2.98E-12
     8 TBLite/Diag 0.40E+00    0.0     0.00000038       -21.6783144965 -1.88E-13
     9 TBLite/Diag 0.40E+00    0.0     0.00000007       -21.6783144965 -2.13E-14
    10 TBLite/Diag 0.40E+00    0.0     7.9169E-09       -21.6783144965  7.11E-15
    11 TBLite/Diag 0.40E+00    0.0     1.8895E-09       -21.6783144965 -1.42E-14
    12 TBLite/Diag 0.40E+00    0.0     6.4330E-10       -21.6783144965  3.55E-15

  *** SCF run converged in    12 steps ***


  Core Hamiltonian energy:                                    -21.86380025470356
  Repulsive potential energy:                                   0.13960742837326
  Electrostatic energy:                                         0.05235507746285
  Self-consistent dispersion energy:                           -0.00648145528888
  Non-self consistent dispersion energy:                        0.00000470761315
  Correction for halogen bonding:                               0.00000000000000
  Electronic entropic energy:                                  -0.00000000000000
  Fermi energy:                                                -0.02141907329418

  Total energy:                                               -21.67831449654317
  Total energy (extrapolated to T->0):                        -21.67831449654317

 ENERGY| Total FORCE_EVAL ( QS ) energy [hartree]            -21.678314496543170

 OPT| **************************************************************************
 OPT| Step number                                                              1
 OPT| Optimization method                                                   BFGS
 OPT| Total energy [hartree]                                      -21.6783144965
 OPT| Effective energy change [hartree]                            -0.0006043336
 OPT| Predicted energy change [hartree]                            -0.0005058971
 OPT| Scaling factor                                                0.0000000000
 OPT| Step size                                                     0.0186636394
 OPT| Trust radius                                                  0.4724315332
 OPT| Decrease in energy                                                     YES
 OPT| Used time [s]                                                        0.014
 OPT|
 OPT| Maximum step size                                             0.0186636394
 OPT| Convergence limit for maximum step size                       0.0030000000
 OPT| Maximum step size is converged                                          NO
 OPT|
 OPT| RMS step size                                                 0.0094431951
 OPT| Convergence limit for RMS step size                           0.0015000000
 OPT| RMS step size is converged                                              NO
 OPT|
 OPT| Maximum gradient                                              0.0065066269
 OPT| Convergence limit for maximum gradient                        0.0004500000
 OPT| Maximum gradient is converged                                           NO
 OPT|
 OPT| RMS gradient                                                  0.0026510536
 OPT| Convergence limit for RMS gradient                            0.0003000000
 OPT| RMS gradient is converged                                               NO
 OPT| **************************************************************************
 OPT| Estimated peak process memory after this step [MiB]                    163

 --------------------------
 OPTIMIZATION STEP:      2
 --------------------------

 Extrapolation method: ASPC

 Number of electrons:                                                         36
 Number of occupied orbitals:                                                 18
 Number of molecular orbitals:                                                30

 Number of orbital functions:                                                 30
 Number of independent orbital functions:                                     30


 SCF WAVEFUNCTION OPTIMIZATION

  Step     Update method      Time    Convergence         Total energy    Change
  ------------------------------------------------------------------------------
     1 TBLite/Diag 0.40E+00    0.0     0.02086254       -21.6784645513 -2.17E+01
     2 TBLite/Diag 0.40E+00    0.0     0.00266354       -21.6784903928 -2.58E-05
     3 TBLite/Diag 0.40E+00    0.0     0.00062982       -21.6784914052 -1.01E-06
     4 TBLite/Diag 0.40E+00    0.0     0.00031344       -21.6784916400 -2.35E-07
     5 TBLite/Diag 0.40E+00    0.0     0.00014801       -21.6784916753 -3.52E-08
     6 TBLite/Diag 0.40E+00    0.0     0.00001392       -21.6784916755 -2.72E-10
     7 TBLite/Diag 0.40E+00    0.0     0.00000160       -21.6784916755 -6.15E-12
     8 TBLite/Diag 0.40E+00    0.0     0.00000083       -21.6784916755 -1.10E-12
     9 TBLite/Diag 0.40E+00    0.0     0.00000006       -21.6784916755  0.00E+00
    10 TBLite/Diag 0.40E+00    0.0     0.00000001       -21.6784916755 -1.07E-14
    11 TBLite/Diag 0.40E+00    0.0     2.8228E-09       -21.6784916755  2.13E-14
    12 TBLite/Diag 0.40E+00    0.0     8.2517E-10       -21.6784916755 -1.78E-14

  *** SCF run converged in    12 steps ***


  Core Hamiltonian energy:                                    -21.86515983890054
  Repulsive potential energy:                                   0.14212698195644
  Electrostatic energy:                                         0.05104692142538
  Self-consistent dispersion energy:                           -0.00651035997727
  Non-self consistent dispersion energy:                        0.00000461995784
  Correction for halogen bonding:                               0.00000000000000
  Electronic entropic energy:                                  -0.00000000000000
  Fermi energy:                                                -0.01128543408139

  Total energy:                                               -21.67849167553816
  Total energy (extrapolated to T->0):                        -21.67849167553816

 ENERGY| Total FORCE_EVAL ( QS ) energy [hartree]            -21.678491675538158

 OPT| **************************************************************************
 OPT| Step number                                                              2
 OPT| Optimization method                                                   BFGS
 OPT| Total energy [hartree]                                      -21.6784916755
 OPT| Effective energy change [hartree]                            -0.0001771790
 OPT| Predicted energy change [hartree]                            -0.0004418496
 OPT| Scaling factor                                                0.0000000000
 OPT| Step size                                                     0.0273700919
 OPT| Trust radius                                                  0.4724315332
 OPT| Decrease in energy                                                     YES
 OPT| Used time [s]                                                        0.015
 OPT|
 OPT| Maximum step size                                             0.0273700919
 OPT| Convergence limit for maximum step size                       0.0030000000
 OPT| Maximum step size is converged                                          NO
 OPT|
 OPT| RMS step size                                                 0.0113219308
 OPT| Convergence limit for RMS step size                           0.0015000000
 OPT| RMS step size is converged                                              NO
 OPT|
 OPT| Maximum gradient                                              0.0046871564
 OPT| Convergence limit for maximum gradient                        0.0004500000
 OPT| Maximum gradient is converged                                           NO
 OPT|
 OPT| RMS gradient                                                  0.0017286141
 OPT| Convergence limit for RMS gradient                            0.0003000000
 OPT| RMS gradient is converged                                               NO
 OPT| **************************************************************************
 OPT| Estimated peak process memory after this step [MiB]                    163

 --------------------------
 OPTIMIZATION STEP:      3
 --------------------------

 Extrapolation method: ASPC

 Number of electrons:                                                         36
 Number of occupied orbitals:                                                 18
 Number of molecular orbitals:                                                30

 Number of orbital functions:                                                 30
 Number of independent orbital functions:                                     30


 SCF WAVEFUNCTION OPTIMIZATION

  Step     Update method      Time    Convergence         Total energy    Change
  ------------------------------------------------------------------------------
     1 TBLite/Diag 0.40E+00    0.0     0.00826668       -21.6785953954 -2.17E+01
     2 TBLite/Diag 0.40E+00    0.0     0.00088028       -21.6785993636 -3.97E-06
     3 TBLite/Diag 0.40E+00    0.0     0.00024403       -21.6785994895 -1.26E-07
     4 TBLite/Diag 0.40E+00    0.0     0.00010282       -21.6785995533 -6.37E-08
     5 TBLite/Diag 0.40E+00    0.0     0.00003434       -21.6785995546 -1.37E-09
     6 TBLite/Diag 0.40E+00    0.0     0.00000297       -21.6785995547 -2.73E-11
     7 TBLite/Diag 0.40E+00    0.0     0.00000059       -21.6785995547 -1.25E-12
     8 TBLite/Diag 0.40E+00    0.0     0.00000029       -21.6785995547 -1.14E-13
     9 TBLite/Diag 0.40E+00    0.0     0.00000004       -21.6785995547  1.07E-14
    10 TBLite/Diag 0.40E+00    0.0     3.0181E-09       -21.6785995547  0.00E+00
    11 TBLite/Diag 0.40E+00    0.0     8.3492E-10       -21.6785995547  0.00E+00

  *** SCF run converged in    11 steps ***


  Core Hamiltonian energy:                                    -21.86423114794896
  Repulsive potential energy:                                   0.14068067029943
  Electrostatic energy:                                         0.05144704738741
  Self-consistent dispersion energy:                           -0.00650076938265
  Non-self consistent dispersion energy:                        0.00000464496751
  Correction for halogen bonding:                               0.00000000000000
  Electronic entropic energy:                                  -0.00000000000000
  Fermi energy:                                                -0.01342390271547

  Total energy:                                               -21.67859955467725
  Total energy (extrapolated to T->0):                        -21.67859955467725

 ENERGY| Total FORCE_EVAL ( QS ) energy [hartree]            -21.678599554677252

 OPT| **************************************************************************
 OPT| Step number                                                              3
 OPT| Optimization method                                                   BFGS
 OPT| Total energy [hartree]                                      -21.6785995547
 OPT| Effective energy change [hartree]                            -0.0001078791
 OPT| Predicted energy change [hartree]                            -0.0001155235
 OPT| Scaling factor                                                0.0000000000
 OPT| Step size                                                     0.0104572029
 OPT| Trust radius                                                  0.4724315332
 OPT| Decrease in energy                                                     YES
 OPT| Used time [s]                                                        0.014
 OPT|
 OPT| Maximum step size                                             0.0104572029
 OPT| Convergence limit for maximum step size                       0.0030000000
 OPT| Maximum step size is converged                                          NO
 OPT|
 OPT| RMS step size                                                 0.0040159549
 OPT| Convergence limit for RMS step size                           0.0015000000
 OPT| RMS step size is converged                                              NO
 OPT|
 OPT| Maximum gradient                                              0.0009838451
 OPT| Convergence limit for maximum gradient                        0.0004500000
 OPT| Maximum gradient is converged                                           NO
 OPT|
 OPT| RMS gradient                                                  0.0003418245
 OPT| Convergence limit for RMS gradient                            0.0003000000
 OPT| RMS gradient is converged                                               NO
 OPT| **************************************************************************
 OPT| Estimated peak process memory after this step [MiB]                    163

 --------------------------
 OPTIMIZATION STEP:      4
 --------------------------

 Extrapolation method: ASPC

 Number of electrons:                                                         36
 Number of occupied orbitals:                                                 18
 Number of molecular orbitals:                                                30

 Number of orbital functions:                                                 30
 Number of independent orbital functions:                                     30


 SCF WAVEFUNCTION OPTIMIZATION

  Step     Update method      Time    Convergence         Total energy    Change
  ------------------------------------------------------------------------------
     1 TBLite/Diag 0.40E+00    0.0     0.00356298       -21.6785996582 -2.17E+01
     2 TBLite/Diag 0.40E+00    0.0     0.00008695       -21.6785997067 -4.85E-08
     3 TBLite/Diag 0.40E+00    0.0     0.00008538       -21.6785997095 -2.86E-09
     4 TBLite/Diag 0.40E+00    0.0     0.00002327       -21.6785997119 -2.35E-09
     5 TBLite/Diag 0.40E+00    0.0     0.00000850       -21.6785997120 -9.76E-11
     6 TBLite/Diag 0.40E+00    0.0     0.00000096       -21.6785997120 -1.44E-12
     7 TBLite/Diag 0.40E+00    0.0     0.00000037       -21.6785997120 -1.49E-13
     8 TBLite/Diag 0.40E+00    0.0     0.00000002       -21.6785997120 -1.42E-14
     9 TBLite/Diag 0.40E+00    0.0     5.7424E-09       -21.6785997120  1.07E-14
    10 TBLite/Diag 0.40E+00    0.0     2.5428E-09       -21.6785997120 -1.78E-14
    11 TBLite/Diag 0.40E+00    0.0     6.9995E-10       -21.6785997120  7.11E-15

  *** SCF run converged in    11 steps ***


  Core Hamiltonian energy:                                    -21.86403172947039
  Repulsive potential energy:                                   0.14044340548192
  Electrostatic energy:                                         0.05148402356836
  Self-consistent dispersion energy:                           -0.00650006760587
  Non-self consistent dispersion energy:                        0.00000465605972
  Correction for halogen bonding:                               0.00000000000000
  Electronic entropic energy:                                  -0.00000000000000
  Fermi energy:                                                -0.01460274944676

  Total energy:                                               -21.67859971196627
  Total energy (extrapolated to T->0):                        -21.67859971196627

 ENERGY| Total FORCE_EVAL ( QS ) energy [hartree]            -21.678599711966267

 OPT| **************************************************************************
 OPT| Step number                                                              4
 OPT| Optimization method                                                   BFGS
 OPT| Total energy [hartree]                                      -21.6785997120
 OPT| Effective energy change [hartree]                            -0.0000001573
 OPT| Predicted energy change [hartree]                            -0.0000083200
 OPT| Scaling factor                                                0.0000000000
 OPT| Step size                                                     0.0047510458
 OPT| Trust radius                                                  0.4724315332
 OPT| Decrease in energy                                                     YES
 OPT| Used time [s]                                                        0.014
 OPT|
 OPT| Maximum step size                                             0.0047510458
 OPT| Convergence limit for maximum step size                       0.0030000000
 OPT| Maximum step size is converged                                          NO
 OPT|
 OPT| RMS step size                                                 0.0020245431
 OPT| Convergence limit for RMS step size                           0.0015000000
 OPT| RMS step size is converged                                              NO
 OPT|
 OPT| Maximum gradient                                              0.0005802030
 OPT| Convergence limit for maximum gradient                        0.0004500000
 OPT| Maximum gradient is converged                                           NO
 OPT|
 OPT| RMS gradient                                                  0.0002499746
 OPT| Convergence limit for RMS gradient                            0.0003000000
 OPT| RMS gradient is converged                                              YES
 OPT| **************************************************************************
 OPT| Estimated peak process memory after this step [MiB]                    163

 --------------------------
 OPTIMIZATION STEP:      5
 --------------------------

 Extrapolation method: ASPC

 Number of electrons:                                                         36
 Number of occupied orbitals:                                                 18
 Number of molecular orbitals:                                                30

 Number of orbital functions:                                                 30
 Number of independent orbital functions:                                     30


 SCF WAVEFUNCTION OPTIMIZATION

  Step     Update method      Time    Convergence         Total energy    Change
  ------------------------------------------------------------------------------
     1 TBLite/Diag 0.40E+00    0.0     0.00187035       -21.6786043079 -2.17E+01
     2 TBLite/Diag 0.40E+00    0.0     0.00003762       -21.6786043153 -7.42E-09
     3 TBLite/Diag 0.40E+00    0.0     0.00003016       -21.6786043166 -1.23E-09
     4 TBLite/Diag 0.40E+00    0.0     0.00000818       -21.6786043168 -2.77E-10
     5 TBLite/Diag 0.40E+00    0.0     0.00000125       -21.6786043168 -1.94E-12
     6 TBLite/Diag 0.40E+00    0.0     0.00000054       -21.6786043168 -5.29E-13
     7 TBLite/Diag 0.40E+00    0.0     0.00000017       -21.6786043168 -3.55E-14
     8 TBLite/Diag 0.40E+00    0.0     5.2772E-09       -21.6786043168  1.42E-14
     9 TBLite/Diag 0.40E+00    0.0     1.3467E-09       -21.6786043168 -1.42E-14
    10 TBLite/Diag 0.40E+00    0.0     1.0446E-09       -21.6786043168  3.55E-15
    11 TBLite/Diag 0.40E+00    0.0     1.2576E-10       -21.6786043168  3.55E-15

  *** SCF run converged in    11 steps ***


  Core Hamiltonian energy:                                    -21.86403191588028
  Repulsive potential energy:                                   0.14047819632798
  Electrostatic energy:                                         0.05144568201959
  Self-consistent dispersion energy:                           -0.00650093045316
  Non-self consistent dispersion energy:                        0.00000465115472
  Correction for halogen bonding:                               0.00000000000000
  Electronic entropic energy:                                  -0.00000000000000
  Fermi energy:                                                -0.01391939968226

  Total energy:                                               -21.67860431683115
  Total energy (extrapolated to T->0):                        -21.67860431683115

 ENERGY| Total FORCE_EVAL ( QS ) energy [hartree]            -21.678604316831148

 OPT| **************************************************************************
 OPT| Step number                                                              5
 OPT| Optimization method                                                   BFGS
 OPT| Total energy [hartree]                                      -21.6786043168
 OPT| Effective energy change [hartree]                            -0.0000046049
 OPT| Predicted energy change [hartree]                            -0.0000044913
 OPT| Scaling factor                                                0.0000000000
 OPT| Step size                                                     0.0025848743
 OPT| Trust radius                                                  0.4724315332
 OPT| Decrease in energy                                                     YES
 OPT| Used time [s]                                                        0.014
 OPT|
 OPT| Maximum step size                                             0.0025848743
 OPT| Convergence limit for maximum step size                       0.0030000000
 OPT| Maximum step size is converged                                         YES
 OPT|
 OPT| RMS step size                                                 0.0010902739
 OPT| Convergence limit for RMS step size                           0.0015000000
 OPT| RMS step size is converged                                             YES
 OPT|
 OPT| Maximum gradient                                              0.0000971474
 OPT| Convergence limit for maximum gradient                        0.0004500000
 OPT| Maximum gradient is converged                                          YES
 OPT|
 OPT| RMS gradient                                                  0.0000406211
 OPT| Convergence limit for RMS gradient                            0.0003000000
 OPT| RMS gradient is converged                                              YES
 OPT| **************************************************************************
 OPT| Estimated peak process memory after this step [MiB]                    163

 *******************************************************************************
 ***                    GEOMETRY OPTIMIZATION COMPLETED                      ***
 *******************************************************************************

 write_final_structure: Optimization converged, writing XYZ file gladly:
  trioxane_GFN2_mol_geoopt-FINAL-1_5.xyz

 write_final_structure: Optimization converged, writing CIF file gladly:
  trioxane_GFN2_mol_geoopt-FINAL-1_5.cif

 write_final_structure: Done!

                    Reevaluating energy at the minimum

 Extrapolation method: ASPC

 Number of electrons:                                                         36
 Number of occupied orbitals:                                                 18
 Number of molecular orbitals:                                                30

 Number of orbital functions:                                                 30
 Number of independent orbital functions:                                     30


 SCF WAVEFUNCTION OPTIMIZATION

  Step     Update method      Time    Convergence         Total energy    Change
  ------------------------------------------------------------------------------
     1 TBLite/Diag 0.40E+00    0.0     3.7232E-11       -21.6786043168 -2.17E+01

  *** SCF run converged in     1 steps ***


  Core Hamiltonian energy:                                    -21.86403191587236
  Repulsive potential energy:                                   0.14047819632798
  Electrostatic energy:                                         0.05144568201173
  Self-consistent dispersion energy:                           -0.00650093045321
  Non-self consistent dispersion energy:                        0.00000465115472
  Correction for halogen bonding:                               0.00000000000000
  Electronic entropic energy:                                  -0.00000000000000
  Fermi energy:                                                -0.01391939968661

  Total energy:                                               -21.67860431683115
  Total energy (extrapolated to T->0):                        -21.67860431683115

 ENERGY| Total FORCE_EVAL ( QS ) energy [hartree]            -21.678604316831152

 -------------------------------------------------------------------------------
 -                                                                             -
 -                                DBCSR STATISTICS                             -
 -                                                                             -
 -------------------------------------------------------------------------------
 COUNTER                                    TOTAL       BLAS       SMM       ACC
 flops     1 x    30 x     1                43200       0.0%    100.0%      0.0%     
 flops     1 x     1 x    30               108360       0.0%    100.0%      0.0%     
 flops     4 x    30 x     1               172800       0.0%    100.0%      0.0%     
 flops     1 x    30 x     4               172800       0.0%    100.0%      0.0%     
 flops     4 x     1 x    30               371520       0.0%    100.0%      0.0%     
 flops     1 x     4 x    30               371520       0.0%    100.0%      0.0%     
 flops     4 x    30 x     4               691200       0.0%    100.0%      0.0%     
 flops     4 x     4 x    30              1733760       0.0%    100.0%      0.0%     
 flops inhomo. stacks                           0       0.0%      0.0%      0.0%
 flops total                         3.665160E+06       0.0%    100.0%      0.0%
 flops max/rank                      3.665160E+06       0.0%    100.0%      0.0%
 matmuls inhomo. stacks                         0       0.0%      0.0%      0.0%
 matmuls total                               9588       0.0%    100.0%      0.0%
 number of processed stacks                   424       0.0%    100.0%      0.0%
 average stack size                                     0.0      22.6       0.0
 marketing flops                     3.866400E+06
 -------------------------------------------------------------------------------
 # multiplications                            106
 max memory usage/rank              13.670351E+09
 # max total images/rank                        1
 # max 3D layers                                1
 # MPI messages exchanged                       0
 -------------------------------------------------------------------------------
 -                                                                             -
 -                      DBCSR MESSAGE PASSING PERFORMANCE                      -
 -                                                                             -
 -------------------------------------------------------------------------------
 ROUTINE             CALLS      AVE VOLUME [Bytes]
 MP_Bcast                9                     12.
 MP_Allreduce          525                      9.
 MP_Alltoall          3572                   5362.
 MP_ISend              424                    489.
 MP_IRecv              424                    489.
 -------------------------------------------------------------------------------

 -------------------------------------------------------------------------------
 -                                                                             -
 -                          OFFLOAD MEMPOOL STATISTICS                         -
 -                                                                             -
 -------------------------------------------------------------------------------
 Memory consumption                Number of allocations  Used [MiB]  Size [MiB]
 Device                                                1           0           0
 Host                                                  1           0           0
 -------------------------------------------------------------------------------

 MEMORY| Estimated peak process memory [MiB]                                 163

 -------------------------------------------------------------------------------
 -                                                                             -
 -                         MESSAGE PASSING PERFORMANCE                         -
 -                                                                             -
 -------------------------------------------------------------------------------

 ROUTINE             CALLS      AVE VOLUME [Bytes]
 MP_Group                1
 MP_Bcast              165                    129.
 MP_Allreduce         2619                     92.
 MP_Sync                87
 MP_comm_split          86
 -------------------------------------------------------------------------------


 -------------------------------------------------------------------------------
 -                                                                             -
 -                           R E F E R E N C E S                               -
 -                                                                             -
 -------------------------------------------------------------------------------
 
 CP2K version 2026.1 (Development Version), the CP2K developers group (2026).
 CP2K is freely available from https://www.cp2k.org/ .
 
 M. Iannuzzi, J. Wilhelm, F. Stein, A. Bussy, H. Elgabarty, D. Golze, A. Hehn, 
 M. Graml, S. Marek, B. Sertcan Gökmen, C. Schran, H. Forbert, R. Z. 
 Khaliullin, A. Kozhevnikov, M. Taillefumier, R. Meli, V. V. Rybkin, M. Brehm, 
 R. Schade, O. Schütt, J. V. Pototschnig, H. Mirhosseini, A. Knüpfer, D. Marx, 
 M. Krack, J. Hutter, T. D. Kühne.
 J. Phys. Chem. B 130, 1237-1310 (2026).
 The CP2K Program Package Made Simple.
 https://doi.org/10.1021/acs.jpcb.5c05851

 A. Katbashev, M. Stahn, T. Rose, V. Alizadeh, M. Friede, C. Plett, P. 
 Steinbach, S. Ehlert.
 J. Phys. Chem. A 129, 2667-2682 (2025).
 Overview on Building Blocks and Applications of Efficient and Robust Extended 
 Tight Binding.
 https://doi.org/10.1021/acs.jpca.4c08263

 T. D. Kühne, M. Iannuzzi, M. Del Ben, V. V. Rybkin, P. Seewald, F. Stein, T. 
 Laino, R. Z. Khaliullin, O. Schütt, F. Schiffmann, D. Golze, J. Wilhelm, S. 
 Chulkov, M. H. Bani-Hashemian, V. Weber, U. Borstnik, M. Taillefumier, A. S. 
 Jakobovits, A. Lazzaro, H. Pabst, T. Müller, R. Schade, M. Guidon, S. 
 Andermatt, N. Holmberg, G. K. Schenter, A. Hehn, A. Bussy, F. Belleflamme, G. 
 Tabacchi, A. Glöß, M. Lass, I. Bethune, C. J. Mundy, C. Plessl, M. Watkins, 
 J. VandeVondele, M. Krack, J. Hutter.
 J. Chem. Phys. 152, 194103 (2020).
 CP2K: An electronic structure and molecular dynamics software package - 
 Quickstep: Efficient and accurate electronic structure calculations.
 https://doi.org/10.1063/5.0007045

 P. Pracht, E. Caldeweyher, S. Ehlert, S. Grimme.
 ChemRxiv, (2019).
 A Robust Non-Self-Consistent Tight-Binding Quantum Chemistry Method for large 
 Molecules.
 https://doi.org/10.26434/chemrxiv.8326202.v1

 S. Grimme, C. Bannwarth, P. Shushkov.
 J. Chem. Theory Comput. 13, 1989 (2017).
 A Robust and Accurate Tight-Binding Quantum Chemical Method for Structures, 
 Vibrational Frequencies, and Noncovalent Interactions of Large Molecular 
 Systems Parametrized for All spd-Block Elements (Z = 1-86).
 https://doi.org/10.1021/acs.jctc.7b00118

 O. Schuett, P. Messmer, J. Hutter, J. VandeVondele.
 Electronic Structure Calculations on Graphics Processing Units, 173-190 (2016).
 GPU-Accelerated Sparse Matrix-Matrix Multiplication for Linear Scaling Density 
 Functional Theory.
 https://doi.org/10.1002/9781118670712.ch8

 A. Heinecke, G. Henry, M. Hutchinson, H. Pabst.
 Proceedings of Intl. Supercomputing Conference, 981-991 (2016).
 LIBXSMM: Accelerating Small Matrix Multiplications by Runtime Code Generation.
 https://doi.org/10.1109/SC.2016.83

 U. Borstnik, J. VandeVondele, V. Weber, J. Hutter.
 Parallel Comput. 40, 47-58 (2014).
 Sparse matrix multiplication: The distributed block-compressed sparse row 
 library.
 https://doi.org/10.1016/j.parco.2014.03.012

 T. D. Kühne, M. Krack, F. R. Mohamed, M. Parrinello.
 Phys. Rev. Lett. 98, 066401 (2007).
 Efficient and accurate Car-Parrinello-like approach to Born-Oppenheimer 
 molecular dynamics.
 https://doi.org/10.1103/PhysRevLett.98.066401

 M. Frigo, S. G. Johnson.
 Proc. IEEE 93, 216-231 (2005).
 The design and implementation of FFTW3.
 https://doi.org/10.1109/JPROC.2004.840301

 J. Kolafa.
 J. Comput. Chem. 25, 335-342 (2004).
 Time-reversible always stable predictor-corrector method for molecular dynamics 
 of polarizable molecules.
 https://doi.org/10.1002/jcc.10385

 N. D. Mermin.
 Phys. Rev. 137, A1441-A1443 (1965).
 Thermal Properties of the Inhomogeneous Electron Gas.
 https://doi.org/10.1103/PhysRev.137.A1441


 -------------------------------------------------------------------------------
 -                                                                             -
 -                                T I M I N G                                  -
 -                                                                             -
 -------------------------------------------------------------------------------
 SUBROUTINE                       CALLS  ASD         SELF TIME        TOTAL TIME
                                MAXIMUM       AVERAGE  MAXIMUM  AVERAGE  MAXIMUM
 CP2K                                 1  1.0    0.002    0.002    0.107    0.107
 cp_geo_opt                           1  2.0    0.000    0.000    0.102    0.102
 geoopt_bfgs                          1  3.0    0.001    0.001    0.102    0.102
 cp_eval_at                           7  4.0    0.000    0.000    0.098    0.098
 qs_energies                          7  5.9    0.000    0.000    0.089    0.089
 qs_forces                            6  5.0    0.000    0.000    0.086    0.086
 scf_env_do_scf                       7  6.9    0.000    0.000    0.072    0.072
 scf_env_do_scf_inner_loop           74  8.0    0.014    0.014    0.072    0.072
 qs_scf_new_mos                      74  9.0    0.000    0.000    0.043    0.043
 cp_dbcsr_plus_fm_fm_t               86 10.8    0.000    0.000    0.022    0.022
 calculate_dm_sparse                 80 10.0    0.000    0.000    0.021    0.021
 dbcsr_multiply_generic             106 11.9    0.001    0.001    0.019    0.019
 rebuild_ks_matrix                   80  9.8    0.000    0.000    0.015    0.015
 build_tblite_ks_matrix              80 10.8    0.014    0.014    0.015    0.015
 copy_dbcsr_to_fm                   168 10.5    0.000    0.000    0.013    0.013
 qs_ks_update_qs_env                 74  9.0    0.000    0.000    0.012    0.012
 dbcsr_complete_redistribute        360 12.2    0.006    0.006    0.011    0.011
 make_m2s                           212 12.9    0.001    0.001    0.011    0.011
 build_tblite_matrices               13  7.0    0.004    0.004    0.009    0.009
 eigensolver                         74 10.0    0.001    0.001    0.009    0.009
 cp_fm_syevd                         86 10.6    0.000    0.000    0.009    0.009
 init_scf_run                         7  6.9    0.000    0.000    0.009    0.009
 scf_env_initial_rho_setup            7  7.9    0.000    0.000    0.008    0.008
 wfi_extrapolate                      7  8.9    0.000    0.000    0.007    0.007
 qs_diis_b_step                      67 10.0    0.000    0.000    0.007    0.007
 cp_fm_syevd_base                    86 11.6    0.006    0.006    0.006    0.006
 copy_fm_to_dbcsr                   192 11.8    0.000    0.000    0.006    0.006
 qs_energies_init_hamiltonians        7  6.9    0.000    0.000    0.006    0.006
 tb_get_multipole                    13  8.0    0.003    0.003    0.005    0.005
 make_images                        212 13.9    0.001    0.001    0.005    0.005
 cp_dbcsr_sm_fm_multiply             20 10.3    0.000    0.000    0.004    0.004
 dbcsr_finalize                    2026 12.1    0.001    0.001    0.004    0.004
 multiply_cannon                    106 12.9    0.002    0.002    0.004    0.004
 qs_ks_update_qs_env_forces           6  6.0    0.000    0.000    0.004    0.004
 dbcsr_desymmetrize_deep            168 11.5    0.002    0.002    0.003    0.003
 dbcsr_create_new                  2785 13.0    0.002    0.002    0.003    0.003
 dbcsr_crop_matrix                  172 13.8    0.000    0.000    0.003    0.003
 qs_init_subsys                       1  2.0    0.000    0.000    0.003    0.003
 cp_dbcsr_sm_fm_multiply_core        20 11.3    0.000    0.000    0.003    0.003
 reorthogonalize_vectors              6  9.8    0.000    0.000    0.002    0.002
 make_basis_lowdin                    6 10.8    0.000    0.000    0.002    0.002
 dbcsr_copy_submatrix               172 14.8    0.001    0.001    0.002    0.002
 -------------------------------------------------------------------------------

 The number of warnings for this run is : 0
 
 -------------------------------------------------------------------------------
  **** **** ******  **  PROGRAM ENDED AT                 2026-05-23 22:46:21.607
 ***** ** ***  *** **   PROGRAM RAN ON                                spark-c86c
 **    ****   ******    PROGRAM RAN BY                                  kuehne88
 ***** **    ** ** **   PROGRAM PROCESS ID                               2229791
  **** **  *******  **  PROGRAM STOPPED IN /home/kuehne88/periodic-gfn2-benchmar
                                           ks/X23b/runs/molecule_geoopt/GFN2/tri
                                           oxane_GFN2_mol_geoopt
