 DBCSR| CPU Multiplication driver                                           XSMM (U)
 DBCSR| Multrec recursion limit                                              512 (U)
 DBCSR| Multiplication stack size                                           1000 (D)
 DBCSR| Maximum elements for images                                    UNLIMITED (U)
 DBCSR| Multiplicative factor virtual images                                   1 (U)
 DBCSR| Use multiplication densification                                       T (D)
 DBCSR| Multiplication size stacks                                             3 (U)
 DBCSR| Use memory pool for CPU allocation                                     F (U)
 DBCSR| Number of 3D layers                                               SINGLE (U)
 DBCSR| Use MPI memory allocation                                              F (U)
 DBCSR| Use RMA algorithm                                                      F (U)
 DBCSR| Use Communication thread                                               T (U)
 DBCSR| Communication thread load                                             87 (D)
 DBCSR| MPI: My process id                                                     0
 DBCSR| MPI: Number of processes                                               1
 DBCSR| OMP: Current number of threads                                         1
 DBCSR| OMP: Max number of threads                                             1
 DBCSR| Split modifier for TAS multiplication algorithm                  1.0E+00 (U)


  **** **** ******  **  PROGRAM STARTED AT               2026-05-23 22:47:09.117
 ***** ** ***  *** **   PROGRAM STARTED ON                            spark-c86c
 **    ****   ******    PROGRAM STARTED BY                              kuehne88
 ***** **    ** ** **   PROGRAM PROCESS ID                               2267926
  **** **  *******  **  PROGRAM STARTED IN /home/kuehne88/periodic-gfn2-benchmar
                                           ks/X23b/runs/cellopt_gamma/GFN2/adama
                                           ntane_GFN2_gamma_cellopt

 CP2K| version string:                 CP2K version 2026.1 (Development Version)
 CP2K| source code revision number:                                   0622d442e4
 CP2K| cp2kflags: omp fftw3 libxc parallel scalapack mpi_f08 xsmm spglib libdftd
 CP2K|            4 dftd4_v3 mctc-lib tblite
 CP2K| is freely available from                            https://www.cp2k.org/
 CP2K| Program compiled at                                   2026-05-23 22:05:08
 CP2K| Program compiled on                                            spark-c86c
 CP2K| Program compiled for                                              aarch64
 CP2K| Data directory path    /home/kuehne88/cp2k-master-tblite-20260523/install
 CP2K| Input file name                         adamantane_GFN2_gamma_cellopt.inp

 GLOBAL| Force Environment number                                              1
 GLOBAL| Basis set file name                                           BASIS_SET
 GLOBAL| Potential file name                                           POTENTIAL
 GLOBAL| MM Potential file name                                     MM_POTENTIAL
 GLOBAL| Coordinate file name                                      __STD_INPUT__
 GLOBAL| Method name                                                        CP2K
 GLOBAL| Project name                             adamantane_GFN2_gamma_cell_opt
 GLOBAL| Run type                                                       CELL_OPT
 GLOBAL| FFT library                                                       FFTW3
 GLOBAL| Diagonalization library                                       ScaLAPACK
 GLOBAL| Cholesky decomposition library                                ScaLAPACK
 GLOBAL| DGEMM library                                                      BLAS
 GLOBAL| Direct generalized diagonalization requested                          F
 GLOBAL| Orthonormality check for eigenvectors                          DISABLED
 GLOBAL| Matrix multiplication library                                 ScaLAPACK
 GLOBAL| All-to-all communication in single precision                          F
 GLOBAL| FFTs using library dependent lengths                                  F
 GLOBAL| Grid backend                                                       AUTO
 GLOBAL| Global print level                                                  LOW
 GLOBAL| MPI I/O enabled                                                       T
 GLOBAL| Total number of message passing processes                             1
 GLOBAL| Number of distributed systems (nodes)                                 1
 GLOBAL| Number of threads for this process                                    1
 GLOBAL| This output is from process                                           0
 GLOBAL| OpenMP stack size per thread (OMP_STACKSIZE)                    default
 GLOBAL| CPU model name                                                  UNKNOWN
 GLOBAL| CPUID                                                              2200
 GLOBAL| Compiled for CPUID                                                 2000

 *** HINT in environment.F:970 :: The compiler target flags (arm_arch64)   ***
 *** used to build this binary cannot exploit all extensions of this CPU   ***
 *** model (arm_sve256). Consider compiler target flags as part of FCFLAGS ***
 *** and CFLAGS (ARCH file).                                               ***


 MEMORY| system memory details [Kb]
 MEMORY|                        rank 0           min           max       average
 MEMORY| MemTotal            125508532     125508532     125508532     125508532
 MEMORY| MemFree             104303920     104303920     104303920     104303920
 MEMORY| Buffers                867752        867752        867752        867752
 MEMORY| Cached               14064948      14064948      14064948      14064948
 MEMORY| Slab                  1595076       1595076       1595076       1595076
 MEMORY| SReclaimable           916668        916668        916668        916668
 MEMORY| MemLikelyFree       120153288     120153288     120153288     120153288


 GENERATE|  Preliminary Number of Bonds generated:                             0
 GENERATE|  Achieved consistency in connectivity generation.


                  #####   #####        #     #   #     #       #          
                 #     # #     #      #    ##### #     #   # #####  ####  
                 #     # #           #       #   ###   #       #   #    # 
                 #     #  #####     #        #   #  #  #   #   #   ###### 
                 #   # #       #   #         #   #   # #   #   #   #      
                 #    #  #     #  #          #   #  #  # # #   #    #   # 
                  #### #  #####  #           #   ###   ##  #   #     ###  

                                   GFN2-xTB  
                                 Version 0.0                       
                            Johann V. Pototschnig                  



 TOTAL NUMBERS AND MAXIMUM NUMBERS

  Total number of            - Atomic kinds:                                   2
                             - Atoms:                                         52
                             - Shell sets:                                    72
                             - Shells:                                        72
                             - Primitive Cartesian functions:                256
                             - Cartesian basis functions:                    112
                             - Spherical basis functions:                    112

  Maximum angular momentum of the orbital basis functions:                     1


 SCF PARAMETERS         Density guess:                                     MOPAC
                        --------------------------------------------------------
                        max_scf:                                             300
                        max_scf_history:                                       0
                        max_diis:                                              4
                        --------------------------------------------------------
                        eps_scf:                                        1.00E-09
                        eps_scf_history:                                0.00E+00
                        eps_diis:                                       1.00E-01
                        eps_eigval:                                     1.00E-05
                        --------------------------------------------------------
                        level_shift [a.u.]:                             0.000000
                        added MOs                                        56    0
                        --------------------------------------------------------
                        Mixing method:                           DIRECT_P_MIXING
                        --------------------------------------------------------
                        Smear method:                                FERMI_DIRAC
                        Electronic temperature [K]:                        300.0
                        Electronic temperature [a.u.]:                  9.50E-04
                        Accuracy threshold:                             1.00E-06
                        --------------------------------------------------------
                        No outer SCF

 CELL_OPT| Pressure tolerance [bar]:                                       100.0
 CELL_OPT| Keep volume of cell:                                               NO
 CELL_OPT| Keep angles between the cell vectors:                              NO
 CELL_OPT| Keep cell symmetry:                                                NO
 CELL_OPT| Constraint:                                                      NONE

 BFGS| Use rational function optimization for step estimation:                NO
 BFGS| Use model Hessian for initial guess:                                   NO
 BFGS| Restart Hessian:                                                       NO
 BFGS| Trust radius:                                                       0.472

 *******************************************************************************
 ***                     STARTING   CELL   OPTIMIZATION                      ***
 ***                                   BFGS                                  ***
 *******************************************************************************

 CELL| Volume [angstrom^3]:                                           393.072631
 CELL| Vector a [angstrom]:       6.639     0.000     0.000   |a| =     6.639000
 CELL| Vector b [angstrom]:       0.000     6.639     0.000   |b| =     6.639000
 CELL| Vector c [angstrom]:       0.000     0.000     8.918   |c| =     8.918000
 CELL| Angle (b,c), alpha [degree]:                                    90.000000
 CELL| Angle (a,c), beta  [degree]:                                    90.000000
 CELL| Angle (a,b), gamma [degree]:                                    90.000000
 CELL| Numerically orthorhombic:                                             YES
 CELL| Periodicity                                                           XYZ

 Extrapolation method: initial_guess

 Number of electrons:                                                        112
 Number of occupied orbitals:                                                 56
 Number of molecular orbitals:                                               112

 Number of orbital functions:                                                112
 Number of independent orbital functions:                                    112


 SCF WAVEFUNCTION OPTIMIZATION

  Step     Update method      Time    Convergence         Total energy    Change
  ------------------------------------------------------------------------------
     1 TBLite/Diag 0.40E+00    0.0     0.49770668       -58.7981584368 -5.88E+01
     2 TBLite/Diag 0.40E+00    0.0     0.03532952       -58.8225757965 -2.44E-02
     3 TBLite/Diag 0.40E+00    0.0     0.01589729       -58.8242216598 -1.65E-03
     4 TBLite/Diag 0.40E+00    0.0     0.00431288       -58.8244594687 -2.38E-04
     5 TBLite/Diag 0.40E+00    0.0     0.00166099       -58.8245075057 -4.80E-05
     6 TBLite/Diag 0.40E+00    0.0     0.00013811       -58.8245078323 -3.27E-07
     7 TBLite/Diag 0.40E+00    0.0     0.00006789       -58.8245078752 -4.29E-08
     8 TBLite/Diag 0.40E+00    0.0     0.00000553       -58.8245078752  2.37E-11
     9 TBLite/Diag 0.40E+00    0.0     0.00000260       -58.8245078753 -1.18E-10
    10 TBLite/Diag 0.40E+00    0.0     0.00000012       -58.8245078753 -2.13E-14
    11 TBLite/Diag 0.40E+00    0.0     0.00000007       -58.8245078753 -1.35E-13
    12 TBLite/Diag 0.40E+00    0.0     0.00000001       -58.8245078753  1.28E-13
    13 TBLite/Diag 0.40E+00    0.0     1.3573E-09       -58.8245078753  8.53E-14
    14 TBLite/Diag 0.40E+00    0.0     2.0172E-10       -58.8245078753  5.68E-14

  *** SCF run converged in    14 steps ***


  Core Hamiltonian energy:                                    -60.52439264738783
  Repulsive potential energy:                                   1.75390575399045
  Electrostatic energy:                                         0.03438209874307
  Self-consistent dispersion energy:                           -0.11028908452677
  Non-self consistent dispersion energy:                        0.02188600383919
  Correction for halogen bonding:                               0.00000000000000
  Electronic entropic energy:                                  -0.00000000000000
  Fermi energy:                                                 0.04533057712651

  Total energy:                                               -58.82450787534189
  Total energy (extrapolated to T->0):                        -58.82450787534189

 ENERGY| Total FORCE_EVAL ( QS ) energy [hartree]            -58.824507875341894

 OPT| **************************************************************************
 OPT| Step number                                                              0
 OPT| Optimization method                                                   BFGS
 OPT| Total energy [hartree]                                      -58.8245078753
 OPT| Internal pressure [bar]                                  294228.8307813330
 OPT| Used time [s]                                                        2.898
 OPT| **************************************************************************
 OPT| Estimated peak process memory [MiB]                                    168

 --------------------------
 OPTIMIZATION STEP:      1
 --------------------------

 CELL| Volume [angstrom^3]:                                           410.352629
 CELL| Vector a [angstrom]:       6.753     0.000     0.000   |a| =     6.753178
 CELL| Vector b [angstrom]:      -0.000     6.753     0.000   |b| =     6.753178
 CELL| Vector c [angstrom]:       0.000     0.000     8.998   |c| =     8.997893
 CELL| Angle (b,c), alpha [degree]:                                    90.000000
 CELL| Angle (a,c), beta  [degree]:                                    90.000000
 CELL| Angle (a,b), gamma [degree]:                                    90.000005
 CELL| Numerically orthorhombic:                                              NO
 CELL| Periodicity                                                           XYZ

 Extrapolation method: ASPC

 Number of electrons:                                                        112
 Number of occupied orbitals:                                                 56
 Number of molecular orbitals:                                               112

 Number of orbital functions:                                                112
 Number of independent orbital functions:                                    112


 SCF WAVEFUNCTION OPTIMIZATION

  Step     Update method      Time    Convergence         Total energy    Change
  ------------------------------------------------------------------------------
     1 TBLite/Diag 0.40E+00    0.0     0.14486564       -59.2178892228 -5.92E+01
     2 TBLite/Diag 0.40E+00    0.0     0.03753947       -59.2327489957 -1.49E-02
     3 TBLite/Diag 0.40E+00    0.0     0.00532588       -59.2329471192 -1.98E-04
     4 TBLite/Diag 0.40E+00    0.0     0.00288518       -59.2329886519 -4.15E-05
     5 TBLite/Diag 0.40E+00    0.0     0.00114380       -59.2330086576 -2.00E-05
     6 TBLite/Diag 0.40E+00    0.0     0.00008172       -59.2330087549 -9.72E-08
     7 TBLite/Diag 0.40E+00    0.0     0.00001778       -59.2330087606 -5.71E-09
     8 TBLite/Diag 0.40E+00    0.0     0.00000294       -59.2330087606 -1.23E-11
     9 TBLite/Diag 0.40E+00    0.0     0.00000094       -59.2330087606 -1.87E-11
    10 TBLite/Diag 0.40E+00    0.0     0.00000016       -59.2330087606 -1.42E-14
    11 TBLite/Diag 0.40E+00    0.0     0.00000001       -59.2330087606  3.55E-14
    12 TBLite/Diag 0.40E+00    0.0     2.7498E-09       -59.2330087606 -1.14E-13
    13 TBLite/Diag 0.40E+00    0.0     1.2531E-09       -59.2330087606  1.07E-13
    14 TBLite/Diag 0.40E+00    0.0     2.7307E-10       -59.2330087606 -8.53E-14

  *** SCF run converged in    14 steps ***


  Core Hamiltonian energy:                                    -60.13966603953166
  Repulsive potential energy:                                   0.95379114665149
  Electrostatic energy:                                         0.04089890043205
  Self-consistent dispersion energy:                           -0.10790937684838
  Non-self consistent dispersion energy:                        0.01987660869934
  Correction for halogen bonding:                               0.00000000000000
  Electronic entropic energy:                                  -0.00000000000000
  Fermi energy:                                                -0.05751712877118

  Total energy:                                               -59.23300876059717
  Total energy (extrapolated to T->0):                        -59.23300876059717

 ENERGY| Total FORCE_EVAL ( QS ) energy [hartree]            -59.233008760597166

 OPT| **************************************************************************
 OPT| Step number                                                              1
 OPT| Optimization method                                                   BFGS
 OPT| Total energy [hartree]                                      -59.2330087606
 OPT| Internal pressure [bar]                                   76040.8869955645
 OPT| Effective energy change [hartree]                            -0.4085008853
 OPT| Predicted energy change [hartree]                            -0.5263085452
 OPT| Scaling factor                                                0.0000000000
 OPT| Step size                                                     0.2157653315
 OPT| Trust radius                                                  0.4724315332
 OPT| Decrease in energy                                                     YES
 OPT| Used time [s]                                                        1.901
 OPT|
 OPT| Maximum step size                                             0.2157653315
 OPT| Convergence limit for maximum step size                       0.0030000000
 OPT| Maximum step size is converged                                          NO
 OPT|
 OPT| RMS step size                                                 0.0806079175
 OPT| Convergence limit for RMS step size                           0.0015000000
 OPT| RMS step size is converged                                              NO
 OPT|
 OPT| Maximum gradient                                              0.0582725540
 OPT| Convergence limit for maximum gradient                        0.0004500000
 OPT| Maximum gradient is converged                                           NO
 OPT|
 OPT| RMS gradient                                                  0.0171227673
 OPT| Convergence limit for RMS gradient                            0.0003000000
 OPT| RMS gradient is converged                                               NO
 OPT|
 OPT| Pressure deviation [bar]                                  76040.8869955645
 OPT| Pressure tolerance [bar]                                    100.0000000000
 OPT| Pressure is converged                                                   NO
 OPT| **************************************************************************
 OPT| Estimated peak process memory after this step [MiB]                    169

 --------------------------
 OPTIMIZATION STEP:      2
 --------------------------

 CELL| Volume [angstrom^3]:                                           415.401259
 CELL| Vector a [angstrom]:       6.786     0.000     0.000   |a| =     6.786243
 CELL| Vector b [angstrom]:      -0.000     6.786     0.000   |b| =     6.786243
 CELL| Vector c [angstrom]:       0.000     0.000     9.020   |c| =     9.020051
 CELL| Angle (b,c), alpha [degree]:                                    89.999999
 CELL| Angle (a,c), beta  [degree]:                                    90.000000
 CELL| Angle (a,b), gamma [degree]:                                    90.000014
 CELL| Numerically orthorhombic:                                              NO
 CELL| Periodicity                                                           XYZ

 Extrapolation method: ASPC

 Number of electrons:                                                        112
 Number of occupied orbitals:                                                 56
 Number of molecular orbitals:                                               112

 Number of orbital functions:                                                112
 Number of independent orbital functions:                                    112


 SCF WAVEFUNCTION OPTIMIZATION

  Step     Update method      Time    Convergence         Total energy    Change
  ------------------------------------------------------------------------------
     1 TBLite/Diag 0.40E+00    0.0     0.03091558       -59.2651793236 -5.93E+01
     2 TBLite/Diag 0.40E+00    0.0     0.00375394       -59.2652964571 -1.17E-04
     3 TBLite/Diag 0.40E+00    0.0     0.00165650       -59.2652977332 -1.28E-06
     4 TBLite/Diag 0.40E+00    0.0     0.00082954       -59.2653051398 -7.41E-06
     5 TBLite/Diag 0.40E+00    0.0     0.00012702       -59.2653053192 -1.79E-07
     6 TBLite/Diag 0.40E+00    0.0     0.00002814       -59.2653053232 -3.95E-09
     7 TBLite/Diag 0.40E+00    0.0     0.00000516       -59.2653053237 -5.54E-10
     8 TBLite/Diag 0.40E+00    0.0     0.00000165       -59.2653053237 -1.32E-11
     9 TBLite/Diag 0.40E+00    0.0     0.00000006       -59.2653053237 -7.11E-15
    10 TBLite/Diag 0.40E+00    0.0     0.00000002       -59.2653053237  3.55E-14
    11 TBLite/Diag 0.40E+00    0.0     2.6810E-09       -59.2653053237 -1.07E-13
    12 TBLite/Diag 0.40E+00    0.0     8.3538E-10       -59.2653053237  7.11E-15

  *** SCF run converged in    12 steps ***


  Core Hamiltonian energy:                                    -60.12887189168976
  Repulsive potential energy:                                   0.90654484135256
  Electrostatic energy:                                         0.04420838205458
  Self-consistent dispersion energy:                           -0.10655830177963
  Non-self consistent dispersion energy:                        0.01937164633520
  Correction for halogen bonding:                               0.00000000000000
  Electronic entropic energy:                                  -0.00000000000000
  Fermi energy:                                                -0.04659327970107

  Total energy:                                               -59.26530532372705
  Total energy (extrapolated to T->0):                        -59.26530532372705

 ENERGY| Total FORCE_EVAL ( QS ) energy [hartree]            -59.265305323727048

 OPT| **************************************************************************
 OPT| Step number                                                              2
 OPT| Optimization method                                                   BFGS
 OPT| Total energy [hartree]                                      -59.2653053237
 OPT| Internal pressure [bar]                                   41151.2082200496
 OPT| Effective energy change [hartree]                            -0.0322965631
 OPT| Predicted energy change [hartree]                            -0.0210607021
 OPT| Scaling factor                                                0.0000000000
 OPT| Step size                                                     0.0624834345
 OPT| Trust radius                                                  0.4724315332
 OPT| Decrease in energy                                                     YES
 OPT| Used time [s]                                                        1.858
 OPT|
 OPT| Maximum step size                                             0.0624834345
 OPT| Convergence limit for maximum step size                       0.0030000000
 OPT| Maximum step size is converged                                          NO
 OPT|
 OPT| RMS step size                                                 0.0154345731
 OPT| Convergence limit for RMS step size                           0.0015000000
 OPT| RMS step size is converged                                              NO
 OPT|
 OPT| Maximum gradient                                              0.0317780929
 OPT| Convergence limit for maximum gradient                        0.0004500000
 OPT| Maximum gradient is converged                                           NO
 OPT|
 OPT| RMS gradient                                                  0.0087342199
 OPT| Convergence limit for RMS gradient                            0.0003000000
 OPT| RMS gradient is converged                                               NO
 OPT|
 OPT| Pressure deviation [bar]                                  41151.2082200496
 OPT| Pressure tolerance [bar]                                    100.0000000000
 OPT| Pressure is converged                                                   NO
 OPT| **************************************************************************
 OPT| Estimated peak process memory after this step [MiB]                    170

 --------------------------
 OPTIMIZATION STEP:      3
 --------------------------

 CELL| Volume [angstrom^3]:                                           421.456730
 CELL| Vector a [angstrom]:       6.826     0.000     0.000   |a| =     6.825558
 CELL| Vector b [angstrom]:      -0.000     6.826     0.000   |b| =     6.825558
 CELL| Vector c [angstrom]:       0.000     0.000     9.046   |c| =     9.046419
 CELL| Angle (b,c), alpha [degree]:                                    89.999998
 CELL| Angle (a,c), beta  [degree]:                                    90.000000
 CELL| Angle (a,b), gamma [degree]:                                    90.000032
 CELL| Numerically orthorhombic:                                              NO
 CELL| Periodicity                                                           XYZ

 Extrapolation method: ASPC

 Number of electrons:                                                        112
 Number of occupied orbitals:                                                 56
 Number of molecular orbitals:                                               112

 Number of orbital functions:                                                112
 Number of independent orbital functions:                                    112


 SCF WAVEFUNCTION OPTIMIZATION

  Step     Update method      Time    Convergence         Total energy    Change
  ------------------------------------------------------------------------------
     1 TBLite/Diag 0.40E+00    0.0     0.02418067       -59.2795110144 -5.93E+01
     2 TBLite/Diag 0.40E+00    0.0     0.00315999       -59.2796050897 -9.41E-05
     3 TBLite/Diag 0.40E+00    0.0     0.00177164       -59.2796047909  2.99E-07
     4 TBLite/Diag 0.40E+00    0.0     0.00096924       -59.2796144234 -9.63E-06
     5 TBLite/Diag 0.40E+00    0.0     0.00012458       -59.2796146499 -2.26E-07
     6 TBLite/Diag 0.40E+00    0.0     0.00002977       -59.2796146533 -3.45E-09
     7 TBLite/Diag 0.40E+00    0.0     0.00000705       -59.2796146544 -1.07E-09
     8 TBLite/Diag 0.40E+00    0.0     0.00000173       -59.2796146544 -1.38E-11
     9 TBLite/Diag 0.40E+00    0.0     0.00000007       -59.2796146544 -3.55E-14
    10 TBLite/Diag 0.40E+00    0.0     0.00000003       -59.2796146544 -6.39E-14
    11 TBLite/Diag 0.40E+00    0.0     3.4020E-09       -59.2796146544 -1.99E-13
    12 TBLite/Diag 0.40E+00    0.0     1.8764E-09       -59.2796146544  1.63E-13
    13 TBLite/Diag 0.40E+00    0.0     1.9716E-10       -59.2796146544  7.11E-15

  *** SCF run converged in    13 steps ***


  Core Hamiltonian energy:                                    -60.10010642261570
  Repulsive potential energy:                                   0.85853669863834
  Electrostatic energy:                                         0.04819184673420
  Self-consistent dispersion energy:                           -0.10502033648341
  Non-self consistent dispersion energy:                        0.01878355933450
  Correction for halogen bonding:                               0.00000000000000
  Electronic entropic energy:                                  -0.00000000000000
  Fermi energy:                                                -0.04155867381810

  Total energy:                                               -59.27961465439208
  Total energy (extrapolated to T->0):                        -59.27961465439208

 ENERGY| Total FORCE_EVAL ( QS ) energy [hartree]            -59.279614654392077

 OPT| **************************************************************************
 OPT| Step number                                                              3
 OPT| Optimization method                                                   BFGS
 OPT| Total energy [hartree]                                      -59.2796146544
 OPT| Internal pressure [bar]                                    4022.4000122312
 OPT| Effective energy change [hartree]                            -0.0143093307
 OPT| Predicted energy change [hartree]                            -0.0122867456
 OPT| Scaling factor                                                0.0000000000
 OPT| Step size                                                     0.0742942512
 OPT| Trust radius                                                  0.4724315332
 OPT| Decrease in energy                                                     YES
 OPT| Used time [s]                                                        1.833
 OPT|
 OPT| Maximum step size                                             0.0742942512
 OPT| Convergence limit for maximum step size                       0.0030000000
 OPT| Maximum step size is converged                                          NO
 OPT|
 OPT| RMS step size                                                 0.0176429117
 OPT| Convergence limit for RMS step size                           0.0015000000
 OPT| RMS step size is converged                                              NO
 OPT|
 OPT| Maximum gradient                                              0.0064452563
 OPT| Convergence limit for maximum gradient                        0.0004500000
 OPT| Maximum gradient is converged                                           NO
 OPT|
 OPT| RMS gradient                                                  0.0031165660
 OPT| Convergence limit for RMS gradient                            0.0003000000
 OPT| RMS gradient is converged                                               NO
 OPT|
 OPT| Pressure deviation [bar]                                   4022.4000122312
 OPT| Pressure tolerance [bar]                                    100.0000000000
 OPT| Pressure is converged                                                   NO
 OPT| **************************************************************************
 OPT| Estimated peak process memory after this step [MiB]                    170

 --------------------------
 OPTIMIZATION STEP:      4
 --------------------------

 CELL| Volume [angstrom^3]:                                           422.803516
 CELL| Vector a [angstrom]:       6.834     0.000     0.000   |a| =     6.834378
 CELL| Vector b [angstrom]:      -0.000     6.834     0.000   |b| =     6.834378
 CELL| Vector c [angstrom]:       0.000     0.000     9.052   |c| =     9.051917
 CELL| Angle (b,c), alpha [degree]:                                    89.999998
 CELL| Angle (a,c), beta  [degree]:                                    90.000000
 CELL| Angle (a,b), gamma [degree]:                                    90.000040
 CELL| Numerically orthorhombic:                                              NO
 CELL| Periodicity                                                           XYZ

 Extrapolation method: ASPC

 Number of electrons:                                                        112
 Number of occupied orbitals:                                                 56
 Number of molecular orbitals:                                               112

 Number of orbital functions:                                                112
 Number of independent orbital functions:                                    112


 SCF WAVEFUNCTION OPTIMIZATION

  Step     Update method      Time    Convergence         Total energy    Change
  ------------------------------------------------------------------------------
     1 TBLite/Diag 0.40E+00    0.0     0.00555834       -59.2814915957 -5.93E+01
     2 TBLite/Diag 0.40E+00    0.0     0.00039897       -59.2814930954 -1.50E-06
     3 TBLite/Diag 0.40E+00    0.0     0.00031204       -59.2814933449 -2.49E-07
     4 TBLite/Diag 0.40E+00    0.0     0.00015403       -59.2814935793 -2.34E-07
     5 TBLite/Diag 0.40E+00    0.0     0.00001264       -59.2814935801 -8.43E-10
     6 TBLite/Diag 0.40E+00    0.0     0.00000548       -59.2814935806 -4.98E-10
     7 TBLite/Diag 0.40E+00    0.0     0.00000037       -59.2814935806 -1.75E-12
     8 TBLite/Diag 0.40E+00    0.0     0.00000019       -59.2814935806 -3.41E-13
     9 TBLite/Diag 0.40E+00    0.0     9.2786E-09       -59.2814935806  9.24E-14
    10 TBLite/Diag 0.40E+00    0.0     6.2991E-09       -59.2814935806 -3.55E-14
    11 TBLite/Diag 0.40E+00    0.0     8.7171E-10       -59.2814935806  4.97E-14

  *** SCF run converged in    11 steps ***


  Core Hamiltonian energy:                                    -60.08966446693425
  Repulsive potential energy:                                   0.84512235584892
  Electrostatic energy:                                         0.04908663706801
  Self-consistent dispersion energy:                           -0.10470169303413
  Non-self consistent dispersion energy:                        0.01866358643085
  Correction for halogen bonding:                               0.00000000000000
  Electronic entropic energy:                                  -0.00000000000000
  Fermi energy:                                                -0.04375547540674

  Total energy:                                               -59.28149358062061
  Total energy (extrapolated to T->0):                        -59.28149358062061

 ENERGY| Total FORCE_EVAL ( QS ) energy [hartree]            -59.281493580620605

 OPT| **************************************************************************
 OPT| Step number                                                              4
 OPT| Optimization method                                                   BFGS
 OPT| Total energy [hartree]                                      -59.2814935806
 OPT| Internal pressure [bar]                                   -4177.9372265894
 OPT| Effective energy change [hartree]                            -0.0018789262
 OPT| Predicted energy change [hartree]                            -0.0011424013
 OPT| Scaling factor                                                0.0000000000
 OPT| Step size                                                     0.0166685106
 OPT| Trust radius                                                  0.4724315332
 OPT| Decrease in energy                                                     YES
 OPT| Used time [s]                                                        1.786
 OPT|
 OPT| Maximum step size                                             0.0166685106
 OPT| Convergence limit for maximum step size                       0.0030000000
 OPT| Maximum step size is converged                                          NO
 OPT|
 OPT| RMS step size                                                 0.0053185230
 OPT| Convergence limit for RMS step size                           0.0015000000
 OPT| RMS step size is converged                                              NO
 OPT|
 OPT| Maximum gradient                                              0.0054724861
 OPT| Convergence limit for maximum gradient                        0.0004500000
 OPT| Maximum gradient is converged                                           NO
 OPT|
 OPT| RMS gradient                                                  0.0026514434
 OPT| Convergence limit for RMS gradient                            0.0003000000
 OPT| RMS gradient is converged                                               NO
 OPT|
 OPT| Pressure deviation [bar]                                  -4177.9372265894
 OPT| Pressure tolerance [bar]                                    100.0000000000
 OPT| Pressure is converged                                                   NO
 OPT| **************************************************************************
 OPT| Estimated peak process memory after this step [MiB]                    171

 --------------------------
 OPTIMIZATION STEP:      5
 --------------------------

 CELL| Volume [angstrom^3]:                                           424.124796
 CELL| Vector a [angstrom]:       6.844     0.000     0.000   |a| =     6.843517
 CELL| Vector b [angstrom]:      -0.000     6.844     0.000   |b| =     6.843517
 CELL| Vector c [angstrom]:       0.000     0.000     9.056   |c| =     9.055969
 CELL| Angle (b,c), alpha [degree]:                                    89.999997
 CELL| Angle (a,c), beta  [degree]:                                    90.000000
 CELL| Angle (a,b), gamma [degree]:                                    90.000055
 CELL| Numerically orthorhombic:                                              NO
 CELL| Periodicity                                                           XYZ

 Extrapolation method: ASPC

 Number of electrons:                                                        112
 Number of occupied orbitals:                                                 56
 Number of molecular orbitals:                                               112

 Number of orbital functions:                                                112
 Number of independent orbital functions:                                    112


 SCF WAVEFUNCTION OPTIMIZATION

  Step     Update method      Time    Convergence         Total energy    Change
  ------------------------------------------------------------------------------
     1 TBLite/Diag 0.40E+00    0.0     0.00999760       -59.2840901591 -5.93E+01
     2 TBLite/Diag 0.40E+00    0.0     0.00056700       -59.2840940351 -3.88E-06
     3 TBLite/Diag 0.40E+00    0.0     0.00042909       -59.2840950366 -1.00E-06
     4 TBLite/Diag 0.40E+00    0.0     0.00013522       -59.2840951459 -1.09E-07
     5 TBLite/Diag 0.40E+00    0.0     0.00003105       -59.2840951504 -4.44E-09
     6 TBLite/Diag 0.40E+00    0.0     0.00000948       -59.2840951516 -1.25E-09
     7 TBLite/Diag 0.40E+00    0.0     0.00000218       -59.2840951517 -7.03E-11
     8 TBLite/Diag 0.40E+00    0.0     0.00000044       -59.2840951517 -9.52E-13
     9 TBLite/Diag 0.40E+00    0.0     0.00000001       -59.2840951517  7.11E-14
    10 TBLite/Diag 0.40E+00    0.0     0.00000001       -59.2840951517 -1.42E-14
    11 TBLite/Diag 0.40E+00    0.0     9.2511E-10       -59.2840951517 -1.21E-13

  *** SCF run converged in    11 steps ***


  Core Hamiltonian energy:                                    -60.07693367473865
  Repulsive potential energy:                                   0.82861509657181
  Electrostatic energy:                                         0.05008372348505
  Self-consistent dispersion energy:                           -0.10439780626619
  Non-self consistent dispersion energy:                        0.01853750924910
  Correction for halogen bonding:                               0.00000000000000
  Electronic entropic energy:                                  -0.00000000000000
  Fermi energy:                                                -0.04902110211954

  Total energy:                                               -59.28409515169887
  Total energy (extrapolated to T->0):                        -59.28409515169887

 ENERGY| Total FORCE_EVAL ( QS ) energy [hartree]            -59.284095151698871

 OPT| **************************************************************************
 OPT| Step number                                                              5
 OPT| Optimization method                                                   BFGS
 OPT| Total energy [hartree]                                      -59.2840951517
 OPT| Internal pressure [bar]                                  -12556.0805183643
 OPT| Effective energy change [hartree]                            -0.0026015711
 OPT| Predicted energy change [hartree]                            -0.0018123558
 OPT| Scaling factor                                                0.0000000000
 OPT| Step size                                                     0.0224726452
 OPT| Trust radius                                                  0.4724315332
 OPT| Decrease in energy                                                     YES
 OPT| Used time [s]                                                        1.785
 OPT|
 OPT| Maximum step size                                             0.0224726452
 OPT| Convergence limit for maximum step size                       0.0030000000
 OPT| Maximum step size is converged                                          NO
 OPT|
 OPT| RMS step size                                                 0.0103401191
 OPT| Convergence limit for RMS step size                           0.0015000000
 OPT| RMS step size is converged                                              NO
 OPT|
 OPT| Maximum gradient                                              0.0087837278
 OPT| Convergence limit for maximum gradient                        0.0004500000
 OPT| Maximum gradient is converged                                           NO
 OPT|
 OPT| RMS gradient                                                  0.0024228642
 OPT| Convergence limit for RMS gradient                            0.0003000000
 OPT| RMS gradient is converged                                               NO
 OPT|
 OPT| Pressure deviation [bar]                                 -12556.0805183643
 OPT| Pressure tolerance [bar]                                    100.0000000000
 OPT| Pressure is converged                                                   NO
 OPT| **************************************************************************
 OPT| Estimated peak process memory after this step [MiB]                    171

 --------------------------
 OPTIMIZATION STEP:      6
 --------------------------

 CELL| Volume [angstrom^3]:                                           424.032293
 CELL| Vector a [angstrom]:       6.844     0.000     0.000   |a| =     6.844083
 CELL| Vector b [angstrom]:      -0.000     6.844     0.000   |b| =     6.844083
 CELL| Vector c [angstrom]:       0.000     0.000     9.052   |c| =     9.052498
 CELL| Angle (b,c), alpha [degree]:                                    89.999997
 CELL| Angle (a,c), beta  [degree]:                                    89.999999
 CELL| Angle (a,b), gamma [degree]:                                    90.000068
 CELL| Numerically orthorhombic:                                              NO
 CELL| Periodicity                                                           XYZ

 Extrapolation method: ASPC

 Number of electrons:                                                        112
 Number of occupied orbitals:                                                 56
 Number of molecular orbitals:                                               112

 Number of orbital functions:                                                112
 Number of independent orbital functions:                                    112


 SCF WAVEFUNCTION OPTIMIZATION

  Step     Update method      Time    Convergence         Total energy    Change
  ------------------------------------------------------------------------------
     1 TBLite/Diag 0.40E+00    0.0     0.00685960       -59.2858368812 -5.93E+01
     2 TBLite/Diag 0.40E+00    0.0     0.00039306       -59.2858397596 -2.88E-06
     3 TBLite/Diag 0.40E+00    0.0     0.00026176       -59.2858402692 -5.10E-07
     4 TBLite/Diag 0.40E+00    0.0     0.00007427       -59.2858403159 -4.67E-08
     5 TBLite/Diag 0.40E+00    0.0     0.00002192       -59.2858403211 -5.18E-09
     6 TBLite/Diag 0.40E+00    0.0     0.00000634       -59.2858403213 -2.10E-10
     7 TBLite/Diag 0.40E+00    0.0     0.00000167       -59.2858403213 -2.17E-11
     8 TBLite/Diag 0.40E+00    0.0     0.00000030       -59.2858403213 -3.84E-13
     9 TBLite/Diag 0.40E+00    0.0     7.2287E-09       -59.2858403213  1.63E-13
    10 TBLite/Diag 0.40E+00    0.0     7.8252E-09       -59.2858403213 -7.11E-15
    11 TBLite/Diag 0.40E+00    0.0     6.2013E-10       -59.2858403213 -5.68E-14

  *** SCF run converged in    11 steps ***


  Core Hamiltonian energy:                                    -60.07650653473511
  Repulsive potential energy:                                   0.82632746486156
  Electrostatic energy:                                         0.05021801618896
  Self-consistent dispersion energy:                           -0.10441442777062
  Non-self consistent dispersion energy:                        0.01853516014950
  Correction for halogen bonding:                               0.00000000000000
  Electronic entropic energy:                                  -0.00000000000000
  Fermi energy:                                                -0.05252044486382

  Total energy:                                               -59.28584032130571
  Total energy (extrapolated to T->0):                        -59.28584032130571

 ENERGY| Total FORCE_EVAL ( QS ) energy [hartree]            -59.285840321305706

 OPT| **************************************************************************
 OPT| Step number                                                              6
 OPT| Optimization method                                                   BFGS
 OPT| Total energy [hartree]                                      -59.2858403213
 OPT| Internal pressure [bar]                                  -12195.1192993757
 OPT| Effective energy change [hartree]                            -0.0017451696
 OPT| Predicted energy change [hartree]                            -0.0011155540
 OPT| Scaling factor                                                0.0000000000
 OPT| Step size                                                     0.0201234206
 OPT| Trust radius                                                  0.4724315332
 OPT| Decrease in energy                                                     YES
 OPT| Used time [s]                                                        1.778
 OPT|
 OPT| Maximum step size                                             0.0201234206
 OPT| Convergence limit for maximum step size                       0.0030000000
 OPT| Maximum step size is converged                                          NO
 OPT|
 OPT| RMS step size                                                 0.0090517971
 OPT| Convergence limit for RMS step size                           0.0015000000
 OPT| RMS step size is converged                                              NO
 OPT|
 OPT| Maximum gradient                                              0.0098022011
 OPT| Convergence limit for maximum gradient                        0.0004500000
 OPT| Maximum gradient is converged                                           NO
 OPT|
 OPT| RMS gradient                                                  0.0022960503
 OPT| Convergence limit for RMS gradient                            0.0003000000
 OPT| RMS gradient is converged                                               NO
 OPT|
 OPT| Pressure deviation [bar]                                 -12195.1192993757
 OPT| Pressure tolerance [bar]                                    100.0000000000
 OPT| Pressure is converged                                                   NO
 OPT| **************************************************************************
 OPT| Estimated peak process memory after this step [MiB]                    171

 --------------------------
 OPTIMIZATION STEP:      7
 --------------------------

 CELL| Volume [angstrom^3]:                                           422.956009
 CELL| Vector a [angstrom]:       6.840     0.000     0.000   |a| =     6.839512
 CELL| Vector b [angstrom]:      -0.000     6.840     0.000   |b| =     6.839512
 CELL| Vector c [angstrom]:       0.000     0.000     9.042   |c| =     9.041594
 CELL| Angle (b,c), alpha [degree]:                                    89.999997
 CELL| Angle (a,c), beta  [degree]:                                    89.999999
 CELL| Angle (a,b), gamma [degree]:                                    90.000079
 CELL| Numerically orthorhombic:                                              NO
 CELL| Periodicity                                                           XYZ

 Extrapolation method: ASPC

 Number of electrons:                                                        112
 Number of occupied orbitals:                                                 56
 Number of molecular orbitals:                                               112

 Number of orbital functions:                                                112
 Number of independent orbital functions:                                    112


 SCF WAVEFUNCTION OPTIMIZATION

  Step     Update method      Time    Convergence         Total energy    Change
  ------------------------------------------------------------------------------
     1 TBLite/Diag 0.40E+00    0.0     0.00545915       -59.2873993390 -5.93E+01
     2 TBLite/Diag 0.40E+00    0.0     0.00033949       -59.2874024266 -3.09E-06
     3 TBLite/Diag 0.40E+00    0.0     0.00031977       -59.2874029542 -5.28E-07
     4 TBLite/Diag 0.40E+00    0.0     0.00013448       -59.2874031555 -2.01E-07
     5 TBLite/Diag 0.40E+00    0.0     0.00002463       -59.2874031658 -1.03E-08
     6 TBLite/Diag 0.40E+00    0.0     0.00000663       -59.2874031659 -1.24E-10
     7 TBLite/Diag 0.40E+00    0.0     0.00000146       -59.2874031659 -1.70E-11
     8 TBLite/Diag 0.40E+00    0.0     0.00000038       -59.2874031659 -7.96E-13
     9 TBLite/Diag 0.40E+00    0.0     6.3429E-09       -59.2874031659  9.24E-14
    10 TBLite/Diag 0.40E+00    0.0     7.1883E-09       -59.2874031659  5.68E-14
    11 TBLite/Diag 0.40E+00    0.0     7.9238E-10       -59.2874031659 -9.24E-14

  *** SCF run converged in    11 steps ***


  Core Hamiltonian energy:                                    -60.08691909717773
  Repulsive potential energy:                                   0.83582332252579
  Electrostatic energy:                                         0.04971565783137
  Self-consistent dispersion energy:                           -0.10463963061761
  Non-self consistent dispersion energy:                        0.01861658150003
  Correction for halogen bonding:                               0.00000000000000
  Electronic entropic energy:                                  -0.00000000000000
  Fermi energy:                                                -0.05427782038698

  Total energy:                                               -59.28740316593815
  Total energy (extrapolated to T->0):                        -59.28740316593815

 ENERGY| Total FORCE_EVAL ( QS ) energy [hartree]            -59.287403165938152

 OPT| **************************************************************************
 OPT| Step number                                                              7
 OPT| Optimization method                                                   BFGS
 OPT| Total energy [hartree]                                      -59.2874031659
 OPT| Internal pressure [bar]                                   -4854.1221275855
 OPT| Effective energy change [hartree]                            -0.0015628446
 OPT| Predicted energy change [hartree]                            -0.0011262334
 OPT| Scaling factor                                                0.0000000000
 OPT| Step size                                                     0.0221920640
 OPT| Trust radius                                                  0.4724315332
 OPT| Decrease in energy                                                     YES
 OPT| Used time [s]                                                        1.783
 OPT|
 OPT| Maximum step size                                             0.0221920640
 OPT| Convergence limit for maximum step size                       0.0030000000
 OPT| Maximum step size is converged                                          NO
 OPT|
 OPT| RMS step size                                                 0.0105973235
 OPT| Convergence limit for RMS step size                           0.0015000000
 OPT| RMS step size is converged                                              NO
 OPT|
 OPT| Maximum gradient                                              0.0071627605
 OPT| Convergence limit for maximum gradient                        0.0004500000
 OPT| Maximum gradient is converged                                           NO
 OPT|
 OPT| RMS gradient                                                  0.0017565656
 OPT| Convergence limit for RMS gradient                            0.0003000000
 OPT| RMS gradient is converged                                               NO
 OPT|
 OPT| Pressure deviation [bar]                                  -4854.1221275855
 OPT| Pressure tolerance [bar]                                    100.0000000000
 OPT| Pressure is converged                                                   NO
 OPT| **************************************************************************
 OPT| Estimated peak process memory after this step [MiB]                    171

 --------------------------
 OPTIMIZATION STEP:      8
 --------------------------

 CELL| Volume [angstrom^3]:                                           422.136958
 CELL| Vector a [angstrom]:       6.837     0.000     0.000   |a| =     6.836597
 CELL| Vector b [angstrom]:      -0.000     6.837     0.000   |b| =     6.836597
 CELL| Vector c [angstrom]:       0.000     0.000     9.032   |c| =     9.031780
 CELL| Angle (b,c), alpha [degree]:                                    89.999996
 CELL| Angle (a,c), beta  [degree]:                                    89.999999
 CELL| Angle (a,b), gamma [degree]:                                    90.000082
 CELL| Numerically orthorhombic:                                              NO
 CELL| Periodicity                                                           XYZ

 Extrapolation method: ASPC

 Number of electrons:                                                        112
 Number of occupied orbitals:                                                 56
 Number of molecular orbitals:                                               112

 Number of orbital functions:                                                112
 Number of independent orbital functions:                                    112


 SCF WAVEFUNCTION OPTIMIZATION

  Step     Update method      Time    Convergence         Total energy    Change
  ------------------------------------------------------------------------------
     1 TBLite/Diag 0.40E+00    0.0     0.00312993       -59.2880614383 -5.93E+01
     2 TBLite/Diag 0.40E+00    0.0     0.00014646       -59.2880619996 -5.61E-07
     3 TBLite/Diag 0.40E+00    0.0     0.00014325       -59.2880621836 -1.84E-07
     4 TBLite/Diag 0.40E+00    0.0     0.00005766       -59.2880622318 -4.82E-08
     5 TBLite/Diag 0.40E+00    0.0     0.00000894       -59.2880622325 -6.39E-10
     6 TBLite/Diag 0.40E+00    0.0     0.00000255       -59.2880622325 -4.04E-11
     7 TBLite/Diag 0.40E+00    0.0     0.00000038       -59.2880622325 -1.12E-12
     8 TBLite/Diag 0.40E+00    0.0     0.00000010       -59.2880622325 -7.11E-14
     9 TBLite/Diag 0.40E+00    0.0     0.00000001       -59.2880622325  4.26E-14
    10 TBLite/Diag 0.40E+00    0.0     2.3202E-09       -59.2880622325 -9.24E-14
    11 TBLite/Diag 0.40E+00    0.0     5.3215E-10       -59.2880622325  7.11E-15

  *** SCF run converged in    11 steps ***


  Core Hamiltonian energy:                                    -60.09880019732220
  Repulsive potential energy:                                   0.84776092170777
  Electrostatic energy:                                         0.04909381517839
  Self-consistent dispersion energy:                           -0.10479836008902
  Non-self consistent dispersion energy:                        0.01868158802010
  Correction for halogen bonding:                               0.00000000000000
  Electronic entropic energy:                                  -0.00000000000000
  Fermi energy:                                                -0.05284744578527

  Total energy:                                               -59.28806223250496
  Total energy (extrapolated to T->0):                        -59.28806223250496

 ENERGY| Total FORCE_EVAL ( QS ) energy [hartree]            -59.288062232504956

 OPT| **************************************************************************
 OPT| Step number                                                              8
 OPT| Optimization method                                                   BFGS
 OPT| Total energy [hartree]                                      -59.2880622325
 OPT| Internal pressure [bar]                                    2350.4029246169
 OPT| Effective energy change [hartree]                            -0.0006590666
 OPT| Predicted energy change [hartree]                            -0.0004558785
 OPT| Scaling factor                                                0.0000000000
 OPT| Step size                                                     0.0185455899
 OPT| Trust radius                                                  0.4724315332
 OPT| Decrease in energy                                                     YES
 OPT| Used time [s]                                                        1.804
 OPT|
 OPT| Maximum step size                                             0.0185455899
 OPT| Convergence limit for maximum step size                       0.0030000000
 OPT| Maximum step size is converged                                          NO
 OPT|
 OPT| RMS step size                                                 0.0053917095
 OPT| Convergence limit for RMS step size                           0.0015000000
 OPT| RMS step size is converged                                              NO
 OPT|
 OPT| Maximum gradient                                              0.0049839302
 OPT| Convergence limit for maximum gradient                        0.0004500000
 OPT| Maximum gradient is converged                                           NO
 OPT|
 OPT| RMS gradient                                                  0.0012612503
 OPT| Convergence limit for RMS gradient                            0.0003000000
 OPT| RMS gradient is converged                                               NO
 OPT|
 OPT| Pressure deviation [bar]                                   2350.4029246169
 OPT| Pressure tolerance [bar]                                    100.0000000000
 OPT| Pressure is converged                                                   NO
 OPT| **************************************************************************
 OPT| Estimated peak process memory after this step [MiB]                    171

 --------------------------
 OPTIMIZATION STEP:      9
 --------------------------

 CELL| Volume [angstrom^3]:                                           421.972564
 CELL| Vector a [angstrom]:       6.838     0.000     0.000   |a| =     6.838300
 CELL| Vector b [angstrom]:      -0.000     6.838     0.000   |b| =     6.838300
 CELL| Vector c [angstrom]:       0.000     0.000     9.024   |c| =     9.023769
 CELL| Angle (b,c), alpha [degree]:                                    89.999996
 CELL| Angle (a,c), beta  [degree]:                                    89.999999
 CELL| Angle (a,b), gamma [degree]:                                    90.000081
 CELL| Numerically orthorhombic:                                              NO
 CELL| Periodicity                                                           XYZ

 Extrapolation method: ASPC

 Number of electrons:                                                        112
 Number of occupied orbitals:                                                 56
 Number of molecular orbitals:                                               112

 Number of orbital functions:                                                112
 Number of independent orbital functions:                                    112


 SCF WAVEFUNCTION OPTIMIZATION

  Step     Update method      Time    Convergence         Total energy    Change
  ------------------------------------------------------------------------------
     1 TBLite/Diag 0.40E+00    0.0     0.00220496       -59.2884768711 -5.93E+01
     2 TBLite/Diag 0.40E+00    0.0     0.00014946       -59.2884772934 -4.22E-07
     3 TBLite/Diag 0.40E+00    0.0     0.00010001       -59.2884773828 -8.95E-08
     4 TBLite/Diag 0.40E+00    0.0     0.00001208       -59.2884773842 -1.37E-09
     5 TBLite/Diag 0.40E+00    0.0     0.00000494       -59.2884773842 -2.44E-11
     6 TBLite/Diag 0.40E+00    0.0     0.00000322       -59.2884773843 -1.01E-10
     7 TBLite/Diag 0.40E+00    0.0     0.00000026       -59.2884773843 -1.78E-13
     8 TBLite/Diag 0.40E+00    0.0     0.00000009       -59.2884773843 -1.85E-13
     9 TBLite/Diag 0.40E+00    0.0     5.3934E-09       -59.2884773843 -2.13E-14
    10 TBLite/Diag 0.40E+00    0.0     3.4844E-09       -59.2884773843 -4.97E-14
    11 TBLite/Diag 0.40E+00    0.0     2.5869E-10       -59.2884773843  1.07E-13

  *** SCF run converged in    11 steps ***


  Core Hamiltonian energy:                                    -60.10774098798753
  Repulsive potential energy:                                   0.85673983020753
  Electrostatic energy:                                         0.04864342081430
  Self-consistent dispersion energy:                           -0.10480195260668
  Non-self consistent dispersion energy:                        0.01868230526850
  Correction for halogen bonding:                               0.00000000000000
  Electronic entropic energy:                                  -0.00000000000000
  Fermi energy:                                                -0.05053648367024

  Total energy:                                               -59.28847738430387
  Total energy (extrapolated to T->0):                        -59.28847738430387

 ENERGY| Total FORCE_EVAL ( QS ) energy [hartree]            -59.288477384303874

 OPT| **************************************************************************
 OPT| Step number                                                              9
 OPT| Optimization method                                                   BFGS
 OPT| Total energy [hartree]                                      -59.2884773843
 OPT| Internal pressure [bar]                                    7030.3011521607
 OPT| Effective energy change [hartree]                            -0.0004151518
 OPT| Predicted energy change [hartree]                            -0.0002667835
 OPT| Scaling factor                                                0.0000000000
 OPT| Step size                                                     0.0151393746
 OPT| Trust radius                                                  0.4724315332
 OPT| Decrease in energy                                                     YES
 OPT| Used time [s]                                                        1.823
 OPT|
 OPT| Maximum step size                                             0.0151393746
 OPT| Convergence limit for maximum step size                       0.0030000000
 OPT| Maximum step size is converged                                          NO
 OPT|
 OPT| RMS step size                                                 0.0036462658
 OPT| Convergence limit for RMS step size                           0.0015000000
 OPT| RMS step size is converged                                              NO
 OPT|
 OPT| Maximum gradient                                              0.0083127008
 OPT| Convergence limit for maximum gradient                        0.0004500000
 OPT| Maximum gradient is converged                                           NO
 OPT|
 OPT| RMS gradient                                                  0.0011616595
 OPT| Convergence limit for RMS gradient                            0.0003000000
 OPT| RMS gradient is converged                                               NO
 OPT|
 OPT| Pressure deviation [bar]                                   7030.3011521607
 OPT| Pressure tolerance [bar]                                    100.0000000000
 OPT| Pressure is converged                                                   NO
 OPT| **************************************************************************
 OPT| Estimated peak process memory after this step [MiB]                    172

 --------------------------
 OPTIMIZATION STEP:     10
 --------------------------

 CELL| Volume [angstrom^3]:                                           422.579253
 CELL| Vector a [angstrom]:       6.847     0.000     0.000   |a| =     6.846611
 CELL| Vector b [angstrom]:      -0.000     6.847     0.000   |b| =     6.846611
 CELL| Vector c [angstrom]:       0.000     0.000     9.015   |c| =     9.014815
 CELL| Angle (b,c), alpha [degree]:                                    89.999996
 CELL| Angle (a,c), beta  [degree]:                                    89.999999
 CELL| Angle (a,b), gamma [degree]:                                    90.000078
 CELL| Numerically orthorhombic:                                              NO
 CELL| Periodicity                                                           XYZ

 Extrapolation method: ASPC

 Number of electrons:                                                        112
 Number of occupied orbitals:                                                 56
 Number of molecular orbitals:                                               112

 Number of orbital functions:                                                112
 Number of independent orbital functions:                                    112


 SCF WAVEFUNCTION OPTIMIZATION

  Step     Update method      Time    Convergence         Total energy    Change
  ------------------------------------------------------------------------------
     1 TBLite/Diag 0.40E+00    0.0     0.00260742       -59.2889233296 -5.93E+01
     2 TBLite/Diag 0.40E+00    0.0     0.00019129       -59.2889238748 -5.45E-07
     3 TBLite/Diag 0.40E+00    0.0     0.00010088       -59.2889239337 -5.89E-08
     4 TBLite/Diag 0.40E+00    0.0     0.00003678       -59.2889239469 -1.32E-08
     5 TBLite/Diag 0.40E+00    0.0     0.00000910       -59.2889239477 -8.04E-10
     6 TBLite/Diag 0.40E+00    0.0     0.00000251       -59.2889239478 -7.81E-11
     7 TBLite/Diag 0.40E+00    0.0     0.00000099       -59.2889239478 -6.95E-12
     8 TBLite/Diag 0.40E+00    0.0     0.00000011       -59.2889239478 -1.07E-13
     9 TBLite/Diag 0.40E+00    0.0     2.0300E-09       -59.2889239478  1.07E-13
    10 TBLite/Diag 0.40E+00    0.0     2.5901E-09       -59.2889239478 -2.13E-14
    11 TBLite/Diag 0.40E+00    0.0     1.9903E-10       -59.2889239478 -4.97E-14

  *** SCF run converged in    11 steps ***


  Core Hamiltonian energy:                                    -60.11443032540081
  Repulsive potential energy:                                   0.86316851961967
  Electrostatic energy:                                         0.04832937344173
  Self-consistent dispersion energy:                           -0.10461528647661
  Non-self consistent dispersion energy:                        0.01862377104210
  Correction for halogen bonding:                               0.00000000000000
  Electronic entropic energy:                                  -0.00000000000000
  Fermi energy:                                                -0.04803324055122

  Total energy:                                               -59.28892394777392
  Total energy (extrapolated to T->0):                        -59.28892394777392

 ENERGY| Total FORCE_EVAL ( QS ) energy [hartree]            -59.288923947773924

 OPT| **************************************************************************
 OPT| Step number                                                             10
 OPT| Optimization method                                                   BFGS
 OPT| Total energy [hartree]                                      -59.2889239478
 OPT| Internal pressure [bar]                                    9929.0394761941
 OPT| Effective energy change [hartree]                            -0.0004465635
 OPT| Predicted energy change [hartree]                            -0.0002908017
 OPT| Scaling factor                                                0.0000000000
 OPT| Step size                                                     0.0169202946
 OPT| Trust radius                                                  0.4724315332
 OPT| Decrease in energy                                                     YES
 OPT| Used time [s]                                                        1.794
 OPT|
 OPT| Maximum step size                                             0.0169202946
 OPT| Convergence limit for maximum step size                       0.0030000000
 OPT| Maximum step size is converged                                          NO
 OPT|
 OPT| RMS step size                                                 0.0047617528
 OPT| Convergence limit for RMS step size                           0.0015000000
 OPT| RMS step size is converged                                              NO
 OPT|
 OPT| Maximum gradient                                              0.0099169350
 OPT| Convergence limit for maximum gradient                        0.0004500000
 OPT| Maximum gradient is converged                                           NO
 OPT|
 OPT| RMS gradient                                                  0.0013714708
 OPT| Convergence limit for RMS gradient                            0.0003000000
 OPT| RMS gradient is converged                                               NO
 OPT|
 OPT| Pressure deviation [bar]                                   9929.0394761941
 OPT| Pressure tolerance [bar]                                    100.0000000000
 OPT| Pressure is converged                                                   NO
 OPT| **************************************************************************
 OPT| Estimated peak process memory after this step [MiB]                    172

 --------------------------
 OPTIMIZATION STEP:     11
 --------------------------

 CELL| Volume [angstrom^3]:                                           424.536179
 CELL| Vector a [angstrom]:       6.867     0.000     0.000   |a| =     6.867200
 CELL| Vector b [angstrom]:      -0.000     6.867     0.000   |b| =     6.867200
 CELL| Vector c [angstrom]:       0.000     0.000     9.002   |c| =     9.002339
 CELL| Angle (b,c), alpha [degree]:                                    89.999997
 CELL| Angle (a,c), beta  [degree]:                                    89.999999
 CELL| Angle (a,b), gamma [degree]:                                    90.000073
 CELL| Numerically orthorhombic:                                              NO
 CELL| Periodicity                                                           XYZ

 Extrapolation method: ASPC

 Number of electrons:                                                        112
 Number of occupied orbitals:                                                 56
 Number of molecular orbitals:                                               112

 Number of orbital functions:                                                112
 Number of independent orbital functions:                                    112


 SCF WAVEFUNCTION OPTIMIZATION

  Step     Update method      Time    Convergence         Total energy    Change
  ------------------------------------------------------------------------------
     1 TBLite/Diag 0.40E+00    0.0     0.00485287       -59.2895724757 -5.93E+01
     2 TBLite/Diag 0.40E+00    0.0     0.00026269       -59.2895732366 -7.61E-07
     3 TBLite/Diag 0.40E+00    0.0     0.00011768       -59.2895732849 -4.83E-08
     4 TBLite/Diag 0.40E+00    0.0     0.00007156       -59.2895733476 -6.27E-08
     5 TBLite/Diag 0.40E+00    0.0     0.00000766       -59.2895733483 -7.06E-10
     6 TBLite/Diag 0.40E+00    0.0     0.00000368       -59.2895733483 -6.37E-11
     7 TBLite/Diag 0.40E+00    0.0     0.00000180       -59.2895733484 -2.31E-11
     8 TBLite/Diag 0.40E+00    0.0     0.00000011       -59.2895733484 -1.14E-13
     9 TBLite/Diag 0.40E+00    0.0     2.2114E-09       -59.2895733484  4.26E-14
    10 TBLite/Diag 0.40E+00    0.0     2.1888E-09       -59.2895733484 -1.28E-13
    11 TBLite/Diag 0.40E+00    0.0     2.9928E-10       -59.2895733484  0.00E+00

  *** SCF run converged in    11 steps ***


  Core Hamiltonian energy:                                    -60.11821564680137
  Repulsive potential energy:                                   0.86614696053805
  Electrostatic energy:                                         0.04816616253450
  Self-consistent dispersion energy:                           -0.10409408438556
  Non-self consistent dispersion energy:                        0.01842325976293
  Correction for halogen bonding:                               0.00000000000000
  Electronic entropic energy:                                  -0.00000000000000
  Fermi energy:                                                -0.04551947384485

  Total energy:                                               -59.28957334835146
  Total energy (extrapolated to T->0):                        -59.28957334835146

 ENERGY| Total FORCE_EVAL ( QS ) energy [hartree]            -59.289573348351460

 OPT| **************************************************************************
 OPT| Step number                                                             11
 OPT| Optimization method                                                   BFGS
 OPT| Total energy [hartree]                                      -59.2895733484
 OPT| Internal pressure [bar]                                   10690.0074284035
 OPT| Effective energy change [hartree]                            -0.0006494006
 OPT| Predicted energy change [hartree]                            -0.0004436229
 OPT| Scaling factor                                                0.0000000000
 OPT| Step size                                                     0.0389063886
 OPT| Trust radius                                                  0.4724315332
 OPT| Decrease in energy                                                     YES
 OPT| Used time [s]                                                        1.785
 OPT|
 OPT| Maximum step size                                             0.0389063886
 OPT| Convergence limit for maximum step size                       0.0030000000
 OPT| Maximum step size is converged                                          NO
 OPT|
 OPT| RMS step size                                                 0.0083298913
 OPT| Convergence limit for RMS step size                           0.0015000000
 OPT| RMS step size is converged                                              NO
 OPT|
 OPT| Maximum gradient                                              0.0093648302
 OPT| Convergence limit for maximum gradient                        0.0004500000
 OPT| Maximum gradient is converged                                           NO
 OPT|
 OPT| RMS gradient                                                  0.0016154576
 OPT| Convergence limit for RMS gradient                            0.0003000000
 OPT| RMS gradient is converged                                               NO
 OPT|
 OPT| Pressure deviation [bar]                                  10690.0074284035
 OPT| Pressure tolerance [bar]                                    100.0000000000
 OPT| Pressure is converged                                                   NO
 OPT| **************************************************************************
 OPT| Estimated peak process memory after this step [MiB]                    172

 --------------------------
 OPTIMIZATION STEP:     12
 --------------------------

 CELL| Volume [angstrom^3]:                                           427.644297
 CELL| Vector a [angstrom]:       6.897     0.000     0.000   |a| =     6.896610
 CELL| Vector b [angstrom]:      -0.000     6.897     0.000   |b| =     6.896610
 CELL| Vector c [angstrom]:       0.000     0.000     8.991   |c| =     8.991068
 CELL| Angle (b,c), alpha [degree]:                                    89.999997
 CELL| Angle (a,c), beta  [degree]:                                    89.999999
 CELL| Angle (a,b), gamma [degree]:                                    90.000069
 CELL| Numerically orthorhombic:                                              NO
 CELL| Periodicity                                                           XYZ

 Extrapolation method: ASPC

 Number of electrons:                                                        112
 Number of occupied orbitals:                                                 56
 Number of molecular orbitals:                                               112

 Number of orbital functions:                                                112
 Number of independent orbital functions:                                    112


 SCF WAVEFUNCTION OPTIMIZATION

  Step     Update method      Time    Convergence         Total energy    Change
  ------------------------------------------------------------------------------
     1 TBLite/Diag 0.40E+00    0.0     0.00579178       -59.2902346833 -5.93E+01
     2 TBLite/Diag 0.40E+00    0.0     0.00020468       -59.2902353589 -6.76E-07
     3 TBLite/Diag 0.40E+00    0.0     0.00012765       -59.2902353943 -3.54E-08
     4 TBLite/Diag 0.40E+00    0.0     0.00007410       -59.2902354754 -8.11E-08
     5 TBLite/Diag 0.40E+00    0.0     0.00001260       -59.2902354755 -7.68E-11
     6 TBLite/Diag 0.40E+00    0.0     0.00000452       -59.2902354758 -3.04E-10
     7 TBLite/Diag 0.40E+00    0.0     0.00000026       -59.2902354758 -5.19E-13
     8 TBLite/Diag 0.40E+00    0.0     0.00000012       -59.2902354758 -1.63E-13
     9 TBLite/Diag 0.40E+00    0.0     6.4150E-09       -59.2902354758 -7.11E-15
    10 TBLite/Diag 0.40E+00    0.0     4.8708E-09       -59.2902354758  4.26E-14
    11 TBLite/Diag 0.40E+00    0.0     4.2015E-10       -59.2902354758  9.24E-14

  *** SCF run converged in    11 steps ***


  Core Hamiltonian energy:                                    -60.11533562197084
  Repulsive potential energy:                                   0.86201487384259
  Electrostatic energy:                                         0.04829260343284
  Self-consistent dispersion energy:                           -0.10331593112251
[...]

  Total energy:                                               -59.30307233432472
  Total energy (extrapolated to T->0):                        -59.30307233432472

 ENERGY| Total FORCE_EVAL ( QS ) energy [hartree]            -59.303072334324717

 OPT| **************************************************************************
 OPT| Step number                                                            199
 OPT| Optimization method                                                   BFGS
 OPT| Total energy [hartree]                                      -59.3030723343
 OPT| Internal pressure [bar]                                   -7262.3295744244
 OPT| Effective energy change [hartree]                             0.0008205594
 OPT| Predicted energy change [hartree]                            -0.0001647024
 OPT| Scaling factor                                                0.9646749547
 OPT| Step size                                                     0.4724315332
 OPT| Trust radius                                                  0.4724315332
 OPT| Decrease in energy                                                      NO
 OPT| Used time [s]                                                        1.668
 OPT|
 OPT| Maximum step size                                             0.4724315332
 OPT| Convergence limit for maximum step size                       0.0030000000
 OPT| Maximum step size is converged                                          NO
 OPT|
 OPT| RMS step size                                                 0.0830239468
 OPT| Convergence limit for RMS step size                           0.0015000000
 OPT| RMS step size is converged                                              NO
 OPT|
 OPT| Maximum gradient                                              0.0103972605
 OPT| Convergence limit for maximum gradient                        0.0004500000
 OPT| Maximum gradient is converged                                           NO
 OPT|
 OPT| RMS gradient                                                  0.0015086330
 OPT| Convergence limit for RMS gradient                            0.0003000000
 OPT| RMS gradient is converged                                               NO
 OPT|
 OPT| Pressure deviation [bar]                                  -7262.3295744244
 OPT| Pressure tolerance [bar]                                    100.0000000000
 OPT| Pressure is converged                                                   NO
 OPT| **************************************************************************
 OPT| Estimated peak process memory after this step [MiB]                    172

 --------------------------
 OPTIMIZATION STEP:    200
 --------------------------

 CELL| Volume [angstrom^3]:                                           450.751090
 CELL| Vector a [angstrom]:       7.565     0.000     0.000   |a| =     7.565469
 CELL| Vector b [angstrom]:      -0.000     7.565     0.000   |b| =     7.565469
 CELL| Vector c [angstrom]:       0.000     0.000     7.875   |c| =     7.875264
 CELL| Angle (b,c), alpha [degree]:                                    89.999931
 CELL| Angle (a,c), beta  [degree]:                                    89.999991
 CELL| Angle (a,b), gamma [degree]:                                    90.000181
 CELL| Numerically orthorhombic:                                              NO
 CELL| Periodicity                                                           XYZ

 Extrapolation method: ASPC

 Number of electrons:                                                        112
 Number of occupied orbitals:                                                 56
 Number of molecular orbitals:                                               112

 Number of orbital functions:                                                112
 Number of independent orbital functions:                                    112


 SCF WAVEFUNCTION OPTIMIZATION

  Step     Update method      Time    Convergence         Total energy    Change
  ------------------------------------------------------------------------------
     1 TBLite/Diag 0.40E+00    0.0     0.00679239       -59.3030983909 -5.93E+01
     2 TBLite/Diag 0.40E+00    0.0     0.00030352       -59.3030997791 -1.39E-06
     3 TBLite/Diag 0.40E+00    0.0     0.00011441       -59.3030999565 -1.77E-07
     4 TBLite/Diag 0.40E+00    0.0     0.00004676       -59.3030999715 -1.50E-08
     5 TBLite/Diag 0.40E+00    0.0     0.00001681       -59.3030999740 -2.43E-09
     6 TBLite/Diag 0.40E+00    0.0     0.00000386       -59.3030999742 -2.54E-10
     7 TBLite/Diag 0.40E+00    0.0     0.00000065       -59.3030999742 -1.38E-12
     8 TBLite/Diag 0.40E+00    0.0     0.00000024       -59.3030999742 -5.83E-13
     9 TBLite/Diag 0.40E+00    0.0     9.9571E-09       -59.3030999742 -7.82E-14
    10 TBLite/Diag 0.40E+00    0.0     5.9699E-09       -59.3030999742 -4.97E-14
    11 TBLite/Diag 0.40E+00    0.0     7.2506E-10       -59.3030999742 -3.55E-14

  *** SCF run converged in    11 steps ***


  Core Hamiltonian energy:                                    -60.11117940465049
  Repulsive potential energy:                                   0.84278556740099
  Electrostatic energy:                                         0.04724963366424
  Self-consistent dispersion energy:                           -0.09789022447299
  Non-self consistent dispersion energy:                        0.01593445383280
  Correction for halogen bonding:                               0.00000000000000
  Electronic entropic energy:                                  -0.00000000000000
  Fermi energy:                                                -0.04003834265408

  Total energy:                                               -59.30309997422545
  Total energy (extrapolated to T->0):                        -59.30309997422545

 ENERGY| Total FORCE_EVAL ( QS ) energy [hartree]            -59.303099974225454

 OPT| **************************************************************************
 OPT| Step number                                                            200
 OPT| Optimization method                                                   BFGS
 OPT| Total energy [hartree]                                      -59.3030999742
 OPT| Internal pressure [bar]                                   -4129.4337896984
 OPT| Effective energy change [hartree]                            -0.0000276399
 OPT| Predicted energy change [hartree]                            -0.0001594949
 OPT| Scaling factor                                                0.9646749547
 OPT| Step size                                                     0.1179143028
 OPT| Trust radius                                                  0.4724315332
 OPT| Decrease in energy                                                      NO
 OPT| Used time [s]                                                        1.697
 OPT|
 OPT| Maximum step size                                             0.1179143028
 OPT| Convergence limit for maximum step size                       0.0030000000
 OPT| Maximum step size is converged                                          NO
 OPT|
 OPT| RMS step size                                                 0.0168211359
 OPT| Convergence limit for RMS step size                           0.0015000000
 OPT| RMS step size is converged                                              NO
 OPT|
 OPT| Maximum gradient                                              0.0076547662
 OPT| Convergence limit for maximum gradient                        0.0004500000
 OPT| Maximum gradient is converged                                           NO
 OPT|
 OPT| RMS gradient                                                  0.0012130896
 OPT| Convergence limit for RMS gradient                            0.0003000000
 OPT| RMS gradient is converged                                               NO
 OPT|
 OPT| Pressure deviation [bar]                                  -4129.4337896984
 OPT| Pressure tolerance [bar]                                    100.0000000000
 OPT| Pressure is converged                                                   NO
 OPT| **************************************************************************
 OPT| Estimated peak process memory after this step [MiB]                    172

 *** MAXIMUM NUMBER OF OPTIMIZATION STEPS REACHED ***
 ***        EXITING GEOMETRY OPTIMIZATION         ***

 write_final_structure: Optimization not yet converged, writing XYZ file anyway:
  adamantane_GFN2_gamma_cell_opt-FINAL-1_200.xyz

 write_final_structure: Optimization not yet converged, writing CIF file anyway:
  adamantane_GFN2_gamma_cell_opt-FINAL-1_200.cif

 write_final_structure: Done!

 -------------------------------------------------------------------------------
 -                                                                             -
 -                                DBCSR STATISTICS                             -
 -                                                                             -
 -------------------------------------------------------------------------------
 COUNTER                                    TOTAL       BLAS       SMM       ACC
 flops     1 x    16 x     1             32440320       0.0%    100.0%      0.0%     
 flops     4 x    16 x     1             81100800       0.0%    100.0%      0.0%     
 flops     1 x    16 x     4             81100800       0.0%    100.0%      0.0%     
 flops     1 x    32 x     1            194641920       0.0%    100.0%      0.0%     
 flops     4 x    16 x     4            202752000       0.0%    100.0%      0.0%     
 flops     1 x     1 x   112            321818112       0.0%    100.0%      0.0%     
 flops     1 x    32 x     4            486604800       0.0%    100.0%      0.0%     
 flops     4 x    32 x     1            486604800       0.0%    100.0%      0.0%     
 flops     4 x     1 x   112            780165120       0.0%    100.0%      0.0%     
 flops     1 x     4 x   112            780165120       0.0%    100.0%      0.0%     
 flops     4 x    32 x     4           1216512000       0.0%    100.0%      0.0%     
 flops     4 x     4 x   112           2047933440       0.0%    100.0%      0.0%     
 flops inhomo. stacks                           0       0.0%      0.0%      0.0%
 flops total                         6.711839E+09       0.0%    100.0%      0.0%
 flops max/rank                      6.711839E+09       0.0%    100.0%      0.0%
 matmuls inhomo. stacks                         0       0.0%      0.0%      0.0%
 matmuls total                           14457378       0.0%    100.0%      0.0%
 number of processed stacks                 25734       0.0%    100.0%      0.0%
 average stack size                                     0.0     561.8       0.0
 marketing flops                     6.604567E+09
 -------------------------------------------------------------------------------
 # multiplications                           3711
 max memory usage/rank              13.678944E+09
 # max total images/rank                        1
 # max 3D layers                                1
 # MPI messages exchanged                       0
 -------------------------------------------------------------------------------
 -                                                                             -
 -                      DBCSR MESSAGE PASSING PERFORMANCE                      -
 -                                                                             -
 -------------------------------------------------------------------------------
 ROUTINE             CALLS      AVE VOLUME [Bytes]
 MP_Bcast               13                     12.
 MP_Allreduce        16618                      8.
 MP_Alltoall        120006                  74882.
 MP_ISend            14844                  10819.
 MP_IRecv            14844                  10819.
 -------------------------------------------------------------------------------

 -------------------------------------------------------------------------------
 -                                                                             -
 -                          OFFLOAD MEMPOOL STATISTICS                         -
 -                                                                             -
 -------------------------------------------------------------------------------
 Memory consumption                Number of allocations  Used [MiB]  Size [MiB]
 Device                                                2           0           0
 Host                                                  2           0           0
 -------------------------------------------------------------------------------

 MEMORY| Estimated peak process memory [MiB]                                 172

 -------------------------------------------------------------------------------
 -                                                                             -
 -                         MESSAGE PASSING PERFORMANCE                         -
 -                                                                             -
 -------------------------------------------------------------------------------

 ROUTINE             CALLS      AVE VOLUME [Bytes]
 MP_Group              201
 MP_Bcast             5441                    465.
 MP_Allreduce        81554                    406.
 MP_Sync              2921
 MP_comm_split        2720
 -------------------------------------------------------------------------------


 -------------------------------------------------------------------------------
 -                                                                             -
 -                           R E F E R E N C E S                               -
 -                                                                             -
 -------------------------------------------------------------------------------
 
 CP2K version 2026.1 (Development Version), the CP2K developers group (2026).
 CP2K is freely available from https://www.cp2k.org/ .
 
 M. Iannuzzi, J. Wilhelm, F. Stein, A. Bussy, H. Elgabarty, D. Golze, A. Hehn, 
 M. Graml, S. Marek, B. Sertcan Gökmen, C. Schran, H. Forbert, R. Z. 
 Khaliullin, A. Kozhevnikov, M. Taillefumier, R. Meli, V. V. Rybkin, M. Brehm, 
 R. Schade, O. Schütt, J. V. Pototschnig, H. Mirhosseini, A. Knüpfer, D. Marx, 
 M. Krack, J. Hutter, T. D. Kühne.
 J. Phys. Chem. B 130, 1237-1310 (2026).
 The CP2K Program Package Made Simple.
 https://doi.org/10.1021/acs.jpcb.5c05851

 A. Katbashev, M. Stahn, T. Rose, V. Alizadeh, M. Friede, C. Plett, P. 
 Steinbach, S. Ehlert.
 J. Phys. Chem. A 129, 2667-2682 (2025).
 Overview on Building Blocks and Applications of Efficient and Robust Extended 
 Tight Binding.
 https://doi.org/10.1021/acs.jpca.4c08263

 T. D. Kühne, M. Iannuzzi, M. Del Ben, V. V. Rybkin, P. Seewald, F. Stein, T. 
 Laino, R. Z. Khaliullin, O. Schütt, F. Schiffmann, D. Golze, J. Wilhelm, S. 
 Chulkov, M. H. Bani-Hashemian, V. Weber, U. Borstnik, M. Taillefumier, A. S. 
 Jakobovits, A. Lazzaro, H. Pabst, T. Müller, R. Schade, M. Guidon, S. 
 Andermatt, N. Holmberg, G. K. Schenter, A. Hehn, A. Bussy, F. Belleflamme, G. 
 Tabacchi, A. Glöß, M. Lass, I. Bethune, C. J. Mundy, C. Plessl, M. Watkins, 
 J. VandeVondele, M. Krack, J. Hutter.
 J. Chem. Phys. 152, 194103 (2020).
 CP2K: An electronic structure and molecular dynamics software package - 
 Quickstep: Efficient and accurate electronic structure calculations.
 https://doi.org/10.1063/5.0007045

 P. Pracht, E. Caldeweyher, S. Ehlert, S. Grimme.
 ChemRxiv, (2019).
 A Robust Non-Self-Consistent Tight-Binding Quantum Chemistry Method for large 
 Molecules.
 https://doi.org/10.26434/chemrxiv.8326202.v1

 S. Grimme, C. Bannwarth, P. Shushkov.
 J. Chem. Theory Comput. 13, 1989 (2017).
 A Robust and Accurate Tight-Binding Quantum Chemical Method for Structures, 
 Vibrational Frequencies, and Noncovalent Interactions of Large Molecular 
 Systems Parametrized for All spd-Block Elements (Z = 1-86).
 https://doi.org/10.1021/acs.jctc.7b00118

 O. Schuett, P. Messmer, J. Hutter, J. VandeVondele.
 Electronic Structure Calculations on Graphics Processing Units, 173-190 (2016).
 GPU-Accelerated Sparse Matrix-Matrix Multiplication for Linear Scaling Density 
 Functional Theory.
 https://doi.org/10.1002/9781118670712.ch8

 A. Heinecke, G. Henry, M. Hutchinson, H. Pabst.
 Proceedings of Intl. Supercomputing Conference, 981-991 (2016).
 LIBXSMM: Accelerating Small Matrix Multiplications by Runtime Code Generation.
 https://doi.org/10.1109/SC.2016.83

 U. Borstnik, J. VandeVondele, V. Weber, J. Hutter.
 Parallel Comput. 40, 47-58 (2014).
 Sparse matrix multiplication: The distributed block-compressed sparse row 
 library.
 https://doi.org/10.1016/j.parco.2014.03.012

 T. D. Kühne, M. Krack, F. R. Mohamed, M. Parrinello.
 Phys. Rev. Lett. 98, 066401 (2007).
 Efficient and accurate Car-Parrinello-like approach to Born-Oppenheimer 
 molecular dynamics.
 https://doi.org/10.1103/PhysRevLett.98.066401

 M. Frigo, S. G. Johnson.
 Proc. IEEE 93, 216-231 (2005).
 The design and implementation of FFTW3.
 https://doi.org/10.1109/JPROC.2004.840301

 J. Kolafa.
 J. Comput. Chem. 25, 335-342 (2004).
 Time-reversible always stable predictor-corrector method for molecular dynamics 
 of polarizable molecules.
 https://doi.org/10.1002/jcc.10385

 N. D. Mermin.
 Phys. Rev. 137, A1441-A1443 (1965).
 Thermal Properties of the Inhomogeneous Electron Gas.
 https://doi.org/10.1103/PhysRev.137.A1441


 -------------------------------------------------------------------------------
 -                                                                             -
 -                                T I M I N G                                  -
 -                                                                             -
 -------------------------------------------------------------------------------
 SUBROUTINE                       CALLS  ASD         SELF TIME        TOTAL TIME
                                MAXIMUM       AVERAGE  MAXIMUM  AVERAGE  MAXIMUM
 CP2K                                 1  1.0    0.002    0.002  339.152  339.152
 cp_cell_opt                          1  2.0    0.000    0.000  339.145  339.145
 geoopt_bfgs                          1  3.0    0.020    0.020  339.145  339.145
 cp_eval_at                         201  4.0    0.020    0.020  338.610  338.610
 qs_forces                          201  5.0    0.011    0.011  338.586  338.586
 build_tblite_matrices              402  7.0  275.621  275.621  282.038  282.038
 qs_energies                        201  6.0    0.005    0.005   98.724   98.724
 qs_energies_init_hamiltonians      201  7.0    0.001    0.001   80.502   80.502
 rebuild_ks_matrix                 2521  9.8    0.002    0.002   43.467   43.467
 build_tblite_ks_matrix            2521 10.8   43.417   43.417   43.464   43.464
 qs_ks_update_qs_env_forces         201  6.0    0.001    0.001   37.951   37.951
 scf_env_do_scf                     201  7.0    0.003    0.003   16.196   16.196
 scf_env_do_scf_inner_loop         2320  8.0    2.740    2.740   16.183   16.183
 qs_scf_new_mos                    2320  9.0    0.010    0.010    7.266    7.266
 -------------------------------------------------------------------------------

 The number of warnings for this run is : 0
 
 -------------------------------------------------------------------------------
  **** **** ******  **  PROGRAM ENDED AT                 2026-05-23 22:52:48.610
 ***** ** ***  *** **   PROGRAM RAN ON                                spark-c86c
 **    ****   ******    PROGRAM RAN BY                                  kuehne88
 ***** **    ** ** **   PROGRAM PROCESS ID                               2267926
  **** **  *******  **  PROGRAM STOPPED IN /home/kuehne88/periodic-gfn2-benchmar
                                           ks/X23b/runs/cellopt_gamma/GFN2/adama
                                           ntane_GFN2_gamma_cellopt
