 DBCSR| CPU Multiplication driver                                           XSMM (U)
 DBCSR| Multrec recursion limit                                              512 (U)
 DBCSR| Multiplication stack size                                           1000 (D)
 DBCSR| Maximum elements for images                                    UNLIMITED (U)
 DBCSR| Multiplicative factor virtual images                                   1 (U)
 DBCSR| Use multiplication densification                                       T (D)
 DBCSR| Multiplication size stacks                                             3 (U)
 DBCSR| Use memory pool for CPU allocation                                     F (U)
 DBCSR| Number of 3D layers                                               SINGLE (U)
 DBCSR| Use MPI memory allocation                                              F (U)
 DBCSR| Use RMA algorithm                                                      F (U)
 DBCSR| Use Communication thread                                               T (U)
 DBCSR| Communication thread load                                             87 (D)
 DBCSR| MPI: My process id                                                     0
 DBCSR| MPI: Number of processes                                               1
 DBCSR| OMP: Current number of threads                                         1
 DBCSR| OMP: Max number of threads                                             1
 DBCSR| Split modifier for TAS multiplication algorithm                  1.0E+00 (U)


  **** **** ******  **  PROGRAM STARTED AT               2026-05-23 23:04:09.182
 ***** ** ***  *** **   PROGRAM STARTED ON                            spark-c86c
 **    ****   ******    PROGRAM STARTED BY                              kuehne88
 ***** **    ** ** **   PROGRAM PROCESS ID                               2275617
  **** **  *******  **  PROGRAM STARTED IN /home/kuehne88/periodic-gfn2-benchmar
                                           ks/X23b/runs/cellopt_gamma/GFN2/adama
                                           ntane_GFN2_gamma_cellopt

 CP2K| version string:                 CP2K version 2026.1 (Development Version)
 CP2K| source code revision number:                                   0622d442e4
 CP2K| cp2kflags: omp fftw3 libxc parallel scalapack mpi_f08 xsmm spglib libdftd
 CP2K|            4 dftd4_v3 mctc-lib tblite
 CP2K| is freely available from                            https://www.cp2k.org/
 CP2K| Program compiled at                                   2026-05-23 22:05:08
 CP2K| Program compiled on                                            spark-c86c
 CP2K| Program compiled for                                              aarch64
 CP2K| Data directory path    /home/kuehne88/cp2k-master-tblite-20260523/install
 CP2K| Input file name                                          continue_800.inp

 GLOBAL| Force Environment number                                              1
 GLOBAL| Basis set file name                                           BASIS_SET
 GLOBAL| Potential file name                                           POTENTIAL
 GLOBAL| MM Potential file name                                     MM_POTENTIAL
 GLOBAL| Coordinate file name                                      __STD_INPUT__
 GLOBAL| Method name                                                        CP2K
 GLOBAL| Project name                             adamantane_GFN2_gamma_cell_opt
 GLOBAL| Run type                                                       CELL_OPT
 GLOBAL| FFT library                                                       FFTW3
 GLOBAL| Diagonalization library                                       ScaLAPACK
 GLOBAL| Cholesky decomposition library                                ScaLAPACK
 GLOBAL| DGEMM library                                                      BLAS
 GLOBAL| Direct generalized diagonalization requested                          F
 GLOBAL| Orthonormality check for eigenvectors                          DISABLED
 GLOBAL| Matrix multiplication library                                 ScaLAPACK
 GLOBAL| All-to-all communication in single precision                          F
 GLOBAL| FFTs using library dependent lengths                                  F
 GLOBAL| Grid backend                                                       AUTO
 GLOBAL| Global print level                                                  LOW
 GLOBAL| MPI I/O enabled                                                       T
 GLOBAL| Total number of message passing processes                             1
 GLOBAL| Number of distributed systems (nodes)                                 1
 GLOBAL| Number of threads for this process                                    1
 GLOBAL| This output is from process                                           0
 GLOBAL| OpenMP stack size per thread (OMP_STACKSIZE)                    default
 GLOBAL| CPU model name                                                  UNKNOWN
 GLOBAL| CPUID                                                              2200
 GLOBAL| Compiled for CPUID                                                 2000

 *** HINT in environment.F:970 :: The compiler target flags (arm_arch64)   ***
 *** used to build this binary cannot exploit all extensions of this CPU   ***
 *** model (arm_sve256). Consider compiler target flags as part of FCFLAGS ***
 *** and CFLAGS (ARCH file).                                               ***


 MEMORY| system memory details [Kb]
 MEMORY|                        rank 0           min           max       average
 MEMORY| MemTotal            125508532     125508532     125508532     125508532
 MEMORY| MemFree             106144840     106144840     106144840     106144840
 MEMORY| Buffers                870280        870280        870280        870280
 MEMORY| Cached               14131464      14131464      14131464      14131464
 MEMORY| Slab                  1599224       1599224       1599224       1599224
 MEMORY| SReclaimable           926060        926060        926060        926060
 MEMORY| MemLikelyFree       122072644     122072644     122072644     122072644


 GENERATE|  Preliminary Number of Bonds generated:                             0
 GENERATE|  Achieved consistency in connectivity generation.


                  #####   #####        #     #   #     #       #          
                 #     # #     #      #    ##### #     #   # #####  ####  
                 #     # #           #       #   ###   #       #   #    # 
                 #     #  #####     #        #   #  #  #   #   #   ###### 
                 #   # #       #   #         #   #   # #   #   #   #      
                 #    #  #     #  #          #   #  #  # # #   #    #   # 
                  #### #  #####  #           #   ###   ##  #   #     ###  

                                   GFN2-xTB  
                                 Version 0.0                       
                            Johann V. Pototschnig                  



 TOTAL NUMBERS AND MAXIMUM NUMBERS

  Total number of            - Atomic kinds:                                   2
                             - Atoms:                                         52
                             - Shell sets:                                    72
                             - Shells:                                        72
                             - Primitive Cartesian functions:                256
                             - Cartesian basis functions:                    112
                             - Spherical basis functions:                    112

  Maximum angular momentum of the orbital basis functions:                     1


 SCF PARAMETERS         Density guess:                                     MOPAC
                        --------------------------------------------------------
                        max_scf:                                             300
                        max_scf_history:                                       0
                        max_diis:                                              4
                        --------------------------------------------------------
                        eps_scf:                                        1.00E-09
                        eps_scf_history:                                0.00E+00
                        eps_diis:                                       1.00E-01
                        eps_eigval:                                     1.00E-05
                        --------------------------------------------------------
                        level_shift [a.u.]:                             0.000000
                        added MOs                                        56    0
                        --------------------------------------------------------
                        Mixing method:                           DIRECT_P_MIXING
                        --------------------------------------------------------
                        Smear method:                                FERMI_DIRAC
                        Electronic temperature [K]:                        300.0
                        Electronic temperature [a.u.]:                  9.50E-04
                        Accuracy threshold:                             1.00E-06
                        --------------------------------------------------------
                        No outer SCF

 CELL_OPT| Pressure tolerance [bar]:                                       100.0
 CELL_OPT| Keep volume of cell:                                               NO
 CELL_OPT| Keep angles between the cell vectors:                              NO
 CELL_OPT| Keep cell symmetry:                                                NO
 CELL_OPT| Constraint:                                                      NONE

 BFGS| Use rational function optimization for step estimation:                NO
 BFGS| Use model Hessian for initial guess:                                   NO
 BFGS| Restart Hessian:                                                       NO
 BFGS| Trust radius:                                                       0.472

 *******************************************************************************
 ***                     STARTING   CELL   OPTIMIZATION                      ***
 ***                                   BFGS                                  ***
 *******************************************************************************

 CELL| Volume [angstrom^3]:                                           450.751090
 CELL| Vector a [angstrom]:       7.565     0.000     0.000   |a| =     7.565469
 CELL| Vector b [angstrom]:      -0.000     7.565     0.000   |b| =     7.565469
 CELL| Vector c [angstrom]:       0.000     0.000     7.875   |c| =     7.875264
 CELL| Angle (b,c), alpha [degree]:                                    89.999931
 CELL| Angle (a,c), beta  [degree]:                                    89.999991
 CELL| Angle (a,b), gamma [degree]:                                    90.000181
 CELL| Numerically orthorhombic:                                              NO
 CELL| Periodicity                                                           XYZ

 Extrapolation method: initial_guess

 Number of electrons:                                                        112
 Number of occupied orbitals:                                                 56
 Number of molecular orbitals:                                               112

 Number of orbital functions:                                                112
 Number of independent orbital functions:                                    112


 SCF WAVEFUNCTION OPTIMIZATION

  Step     Update method      Time    Convergence         Total energy    Change
  ------------------------------------------------------------------------------
     1 TBLite/Diag 0.40E+00    0.0     0.47961780       -59.2794970026 -5.93E+01
     2 TBLite/Diag 0.40E+00    0.0     0.03592859       -59.3016805094 -2.22E-02
     3 TBLite/Diag 0.40E+00    0.0     0.00941554       -59.3028988873 -1.22E-03
     4 TBLite/Diag 0.40E+00    0.0     0.00439612       -59.3030683670 -1.69E-04
     5 TBLite/Diag 0.40E+00    0.0     0.00158542       -59.3030976663 -2.93E-05
     6 TBLite/Diag 0.40E+00    0.0     0.00029052       -59.3030999683 -2.30E-06
     7 TBLite/Diag 0.40E+00    0.0     0.00003740       -59.3030999732 -4.91E-09
     8 TBLite/Diag 0.40E+00    0.0     0.00001182       -59.3030999741 -9.41E-10
     9 TBLite/Diag 0.40E+00    0.0     0.00000243       -59.3030999742 -7.70E-11
    10 TBLite/Diag 0.40E+00    0.0     0.00000070       -59.3030999742 -1.49E-12
    11 TBLite/Diag 0.40E+00    0.0     0.00000014       -59.3030999742  7.11E-14
    12 TBLite/Diag 0.40E+00    0.0     0.00000004       -59.3030999742 -1.56E-13
    13 TBLite/Diag 0.40E+00    0.0     3.6907E-09       -59.3030999742  2.13E-14
    14 TBLite/Diag 0.40E+00    0.0     5.4001E-10       -59.3030999742 -2.84E-14

  *** SCF run converged in    14 steps ***


  Core Hamiltonian energy:                                    -60.11117940462525
  Repulsive potential energy:                                   0.84278556740099
  Electrostatic energy:                                         0.04724963364049
  Self-consistent dispersion energy:                           -0.09789022447439
  Non-self consistent dispersion energy:                        0.01593445383280
  Correction for halogen bonding:                               0.00000000000000
  Electronic entropic energy:                                  -0.00000000000000
  Fermi energy:                                                -0.04003834265832

  Total energy:                                               -59.30309997422536
  Total energy (extrapolated to T->0):                        -59.30309997422536

 ENERGY| Total FORCE_EVAL ( QS ) energy [hartree]            -59.303099974225361

 OPT| **************************************************************************
 OPT| Step number                                                            200
 OPT| Optimization method                                                   BFGS
 OPT| Total energy [hartree]                                      -59.3030999742
 OPT| Internal pressure [bar]                                   -4129.4338282470
 OPT| Used time [s]                                                        1.720

 --------------------------
 OPTIMIZATION STEP:    201
 --------------------------

 CELL| Volume [angstrom^3]:                                           450.488025
 CELL| Vector a [angstrom]:       7.565     0.000     0.000   |a| =     7.565207
 CELL| Vector b [angstrom]:      -0.000     7.565     0.000   |b| =     7.565207
 CELL| Vector c [angstrom]:       0.000     0.000     7.871   |c| =     7.871213
 CELL| Angle (b,c), alpha [degree]:                                    89.999927
 CELL| Angle (a,c), beta  [degree]:                                    89.999991
 CELL| Angle (a,b), gamma [degree]:                                    90.000187
 CELL| Numerically orthorhombic:                                              NO
 CELL| Periodicity                                                           XYZ

 Extrapolation method: ASPC

 Number of electrons:                                                        112
 Number of occupied orbitals:                                                 56
 Number of molecular orbitals:                                               112

 Number of orbital functions:                                                112
 Number of independent orbital functions:                                    112


 SCF WAVEFUNCTION OPTIMIZATION

  Step     Update method      Time    Convergence         Total energy    Change
  ------------------------------------------------------------------------------
     1 TBLite/Diag 0.40E+00    0.0     0.00148871       -59.3032838809 -5.93E+01
     2 TBLite/Diag 0.40E+00    0.0     0.00012988       -59.3032841056 -2.25E-07
     3 TBLite/Diag 0.40E+00    0.0     0.00006858       -59.3032841180 -1.24E-08
     4 TBLite/Diag 0.40E+00    0.0     0.00003095       -59.3032841380 -2.01E-08
     5 TBLite/Diag 0.40E+00    0.0     0.00000527       -59.3032841381 -9.89E-11
     6 TBLite/Diag 0.40E+00    0.0     0.00000259       -59.3032841382 -6.41E-11
     7 TBLite/Diag 0.40E+00    0.0     0.00000089       -59.3032841382 -7.31E-12
     8 TBLite/Diag 0.40E+00    0.0     0.00000018       -59.3032841382 -4.26E-14
     9 TBLite/Diag 0.40E+00    0.0     8.8627E-09       -59.3032841382 -2.49E-13
    10 TBLite/Diag 0.40E+00    0.0     1.3920E-09       -59.3032841382  1.85E-13
    11 TBLite/Diag 0.40E+00    0.0     4.6071E-10       -59.3032841382  8.53E-14

  *** SCF run converged in    11 steps ***


  Core Hamiltonian energy:                                    -60.11420244610272
  Repulsive potential energy:                                   0.84581851183429
  Electrostatic energy:                                         0.04708428431053
  Self-consistent dispersion energy:                           -0.09793900847081
  Non-self consistent dispersion energy:                        0.01595452024293
  Correction for halogen bonding:                               0.00000000000000
  Electronic entropic energy:                                  -0.00000000000000
  Fermi energy:                                                -0.03934500528485

  Total energy:                                               -59.30328413818579
  Total energy (extrapolated to T->0):                        -59.30328413818579

 ENERGY| Total FORCE_EVAL ( QS ) energy [hartree]            -59.303284138185795

 OPT| **************************************************************************
 OPT| Step number                                                            201
 OPT| Optimization method                                                   BFGS
 OPT| Total energy [hartree]                                      -59.3032841382
 OPT| Internal pressure [bar]                                   -2658.8843135334
 OPT| Effective energy change [hartree]                            -0.0001841640
 OPT| Predicted energy change [hartree]                            -0.0001131427
 OPT| Scaling factor                                                0.0000000000
 OPT| Step size                                                     0.0076547662
 OPT| Trust radius                                                  0.4724315332
 OPT| Decrease in energy                                                     YES
 OPT| Used time [s]                                                        1.711
 OPT|
 OPT| Maximum step size                                             0.0076547662
 OPT| Convergence limit for maximum step size                       0.0030000000
 OPT| Maximum step size is converged                                          NO
 OPT|
 OPT| RMS step size                                                 0.0011818731
 OPT| Convergence limit for RMS step size                           0.0015000000
 OPT| RMS step size is converged                                             YES
 OPT|
 OPT| Maximum gradient                                              0.0059241295
 OPT| Convergence limit for maximum gradient                        0.0004500000
 OPT| Maximum gradient is converged                                           NO
 OPT|
 OPT| RMS gradient                                                  0.0007983841
 OPT| Convergence limit for RMS gradient                            0.0003000000
 OPT| RMS gradient is converged                                               NO
 OPT|
 OPT| Pressure deviation [bar]                                  -2658.8843135334
 OPT| Pressure tolerance [bar]                                    100.0000000000
 OPT| Pressure is converged                                                   NO
 OPT| **************************************************************************
 OPT| Estimated peak process memory after this step [MiB]                    170

 --------------------------
 OPTIMIZATION STEP:    202
 --------------------------

 CELL| Volume [angstrom^3]:                                           449.923440
 CELL| Vector a [angstrom]:       7.565     0.000     0.000   |a| =     7.565381
 CELL| Vector b [angstrom]:      -0.000     7.565     0.000   |b| =     7.565380
 CELL| Vector c [angstrom]:       0.000     0.000     7.861   |c| =     7.860987
 CELL| Angle (b,c), alpha [degree]:                                    89.999923
 CELL| Angle (a,c), beta  [degree]:                                    89.999991
 CELL| Angle (a,b), gamma [degree]:                                    90.000238
 CELL| Numerically orthorhombic:                                              NO
 CELL| Periodicity                                                           XYZ

 Extrapolation method: ASPC

 Number of electrons:                                                        112
 Number of occupied orbitals:                                                 56
 Number of molecular orbitals:                                               112

 Number of orbital functions:                                                112
 Number of independent orbital functions:                                    112


 SCF WAVEFUNCTION OPTIMIZATION

  Step     Update method      Time    Convergence         Total energy    Change
  ------------------------------------------------------------------------------
     1 TBLite/Diag 0.40E+00    0.0     0.00204125       -59.3034874707 -5.93E+01
     2 TBLite/Diag 0.40E+00    0.0     0.00021006       -59.3034880139 -5.43E-07
     3 TBLite/Diag 0.40E+00    0.0     0.00014356       -59.3034880957 -8.18E-08
     4 TBLite/Diag 0.40E+00    0.0     0.00006259       -59.3034881493 -5.36E-08
     5 TBLite/Diag 0.40E+00    0.0     0.00001277       -59.3034881497 -3.90E-10
     6 TBLite/Diag 0.40E+00    0.0     0.00000485       -59.3034881500 -2.79E-10
     7 TBLite/Diag 0.40E+00    0.0     0.00000126       -59.3034881500 -1.37E-11
     8 TBLite/Diag 0.40E+00    0.0     0.00000030       -59.3034881500 -5.19E-13
     9 TBLite/Diag 0.40E+00    0.0     0.00000002       -59.3034881500  1.14E-13
    10 TBLite/Diag 0.40E+00    0.0     4.5514E-09       -59.3034881500  3.55E-14
    11 TBLite/Diag 0.40E+00    0.0     1.0443E-09       -59.3034881500  2.13E-14
    12 TBLite/Diag 0.40E+00    0.0     2.4564E-10       -59.3034881500  8.53E-14

  *** SCF run converged in    12 steps ***


  Core Hamiltonian energy:                                    -60.12043797737149
  Repulsive potential energy:                                   0.85228442201258
  Electrostatic energy:                                         0.04671688246758
  Self-consistent dispersion energy:                           -0.09804695441176
  Non-self consistent dispersion energy:                        0.01599547729963
  Correction for halogen bonding:                               0.00000000000000
  Electronic entropic energy:                                  -0.00000000000000
  Fermi energy:                                                -0.03802787320702

  Total energy:                                               -59.30348815000346
  Total energy (extrapolated to T->0):                        -59.30348815000346

 ENERGY| Total FORCE_EVAL ( QS ) energy [hartree]            -59.303488150003460

 OPT| **************************************************************************
 OPT| Step number                                                            202
 OPT| Optimization method                                                   BFGS
 OPT| Total energy [hartree]                                      -59.3034881500
 OPT| Internal pressure [bar]                                     536.5633728781
 OPT| Effective energy change [hartree]                            -0.0002040118
 OPT| Predicted energy change [hartree]                            -0.0001704190
 OPT| Scaling factor                                                0.0000000000
 OPT| Step size                                                     0.0193244499
 OPT| Trust radius                                                  0.4724315332
 OPT| Decrease in energy                                                     YES
 OPT| Used time [s]                                                        1.720
 OPT|
 OPT| Maximum step size                                             0.0193244499
 OPT| Convergence limit for maximum step size                       0.0030000000
 OPT| Maximum step size is converged                                          NO
 OPT|
 OPT| RMS step size                                                 0.0026413888
 OPT| Convergence limit for RMS step size                           0.0015000000
 OPT| RMS step size is converged                                              NO
 OPT|
 OPT| Maximum gradient                                              0.0018721877
 OPT| Convergence limit for maximum gradient                        0.0004500000
 OPT| Maximum gradient is converged                                           NO
 OPT|
 OPT| RMS gradient                                                  0.0005522137
 OPT| Convergence limit for RMS gradient                            0.0003000000
 OPT| RMS gradient is converged                                               NO
 OPT|
 OPT| Pressure deviation [bar]                                    536.5633728781
 OPT| Pressure tolerance [bar]                                    100.0000000000
 OPT| Pressure is converged                                                   NO
 OPT| **************************************************************************
 OPT| Estimated peak process memory after this step [MiB]                    171

 --------------------------
 OPTIMIZATION STEP:    203
 --------------------------

 CELL| Volume [angstrom^3]:                                           449.789351
 CELL| Vector a [angstrom]:       7.566     0.000     0.000   |a| =     7.566327
 CELL| Vector b [angstrom]:      -0.000     7.566     0.000   |b| =     7.566327
 CELL| Vector c [angstrom]:       0.000     0.000     7.857   |c| =     7.856679
 CELL| Angle (b,c), alpha [degree]:                                    89.999925
 CELL| Angle (a,c), beta  [degree]:                                    89.999990
 CELL| Angle (a,b), gamma [degree]:                                    90.000275
 CELL| Numerically orthorhombic:                                              NO
 CELL| Periodicity                                                           XYZ

 Extrapolation method: ASPC

 Number of electrons:                                                        112
 Number of occupied orbitals:                                                 56
 Number of molecular orbitals:                                               112

 Number of orbital functions:                                                112
 Number of independent orbital functions:                                    112


 SCF WAVEFUNCTION OPTIMIZATION

  Step     Update method      Time    Convergence         Total energy    Change
  ------------------------------------------------------------------------------
     1 TBLite/Diag 0.40E+00    0.0     0.00080284       -59.3035420332 -5.93E+01
     2 TBLite/Diag 0.40E+00    0.0     0.00007959       -59.3035420831 -4.98E-08
     3 TBLite/Diag 0.40E+00    0.0     0.00005387       -59.3035420943 -1.12E-08
     4 TBLite/Diag 0.40E+00    0.0     0.00002450       -59.3035420998 -5.54E-09
     5 TBLite/Diag 0.40E+00    0.0     0.00000271       -59.3035420998 -3.11E-11
     6 TBLite/Diag 0.40E+00    0.0     0.00000118       -59.3035420999 -2.18E-11
     7 TBLite/Diag 0.40E+00    0.0     0.00000011       -59.3035420999 -4.97E-14
     8 TBLite/Diag 0.40E+00    0.0     0.00000003       -59.3035420999 -9.95E-14
     9 TBLite/Diag 0.40E+00    0.0     6.3107E-09       -59.3035420999  1.63E-13
    10 TBLite/Diag 0.40E+00    0.0     7.5113E-10       -59.3035420999 -2.13E-14

  *** SCF run converged in    10 steps ***


  Core Hamiltonian energy:                                    -60.12185466486429
  Repulsive potential energy:                                   0.85376046703122
  Electrostatic energy:                                         0.04661999527297
  Self-consistent dispersion energy:                           -0.09807454125170
  Non-self consistent dispersion energy:                        0.01600664395337
  Correction for halogen bonding:                               0.00000000000000
  Electronic entropic energy:                                  -0.00000000000000
  Fermi energy:                                                -0.03774559803912

  Total energy:                                               -59.30354209985843
  Total energy (extrapolated to T->0):                        -59.30354209985843

 ENERGY| Total FORCE_EVAL ( QS ) energy [hartree]            -59.303542099858426

 OPT| **************************************************************************
 OPT| Step number                                                            203
 OPT| Optimization method                                                   BFGS
 OPT| Total energy [hartree]                                      -59.3035420999
 OPT| Internal pressure [bar]                                    1310.3286631697
 OPT| Effective energy change [hartree]                            -0.0000539499
 OPT| Predicted energy change [hartree]                            -0.0000353518
 OPT| Scaling factor                                                0.0000000000
 OPT| Step size                                                     0.0081406913
 OPT| Trust radius                                                  0.4724315332
 OPT| Decrease in energy                                                     YES
 OPT| Used time [s]                                                        1.707
 OPT|
 OPT| Maximum step size                                             0.0081406913
 OPT| Convergence limit for maximum step size                       0.0030000000
 OPT| Maximum step size is converged                                          NO
 OPT|
 OPT| RMS step size                                                 0.0011461324
 OPT| Convergence limit for RMS step size                           0.0015000000
 OPT| RMS step size is converged                                             YES
 OPT|
 OPT| Maximum gradient                                              0.0016633109
 OPT| Convergence limit for maximum gradient                        0.0004500000
 OPT| Maximum gradient is converged                                           NO
 OPT|
 OPT| RMS gradient                                                  0.0004651857
 OPT| Convergence limit for RMS gradient                            0.0003000000
 OPT| RMS gradient is converged                                               NO
 OPT|
 OPT| Pressure deviation [bar]                                   1310.3286631697
 OPT| Pressure tolerance [bar]                                    100.0000000000
 OPT| Pressure is converged                                                   NO
 OPT| **************************************************************************
 OPT| Estimated peak process memory after this step [MiB]                    171

 --------------------------
 OPTIMIZATION STEP:    204
 --------------------------

 CELL| Volume [angstrom^3]:                                           449.769300
 CELL| Vector a [angstrom]:       7.569     0.000     0.000   |a| =     7.568748
 CELL| Vector b [angstrom]:      -0.000     7.569     0.000   |b| =     7.568748
 CELL| Vector c [angstrom]:       0.000     0.000     7.851   |c| =     7.851302
 CELL| Angle (b,c), alpha [degree]:                                    89.999928
 CELL| Angle (a,c), beta  [degree]:                                    89.999990
 CELL| Angle (a,b), gamma [degree]:                                    90.000331
 CELL| Numerically orthorhombic:                                              NO
 CELL| Periodicity                                                           XYZ

 Extrapolation method: ASPC

 Number of electrons:                                                        112
 Number of occupied orbitals:                                                 56
 Number of molecular orbitals:                                               112

 Number of orbital functions:                                                112
 Number of independent orbital functions:                                    112


 SCF WAVEFUNCTION OPTIMIZATION

  Step     Update method      Time    Convergence         Total energy    Change
  ------------------------------------------------------------------------------
     1 TBLite/Diag 0.40E+00    0.0     0.00136576       -59.3035981307 -5.93E+01
     2 TBLite/Diag 0.40E+00    0.0     0.00012543       -59.3035982466 -1.16E-07
     3 TBLite/Diag 0.40E+00    0.0     0.00008643       -59.3035982631 -1.66E-08
     4 TBLite/Diag 0.40E+00    0.0     0.00003726       -59.3035982737 -1.06E-08
     5 TBLite/Diag 0.40E+00    0.0     0.00000414       -59.3035982737 -2.73E-11
     6 TBLite/Diag 0.40E+00    0.0     0.00000180       -59.3035982738 -2.87E-11
     7 TBLite/Diag 0.40E+00    0.0     0.00000033       -59.3035982738 -1.44E-12
     8 TBLite/Diag 0.40E+00    0.0     0.00000009       -59.3035982738 -1.78E-13
     9 TBLite/Diag 0.40E+00    0.0     3.7268E-09       -59.3035982738  9.95E-14
    10 TBLite/Diag 0.40E+00    0.0     2.1719E-09       -59.3035982738  4.97E-14
    11 TBLite/Diag 0.40E+00    0.0     2.4119E-10       -59.3035982738  0.00E+00

  *** SCF run converged in    11 steps ***


  Core Hamiltonian energy:                                    -60.12206439076024
  Repulsive potential energy:                                   0.85395315575078
  Electrostatic energy:                                         0.04658600666341
  Self-consistent dispersion energy:                           -0.09808202864982
  Non-self consistent dispersion energy:                        0.01600898323424
  Correction for halogen bonding:                               0.00000000000000
  Electronic entropic energy:                                  -0.00000000000000
  Fermi energy:                                                -0.03768363317019

  Total energy:                                               -59.30359827376163
  Total energy (extrapolated to T->0):                        -59.30359827376163

 ENERGY| Total FORCE_EVAL ( QS ) energy [hartree]            -59.303598273761629

 OPT| **************************************************************************
 OPT| Step number                                                            204
 OPT| Optimization method                                                   BFGS
 OPT| Total energy [hartree]                                      -59.3035982738
 OPT| Internal pressure [bar]                                    1457.6142022426
 OPT| Effective energy change [hartree]                            -0.0000561739
 OPT| Predicted energy change [hartree]                            -0.0000455628
 OPT| Scaling factor                                                0.0000000000
 OPT| Step size                                                     0.0101613117
 OPT| Trust radius                                                  0.4724315332
 OPT| Decrease in energy                                                     YES
 OPT| Used time [s]                                                        1.712
 OPT|
 OPT| Maximum step size                                             0.0101613117
 OPT| Convergence limit for maximum step size                       0.0030000000
 OPT| Maximum step size is converged                                          NO
 OPT|
 OPT| RMS step size                                                 0.0017230403
 OPT| Convergence limit for RMS step size                           0.0015000000
 OPT| RMS step size is converged                                              NO
 OPT|
 OPT| Maximum gradient                                              0.0011271527
 OPT| Convergence limit for maximum gradient                        0.0004500000
 OPT| Maximum gradient is converged                                           NO
 OPT|
 OPT| RMS gradient                                                  0.0002985068
 OPT| Convergence limit for RMS gradient                            0.0003000000
 OPT| RMS gradient is converged                                              YES
 OPT|
 OPT| Pressure deviation [bar]                                   1457.6142022426
 OPT| Pressure tolerance [bar]                                    100.0000000000
 OPT| Pressure is converged                                                   NO
 OPT| **************************************************************************
 OPT| Estimated peak process memory after this step [MiB]                    171

 --------------------------
 OPTIMIZATION STEP:    205
 --------------------------

 CELL| Volume [angstrom^3]:                                           449.881280
 CELL| Vector a [angstrom]:       7.570     0.000     0.000   |a| =     7.570267
 CELL| Vector b [angstrom]:      -0.000     7.570     0.000   |b| =     7.570267
 CELL| Vector c [angstrom]:       0.000     0.000     7.850   |c| =     7.850105
 CELL| Angle (b,c), alpha [degree]:                                    89.999930
 CELL| Angle (a,c), beta  [degree]:                                    89.999990
 CELL| Angle (a,b), gamma [degree]:                                    90.000347
 CELL| Numerically orthorhombic:                                              NO
 CELL| Periodicity                                                           XYZ

 Extrapolation method: ASPC

 Number of electrons:                                                        112
 Number of occupied orbitals:                                                 56
 Number of molecular orbitals:                                               112

 Number of orbital functions:                                                112
 Number of independent orbital functions:                                    112


 SCF WAVEFUNCTION OPTIMIZATION

  Step     Update method      Time    Convergence         Total energy    Change
  ------------------------------------------------------------------------------
     1 TBLite/Diag 0.40E+00    0.0     0.00054854       -59.3037805383 -5.93E+01
     2 TBLite/Diag 0.40E+00    0.0     0.00020714       -59.3037810086 -4.70E-07
     3 TBLite/Diag 0.40E+00    0.0     0.00005523       -59.3037810074  1.22E-09
     4 TBLite/Diag 0.40E+00    0.0     0.00004414       -59.3037810257 -1.84E-08
     5 TBLite/Diag 0.40E+00    0.0     0.00000850       -59.3037810270 -1.27E-09
     6 TBLite/Diag 0.40E+00    0.0     0.00000135       -59.3037810270 -4.01E-12
     7 TBLite/Diag 0.40E+00    0.0     0.00000047       -59.3037810270 -1.95E-12
     8 TBLite/Diag 0.40E+00    0.0     0.00000009       -59.3037810270 -9.24E-14
     9 TBLite/Diag 0.40E+00    0.0     3.5472E-09       -59.3037810270  3.55E-14
    10 TBLite/Diag 0.40E+00    0.0     6.2339E-10       -59.3037810270 -4.97E-14

  *** SCF run converged in    10 steps ***


  Core Hamiltonian energy:                                    -60.12107926711948
  Repulsive potential energy:                                   0.85274945222699
  Electrostatic energy:                                         0.04659577417459
  Self-consistent dispersion energy:                           -0.09804572856787
  Non-self consistent dispersion energy:                        0.01599874227036
  Correction for halogen bonding:                               0.00000000000000
  Electronic entropic energy:                                  -0.00000000000000
  Fermi energy:                                                -0.03796082255569

  Total energy:                                               -59.30378102701542
  Total energy (extrapolated to T->0):                        -59.30378102701542

 ENERGY| Total FORCE_EVAL ( QS ) energy [hartree]            -59.303781027015418

 OPT| **************************************************************************
 OPT| Step number                                                            205
 OPT| Optimization method                                                   BFGS
 OPT| Total energy [hartree]                                      -59.3037810270
 OPT| Internal pressure [bar]                                    1001.9721021698
 OPT| Effective energy change [hartree]                            -0.0001827533
 OPT| Predicted energy change [hartree]                            -0.0000126333
 OPT| Scaling factor                                                0.0000000000
 OPT| Step size                                                     0.0028704654
 OPT| Trust radius                                                  0.4724315332
 OPT| Decrease in energy                                                     YES
 OPT| Used time [s]                                                        1.696
 OPT|
 OPT| Maximum step size                                             0.0028704654
 OPT| Convergence limit for maximum step size                       0.0030000000
 OPT| Maximum step size is converged                                         YES
 OPT|
 OPT| RMS step size                                                 0.0007529720
 OPT| Convergence limit for RMS step size                           0.0015000000
 OPT| RMS step size is converged                                             YES
 OPT|
 OPT| Maximum gradient                                              0.0009627408
 OPT| Convergence limit for maximum gradient                        0.0004500000
 OPT| Maximum gradient is converged                                           NO
 OPT|
 OPT| RMS gradient                                                  0.0002556412
 OPT| Convergence limit for RMS gradient                            0.0003000000
 OPT| RMS gradient is converged                                              YES
 OPT|
 OPT| Pressure deviation [bar]                                   1001.9721021698
 OPT| Pressure tolerance [bar]                                    100.0000000000
 OPT| Pressure is converged                                                   NO
 OPT| **************************************************************************
 OPT| Estimated peak process memory after this step [MiB]                    171

 --------------------------
 OPTIMIZATION STEP:    206
 --------------------------

 CELL| Volume [angstrom^3]:                                           450.098653
 CELL| Vector a [angstrom]:       7.572     0.000     0.000   |a| =     7.572178
 CELL| Vector b [angstrom]:      -0.000     7.572     0.000   |b| =     7.572178
 CELL| Vector c [angstrom]:       0.000     0.000     7.850   |c| =     7.849935
 CELL| Angle (b,c), alpha [degree]:                                    89.999931
 CELL| Angle (a,c), beta  [degree]:                                    89.999990
 CELL| Angle (a,b), gamma [degree]:                                    90.000352
 CELL| Numerically orthorhombic:                                              NO
 CELL| Periodicity                                                           XYZ

 Extrapolation method: ASPC

 Number of electrons:                                                        112
 Number of occupied orbitals:                                                 56
 Number of molecular orbitals:                                               112

 Number of orbital functions:                                                112
 Number of independent orbital functions:                                    112


 SCF WAVEFUNCTION OPTIMIZATION

  Step     Update method      Time    Convergence         Total energy    Change
  ------------------------------------------------------------------------------
     1 TBLite/Diag 0.40E+00    0.0     0.00052161       -59.3037985636 -5.93E+01
     2 TBLite/Diag 0.40E+00    0.0     0.00005015       -59.3037986031 -3.95E-08
     3 TBLite/Diag 0.40E+00    0.0     0.00004476       -59.3037986038 -6.72E-10
     4 TBLite/Diag 0.40E+00    0.0     0.00002318       -59.3037986127 -8.93E-09
     5 TBLite/Diag 0.40E+00    0.0     0.00000149       -59.3037986127 -3.05E-11
     6 TBLite/Diag 0.40E+00    0.0     0.00000056       -59.3037986127 -1.30E-12
     7 TBLite/Diag 0.40E+00    0.0     0.00000011       -59.3037986127 -1.42E-13
     8 TBLite/Diag 0.40E+00    0.0     0.00000003       -59.3037986127 -9.24E-14
     9 TBLite/Diag 0.40E+00    0.0     2.5850E-09       -59.3037986127 -2.84E-14
    10 TBLite/Diag 0.40E+00    0.0     3.1909E-10       -59.3037986127 -8.53E-14

  *** SCF run converged in    10 steps ***


  Core Hamiltonian energy:                                    -60.11927332070837
  Repulsive potential energy:                                   0.85075877988895
  Electrostatic energy:                                         0.04673668324265
  Self-consistent dispersion energy:                           -0.09800174846547
  Non-self consistent dispersion energy:                        0.01598099330144
  Correction for halogen bonding:                               0.00000000000000
  Electronic entropic energy:                                  -0.00000000000000
  Fermi energy:                                                -0.03808224107683

  Total energy:                                               -59.30379861274081
  Total energy (extrapolated to T->0):                        -59.30379861274081

 ENERGY| Total FORCE_EVAL ( QS ) energy [hartree]            -59.303798612740813

 OPT| **************************************************************************
 OPT| Step number                                                            206
 OPT| Optimization method                                                   BFGS
 OPT| Total energy [hartree]                                      -59.3037986127
 OPT| Internal pressure [bar]                                    -203.9130551791
 OPT| Effective energy change [hartree]                            -0.0000175857
 OPT| Predicted energy change [hartree]                            -0.0000141946
 OPT| Scaling factor                                                0.0000000000
 OPT| Step size                                                     0.0036108085
 OPT| Trust radius                                                  0.4724315332
 OPT| Decrease in energy                                                     YES
 OPT| Used time [s]                                                        1.695
 OPT|
 OPT| Maximum step size                                             0.0036108085
 OPT| Convergence limit for maximum step size                       0.0030000000
 OPT| Maximum step size is converged                                          NO
 OPT|
 OPT| RMS step size                                                 0.0009440444
 OPT| Convergence limit for RMS step size                           0.0015000000
 OPT| RMS step size is converged                                             YES
 OPT|
 OPT| Maximum gradient                                              0.0004726108
 OPT| Convergence limit for maximum gradient                        0.0004500000
 OPT| Maximum gradient is converged                                           NO
 OPT|
 OPT| RMS gradient                                                  0.0001895710
 OPT| Convergence limit for RMS gradient                            0.0003000000
 OPT| RMS gradient is converged                                              YES
 OPT|
 OPT| Pressure deviation [bar]                                   -203.9130551791
 OPT| Pressure tolerance [bar]                                    100.0000000000
 OPT| Pressure is converged                                                   NO
 OPT| **************************************************************************
 OPT| Estimated peak process memory after this step [MiB]                    171

 --------------------------
 OPTIMIZATION STEP:    207
 --------------------------

 CELL| Volume [angstrom^3]:                                           450.132188
 CELL| Vector a [angstrom]:       7.572     0.000     0.000   |a| =     7.572233
 CELL| Vector b [angstrom]:      -0.000     7.572     0.000   |b| =     7.572233
 CELL| Vector c [angstrom]:       0.000     0.000     7.850   |c| =     7.850407
 CELL| Angle (b,c), alpha [degree]:                                    89.999931
 CELL| Angle (a,c), beta  [degree]:                                    89.999990
 CELL| Angle (a,b), gamma [degree]:                                    90.000345
 CELL| Numerically orthorhombic:                                              NO
 CELL| Periodicity                                                           XYZ

 Extrapolation method: ASPC

 Number of electrons:                                                        112
 Number of occupied orbitals:                                                 56
 Number of molecular orbitals:                                               112

 Number of orbital functions:                                                112
 Number of independent orbital functions:                                    112


 SCF WAVEFUNCTION OPTIMIZATION

  Step     Update method      Time    Convergence         Total energy    Change
  ------------------------------------------------------------------------------
     1 TBLite/Diag 0.40E+00    0.0     0.00031603       -59.3038039438 -5.93E+01
     2 TBLite/Diag 0.40E+00    0.0     0.00003032       -59.3038039495 -5.77E-09
     3 TBLite/Diag 0.40E+00    0.0     0.00001772       -59.3038039495  8.31E-11
     4 TBLite/Diag 0.40E+00    0.0     0.00001011       -59.3038039502 -7.86E-10
     5 TBLite/Diag 0.40E+00    0.0     0.00000066       -59.3038039502 -5.97E-13
     6 TBLite/Diag 0.40E+00    0.0     0.00000038       -59.3038039502 -1.94E-12
     7 TBLite/Diag 0.40E+00    0.0     0.00000003       -59.3038039502 -6.39E-14
     8 TBLite/Diag 0.40E+00    0.0     0.00000002       -59.3038039502 -7.11E-15
     9 TBLite/Diag 0.40E+00    0.0     9.5214E-10       -59.3038039502  3.55E-14

  *** SCF run converged in     9 steps ***


  Core Hamiltonian energy:                                    -60.11886478362766
  Repulsive potential energy:                                   0.85031375795295
  Electrostatic energy:                                         0.04676380106217
  Self-consistent dispersion energy:                           -0.09799533059982
  Non-self consistent dispersion energy:                        0.01597860496552
  Correction for halogen bonding:                               0.00000000000000
  Electronic entropic energy:                                  -0.00000000000000
  Fermi energy:                                                -0.03816103651745

  Total energy:                                               -59.30380395024685
  Total energy (extrapolated to T->0):                        -59.30380395024685

 ENERGY| Total FORCE_EVAL ( QS ) energy [hartree]            -59.303803950246852

 OPT| **************************************************************************
 OPT| Step number                                                            207
 OPT| Optimization method                                                   BFGS
 OPT| Total energy [hartree]                                      -59.3038039502
 OPT| Internal pressure [bar]                                    -434.9116522730
 OPT| Effective energy change [hartree]                            -0.0000053375
 OPT| Predicted energy change [hartree]                            -0.0000032841
 OPT| Scaling factor                                                0.0000000000
 OPT| Step size                                                     0.0008914380
 OPT| Trust radius                                                  0.4724315332
 OPT| Decrease in energy                                                     YES
 OPT| Used time [s]                                                        1.689
 OPT|
 OPT| Maximum step size                                             0.0008914380
 OPT| Convergence limit for maximum step size                       0.0030000000
 OPT| Maximum step size is converged                                         YES
 OPT|
 OPT| RMS step size                                                 0.0002701137
 OPT| Convergence limit for RMS step size                           0.0015000000
 OPT| RMS step size is converged                                             YES
 OPT|
 OPT| Maximum gradient                                              0.0006016351
 OPT| Convergence limit for maximum gradient                        0.0004500000
 OPT| Maximum gradient is converged                                           NO
 OPT|
 OPT| RMS gradient                                                  0.0001447168
 OPT| Convergence limit for RMS gradient                            0.0003000000
 OPT| RMS gradient is converged                                              YES
 OPT|
 OPT| Pressure deviation [bar]                                   -434.9116522730
 OPT| Pressure tolerance [bar]                                    100.0000000000
 OPT| Pressure is converged                                                   NO
 OPT| **************************************************************************
 OPT| Estimated peak process memory after this step [MiB]                    171

 --------------------------
 OPTIMIZATION STEP:    208
 --------------------------

 CELL| Volume [angstrom^3]:                                           450.133386
 CELL| Vector a [angstrom]:       7.572     0.000     0.000   |a| =     7.571823
 CELL| Vector b [angstrom]:      -0.000     7.572     0.000   |b| =     7.571823
 CELL| Vector c [angstrom]:       0.000     0.000     7.851   |c| =     7.851278
 CELL| Angle (b,c), alpha [degree]:                                    89.999929
 CELL| Angle (a,c), beta  [degree]:                                    89.999991
 CELL| Angle (a,b), gamma [degree]:                                    90.000327
 CELL| Numerically orthorhombic:                                              NO
 CELL| Periodicity                                                           XYZ

 Extrapolation method: ASPC

 Number of electrons:                                                        112
 Number of occupied orbitals:                                                 56
 Number of molecular orbitals:                                               112

 Number of orbital functions:                                                112
 Number of independent orbital functions:                                    112


 SCF WAVEFUNCTION OPTIMIZATION

  Step     Update method      Time    Convergence         Total energy    Change
  ------------------------------------------------------------------------------
     1 TBLite/Diag 0.40E+00    0.0     0.00063452       -59.3039353394 -5.93E+01
     2 TBLite/Diag 0.40E+00    0.0     0.00017366       -59.3039356497 -3.10E-07
     3 TBLite/Diag 0.40E+00    0.0     0.00003659       -59.3039356517 -1.93E-09
     4 TBLite/Diag 0.40E+00    0.0     0.00002537       -59.3039356572 -5.55E-09
     5 TBLite/Diag 0.40E+00    0.0     0.00000697       -59.3039356581 -9.33E-10
     6 TBLite/Diag 0.40E+00    0.0     0.00000102       -59.3039356581 -3.56E-12
     7 TBLite/Diag 0.40E+00    0.0     0.00000007       -59.3039356581 -5.68E-14
     8 TBLite/Diag 0.40E+00    0.0     0.00000002       -59.3039356581  2.13E-14
     9 TBLite/Diag 0.40E+00    0.0     2.1670E-09       -59.3039356581 -7.11E-15
    10 TBLite/Diag 0.40E+00    0.0     6.9441E-10       -59.3039356581  9.95E-14

  *** SCF run converged in    10 steps ***


  Core Hamiltonian energy:                                    -60.11868631650760
  Repulsive potential energy:                                   0.85001242026923
  Electrostatic energy:                                         0.04674295712544
  Self-consistent dispersion energy:                           -0.09798276483081
  Non-self consistent dispersion energy:                        0.01597804580813
  Correction for halogen bonding:                               0.00000000000000
  Electronic entropic energy:                                  -0.00000000000000
  Fermi energy:                                                -0.03830951716282

  Total energy:                                               -59.30393565813561
  Total energy (extrapolated to T->0):                        -59.30393565813561

 ENERGY| Total FORCE_EVAL ( QS ) energy [hartree]            -59.303935658135607

 OPT| **************************************************************************
 OPT| Step number                                                            208
 OPT| Optimization method                                                   BFGS
 OPT| Total energy [hartree]                                      -59.3039356581
 OPT| Internal pressure [bar]                                    -457.0341655006
 OPT| Effective energy change [hartree]                            -0.0001317079
 OPT| Predicted energy change [hartree]                            -0.0000059016
 OPT| Scaling factor                                                0.0000000000
 OPT| Step size                                                     0.0016459134
 OPT| Trust radius                                                  0.4724315332
 OPT| Decrease in energy                                                     YES
 OPT| Used time [s]                                                        1.697
 OPT|
 OPT| Maximum step size                                             0.0016459134
 OPT| Convergence limit for maximum step size                       0.0030000000
 OPT| Maximum step size is converged                                         YES
 OPT|
 OPT| RMS step size                                                 0.0006077396
 OPT| Convergence limit for RMS step size                           0.0015000000
 OPT| RMS step size is converged                                             YES
 OPT|
 OPT| Maximum gradient                                              0.0005353438
 OPT| Convergence limit for maximum gradient                        0.0004500000
 OPT| Maximum gradient is converged                                           NO
 OPT|
 OPT| RMS gradient                                                  0.0001413476
 OPT| Convergence limit for RMS gradient                            0.0003000000
 OPT| RMS gradient is converged                                              YES
 OPT|
 OPT| Pressure deviation [bar]                                   -457.0341655006
 OPT| Pressure tolerance [bar]                                    100.0000000000
 OPT| Pressure is converged                                                   NO
 OPT| **************************************************************************
 OPT| Estimated peak process memory after this step [MiB]                    171

 --------------------------
 OPTIMIZATION STEP:    209
 --------------------------

 CELL| Volume [angstrom^3]:                                           450.116407
 CELL| Vector a [angstrom]:       7.571     0.000     0.000   |a| =     7.571414
 CELL| Vector b [angstrom]:      -0.000     7.571     0.000   |b| =     7.571414
 CELL| Vector c [angstrom]:       0.000     0.000     7.852   |c| =     7.851830
 CELL| Angle (b,c), alpha [degree]:                                    89.999929
 CELL| Angle (a,c), beta  [degree]:                                    89.999991
 CELL| Angle (a,b), gamma [degree]:                                    90.000315
 CELL| Numerically orthorhombic:                                              NO
 CELL| Periodicity                                                           XYZ

 Extrapolation method: ASPC

 Number of electrons:                                                        112
 Number of occupied orbitals:                                                 56
 Number of molecular orbitals:                                               112

 Number of orbital functions:                                                112
 Number of independent orbital functions:                                    112


 SCF WAVEFUNCTION OPTIMIZATION

  Step     Update method      Time    Convergence         Total energy    Change
  ------------------------------------------------------------------------------
     1 TBLite/Diag 0.40E+00    0.0     0.00043997       -59.3039407734 -5.93E+01
     2 TBLite/Diag 0.40E+00    0.0     0.00002954       -59.3039407836 -1.01E-08
     3 TBLite/Diag 0.40E+00    0.0     0.00001640       -59.3039407835  9.46E-11
     4 TBLite/Diag 0.40E+00    0.0     0.00001062       -59.3039407845 -1.05E-09
     5 TBLite/Diag 0.40E+00    0.0     0.00000116       -59.3039407845 -2.20E-11
     6 TBLite/Diag 0.40E+00    0.0     0.00000019       -59.3039407845 -1.71E-13
     7 TBLite/Diag 0.40E+00    0.0     0.00000007       -59.3039407845 -1.28E-13
     8 TBLite/Diag 0.40E+00    0.0     0.00000001       -59.3039407845  3.55E-14
     9 TBLite/Diag 0.40E+00    0.0     8.7826E-10       -59.3039407845 -6.39E-14

  *** SCF run converged in     9 steps ***


  Core Hamiltonian energy:                                    -60.11878293104013
  Repulsive potential energy:                                   0.85009161896261
  Electrostatic energy:                                         0.04675587179422
  Self-consistent dispersion energy:                           -0.09798505559638
  Non-self consistent dispersion energy:                        0.01597971135264
  Correction for halogen bonding:                               0.00000000000000
  Electronic entropic energy:                                  -0.00000000000000
  Fermi energy:                                                -0.03822735729242

  Total energy:                                               -59.30394078452704
  Total energy (extrapolated to T->0):                        -59.30394078452704

 ENERGY| Total FORCE_EVAL ( QS ) energy [hartree]            -59.303940784527043

 OPT| **************************************************************************
 OPT| Step number                                                            209
 OPT| Optimization method                                                   BFGS
 OPT| Total energy [hartree]                                      -59.3039407845
 OPT| Internal pressure [bar]                                    -497.7512442740
 OPT| Effective energy change [hartree]                            -0.0000051264
 OPT| Predicted energy change [hartree]                            -0.0000034690
 OPT| Scaling factor                                                0.0000000000
 OPT| Step size                                                     0.0011996500
 OPT| Trust radius                                                  0.4724315332
 OPT| Decrease in energy                                                     YES
 OPT| Used time [s]                                                        1.689
 OPT|
 OPT| Maximum step size                                             0.0011996500
 OPT| Convergence limit for maximum step size                       0.0030000000
 OPT| Maximum step size is converged                                         YES
 OPT|
 OPT| RMS step size                                                 0.0006040050
 OPT| Convergence limit for RMS step size                           0.0015000000
 OPT| RMS step size is converged                                             YES
 OPT|
 OPT| Maximum gradient                                              0.0005363149
 OPT| Convergence limit for maximum gradient                        0.0004500000
 OPT| Maximum gradient is converged                                           NO
 OPT|
 OPT| RMS gradient                                                  0.0001659150
 OPT| Convergence limit for RMS gradient                            0.0003000000
 OPT| RMS gradient is converged                                              YES
 OPT|
 OPT| Pressure deviation [bar]                                   -497.7512442740
 OPT| Pressure tolerance [bar]                                    100.0000000000
 OPT| Pressure is converged                                                   NO
 OPT| **************************************************************************
 OPT| Estimated peak process memory after this step [MiB]                    171

 --------------------------
 OPTIMIZATION STEP:    210
 --------------------------

 CELL| Volume [angstrom^3]:                                           450.037283
 CELL| Vector a [angstrom]:       7.570     0.000     0.000   |a| =     7.570484
 CELL| Vector b [angstrom]:      -0.000     7.570     0.000   |b| =     7.570484
 CELL| Vector c [angstrom]:       0.000     0.000     7.852   |c| =     7.852377
 CELL| Angle (b,c), alpha [degree]:                                    89.999928
 CELL| Angle (a,c), beta  [degree]:                                    89.999991
 CELL| Angle (a,b), gamma [degree]:                                    90.000301
 CELL| Numerically orthorhombic:                                              NO
 CELL| Periodicity                                                           XYZ

 Extrapolation method: ASPC

 Number of electrons:                                                        112
 Number of occupied orbitals:                                                 56
 Number of molecular orbitals:                                               112

 Number of orbital functions:                                                112
 Number of independent orbital functions:                                    112


 SCF WAVEFUNCTION OPTIMIZATION

  Step     Update method      Time    Convergence         Total energy    Change
  ------------------------------------------------------------------------------
     1 TBLite/Diag 0.40E+00    0.0     0.00060443       -59.3039462193 -5.93E+01
     2 TBLite/Diag 0.40E+00    0.0     0.00002601       -59.3039462280 -8.64E-09
     3 TBLite/Diag 0.40E+00    0.0     0.00000897       -59.3039462290 -1.07E-09
     4 TBLite/Diag 0.40E+00    0.0     0.00000557       -59.3039462293 -3.03E-10
     5 TBLite/Diag 0.40E+00    0.0     0.00000118       -59.3039462293 -1.85E-11
     6 TBLite/Diag 0.40E+00    0.0     0.00000031       -59.3039462293 -6.89E-13
     7 TBLite/Diag 0.40E+00    0.0     0.00000010       -59.3039462293 -2.06E-13
     8 TBLite/Diag 0.40E+00    0.0     0.00000002       -59.3039462293  7.11E-15
     9 TBLite/Diag 0.40E+00    0.0     1.7579E-09       -59.3039462293 -2.84E-14
    10 TBLite/Diag 0.40E+00    0.0     4.4056E-11       -59.3039462293 -2.13E-14

  *** SCF run converged in    10 steps ***


  Core Hamiltonian energy:                                    -60.11928754544941
  Repulsive potential energy:                                   0.85061342043583
  Electrostatic energy:                                         0.04674040914270
  Self-consistent dispersion energy:                           -0.09800022061655
  Non-self consistent dispersion energy:                        0.01598770713979
  Correction for halogen bonding:                               0.00000000000000
  Electronic entropic energy:                                  -0.00000000000000
  Fermi energy:                                                -0.03811602609899

  Total energy:                                               -59.30394622934765
  Total energy (extrapolated to T->0):                        -59.30394622934765

 ENERGY| Total FORCE_EVAL ( QS ) energy [hartree]            -59.303946229347652

 OPT| **************************************************************************
 OPT| Step number                                                            210
 OPT| Optimization method                                                   BFGS
 OPT| Total energy [hartree]                                      -59.3039462293
 OPT| Internal pressure [bar]                                    -281.5575797155
 OPT| Effective energy change [hartree]                            -0.0000054448
 OPT| Predicted energy change [hartree]                            -0.0000046884
 OPT| Scaling factor                                                0.0000000000
 OPT| Step size                                                     0.0017563124
 OPT| Trust radius                                                  0.4724315332
 OPT| Decrease in energy                                                     YES
 OPT| Used time [s]                                                        1.696
 OPT|
 OPT| Maximum step size                                             0.0017563124
 OPT| Convergence limit for maximum step size                       0.0030000000
 OPT| Maximum step size is converged                                         YES
 OPT|
 OPT| RMS step size                                                 0.0008382152
 OPT| Convergence limit for RMS step size                           0.0015000000
 OPT| RMS step size is converged                                             YES
 OPT|
 OPT| Maximum gradient                                              0.0005417572
 OPT| Convergence limit for maximum gradient                        0.0004500000
 OPT| Maximum gradient is converged                                           NO
 OPT|
 OPT| RMS gradient                                                  0.0001579112
 OPT| Convergence limit for RMS gradient                            0.0003000000
 OPT| RMS gradient is converged                                              YES
 OPT|
 OPT| Pressure deviation [bar]                                   -281.5575797155
 OPT| Pressure tolerance [bar]                                    100.0000000000
 OPT| Pressure is converged                                                   NO
 OPT| **************************************************************************
 OPT| Estimated peak process memory after this step [MiB]                    171

 --------------------------
 OPTIMIZATION STEP:    211
 --------------------------

 CELL| Volume [angstrom^3]:                                           449.929065
 CELL| Vector a [angstrom]:       7.569     0.000     0.000   |a| =     7.569393
 CELL| Vector b [angstrom]:      -0.000     7.569     0.000   |b| =     7.569393
 CELL| Vector c [angstrom]:       0.000     0.000     7.853   |c| =     7.852752
 CELL| Angle (b,c), alpha [degree]:                                    89.999928
 CELL| Angle (a,c), beta  [degree]:                                    89.999991
 CELL| Angle (a,b), gamma [degree]:                                    90.000289
 CELL| Numerically orthorhombic:                                              NO
 CELL| Periodicity                                                           XYZ

 Extrapolation method: ASPC

 Number of electrons:                                                        112
 Number of occupied orbitals:                                                 56
 Number of molecular orbitals:                                               112

 Number of orbital functions:                                                112
 Number of independent orbital functions:                                    112


 SCF WAVEFUNCTION OPTIMIZATION

  Step     Update method      Time    Convergence         Total energy    Change
  ------------------------------------------------------------------------------
     1 TBLite/Diag 0.40E+00    0.0     0.00069558       -59.3039522734 -5.93E+01
     2 TBLite/Diag 0.40E+00    0.0     0.00003020       -59.3039522816 -8.23E-09
     3 TBLite/Diag 0.40E+00    0.0     0.00001991       -59.3039522831 -1.48E-09
     4 TBLite/Diag 0.40E+00    0.0     0.00000925       -59.3039522837 -6.40E-10
     5 TBLite/Diag 0.40E+00    0.0     0.00000121       -59.3039522837 -5.74E-12
     6 TBLite/Diag 0.40E+00    0.0     0.00000032       -59.3039522837 -1.17E-12
     7 TBLite/Diag 0.40E+00    0.0     0.00000009       -59.3039522837 -4.26E-14
     8 TBLite/Diag 0.40E+00    0.0     0.00000003       -59.3039522837 -3.55E-14
     9 TBLite/Diag 0.40E+00    0.0     2.4869E-09       -59.3039522837 -1.42E-14
    10 TBLite/Diag 0.40E+00    0.0     2.7546E-10       -59.3039522837 -3.55E-14

  *** SCF run converged in    10 steps ***


  Core Hamiltonian energy:                                    -60.11986383768304
  Repulsive potential energy:                                   0.85122918745731
  Electrostatic energy:                                         0.04670846642775
  Self-consistent dispersion energy:                           -0.09802246077222
  Non-self consistent dispersion energy:                        0.01599636083431
  Correction for halogen bonding:                               0.00000000000000
  Electronic entropic energy:                                  -0.00000000000000
  Fermi energy:                                                -0.03806556758049

  Total energy:                                               -59.30395228373589
  Total energy (extrapolated to T->0):                        -59.30395228373589

 ENERGY| Total FORCE_EVAL ( QS ) energy [hartree]            -59.303952283735889

 OPT| **************************************************************************
 OPT| Step number                                                            211
 OPT| Optimization method                                                   BFGS
 OPT| Total energy [hartree]                                      -59.3039522837
 OPT| Internal pressure [bar]                                      48.3024753477
 OPT| Effective energy change [hartree]                            -0.0000060544
 OPT| Predicted energy change [hartree]                            -0.0000046059
 OPT| Scaling factor                                                0.0000000000
 OPT| Step size                                                     0.0020615337
 OPT| Trust radius                                                  0.4724315332
 OPT| Decrease in energy                                                     YES
 OPT| Used time [s]                                                        1.706
 OPT|
 OPT| Maximum step size                                             0.0020615337
 OPT| Convergence limit for maximum step size                       0.0030000000
 OPT| Maximum step size is converged                                         YES
 OPT|
 OPT| RMS step size                                                 0.0009183235
 OPT| Convergence limit for RMS step size                           0.0015000000
 OPT| RMS step size is converged                                             YES
 OPT|
 OPT| Maximum gradient                                              0.0002966218
 OPT| Convergence limit for maximum gradient                        0.0004500000
 OPT| Maximum gradient is converged                                          YES
 OPT|
 OPT| RMS gradient                                                  0.0001118296
 OPT| Convergence limit for RMS gradient                            0.0003000000
 OPT| RMS gradient is converged                                              YES
 OPT|
 OPT| Pressure deviation [bar]                                     48.3024753477
 OPT| Pressure tolerance [bar]                                    100.0000000000
 OPT| Pressure is converged                                                  YES
 OPT| **************************************************************************
 OPT| Estimated peak process memory after this step [MiB]                    171

 *******************************************************************************
 ***                    GEOMETRY OPTIMIZATION COMPLETED                      ***
 *******************************************************************************

 write_final_structure: Optimization converged, writing XYZ file gladly:
  adamantane_GFN2_gamma_cell_opt-FINAL-1_211.xyz

 write_final_structure: Optimization converged, writing CIF file gladly:
  adamantane_GFN2_gamma_cell_opt-FINAL-1_211.cif

 write_final_structure: Done!

                    Reevaluating energy at the minimum

 CELL| Volume [angstrom^3]:                                           449.929065
 CELL| Vector a [angstrom]:       7.569     0.000     0.000   |a| =     7.569393
 CELL| Vector b [angstrom]:      -0.000     7.569     0.000   |b| =     7.569393
 CELL| Vector c [angstrom]:       0.000     0.000     7.853   |c| =     7.852752
 CELL| Angle (b,c), alpha [degree]:                                    89.999928
 CELL| Angle (a,c), beta  [degree]:                                    89.999991
 CELL| Angle (a,b), gamma [degree]:                                    90.000289
 CELL| Numerically orthorhombic:                                              NO
 CELL| Periodicity                                                           XYZ

 Extrapolation method: ASPC

 Number of electrons:                                                        112
 Number of occupied orbitals:                                                 56
 Number of molecular orbitals:                                               112

 Number of orbital functions:                                                112
 Number of independent orbital functions:                                    112


 SCF WAVEFUNCTION OPTIMIZATION

  Step     Update method      Time    Convergence         Total energy    Change
  ------------------------------------------------------------------------------
     1 TBLite/Diag 0.40E+00    0.0     1.5237E-10       -59.3039522837 -5.93E+01

  *** SCF run converged in     1 steps ***


  Core Hamiltonian energy:                                    -60.11986383767896
  Repulsive potential energy:                                   0.85122918745731
  Electrostatic energy:                                         0.04670846642408
  Self-consistent dispersion energy:                           -0.09802246077256
  Non-self consistent dispersion energy:                        0.01599636083431
  Correction for halogen bonding:                               0.00000000000000
  Electronic entropic energy:                                  -0.00000000000000
  Fermi energy:                                                -0.03806556758571

  Total energy:                                               -59.30395228373582
  Total energy (extrapolated to T->0):                        -59.30395228373582

 ENERGY| Total FORCE_EVAL ( QS ) energy [hartree]            -59.303952283735818

 -------------------------------------------------------------------------------
 -                                                                             -
 -                                DBCSR STATISTICS                             -
 -                                                                             -
 -------------------------------------------------------------------------------
 COUNTER                                    TOTAL       BLAS       SMM       ACC
 flops     1 x    16 x     1              1638400       0.0%    100.0%      0.0%     
 flops     4 x    16 x     1              4096000       0.0%    100.0%      0.0%     
 flops     1 x    16 x     4              4096000       0.0%    100.0%      0.0%     
 flops     1 x    32 x     1              9830400       0.0%    100.0%      0.0%     
 flops     4 x    16 x     4             10240000       0.0%    100.0%      0.0%     
 flops     1 x     1 x   112             17859072       0.0%    100.0%      0.0%     
 flops     1 x    32 x     4             24576000       0.0%    100.0%      0.0%     
 flops     4 x    32 x     1             24576000       0.0%    100.0%      0.0%     
 flops     4 x     1 x   112             43294720       0.0%    100.0%      0.0%     
 flops     1 x     4 x   112             43294720       0.0%    100.0%      0.0%     
 flops     4 x    32 x     4             61440000       0.0%    100.0%      0.0%     
 flops     4 x     4 x   112            113648640       0.0%    100.0%      0.0%     
 flops inhomo. stacks                           0       0.0%      0.0%      0.0%
 flops total                       358.589952E+06       0.0%    100.0%      0.0%
 flops max/rank                    358.589952E+06       0.0%    100.0%      0.0%
 matmuls inhomo. stacks                         0       0.0%      0.0%      0.0%
 matmuls total                             748878       0.0%    100.0%      0.0%
 number of processed stacks                  1354       0.0%    100.0%      0.0%
 average stack size                                     0.0     553.1       0.0
 marketing flops                   352.636928E+06
 -------------------------------------------------------------------------------
 # multiplications                            201
 max memory usage/rank              13.678694E+09
 # max total images/rank                        1
 # max 3D layers                                1
 # MPI messages exchanged                       0
 -------------------------------------------------------------------------------
 -                                                                             -
 -                      DBCSR MESSAGE PASSING PERFORMANCE                      -
 -                                                                             -
 -------------------------------------------------------------------------------
 ROUTINE             CALLS      AVE VOLUME [Bytes]
 MP_Bcast               13                     12.
 MP_Allreduce          948                      9.
 MP_Alltoall          6514                  74976.
 MP_ISend              804                  10369.
 MP_IRecv              804                  10369.
 -------------------------------------------------------------------------------

 -------------------------------------------------------------------------------
 -                                                                             -
 -                          OFFLOAD MEMPOOL STATISTICS                         -
 -                                                                             -
 -------------------------------------------------------------------------------
 Memory consumption                Number of allocations  Used [MiB]  Size [MiB]
 Device                                                1           0           0
 Host                                                  1           0           0
 -------------------------------------------------------------------------------

 MEMORY| Estimated peak process memory [MiB]                                 171

 -------------------------------------------------------------------------------
 -                                                                             -
 -                         MESSAGE PASSING PERFORMANCE                         -
 -                                                                             -
 -------------------------------------------------------------------------------

 ROUTINE             CALLS      AVE VOLUME [Bytes]
 MP_Group               12
 MP_Bcast              300                    465.
 MP_Allreduce         4588                    403.
 MP_Sync               162
 MP_comm_split         150
 -------------------------------------------------------------------------------


 -------------------------------------------------------------------------------
 -                                                                             -
 -                           R E F E R E N C E S                               -
 -                                                                             -
 -------------------------------------------------------------------------------
 
 CP2K version 2026.1 (Development Version), the CP2K developers group (2026).
 CP2K is freely available from https://www.cp2k.org/ .
 
 M. Iannuzzi, J. Wilhelm, F. Stein, A. Bussy, H. Elgabarty, D. Golze, A. Hehn, 
 M. Graml, S. Marek, B. Sertcan Gökmen, C. Schran, H. Forbert, R. Z. 
 Khaliullin, A. Kozhevnikov, M. Taillefumier, R. Meli, V. V. Rybkin, M. Brehm, 
 R. Schade, O. Schütt, J. V. Pototschnig, H. Mirhosseini, A. Knüpfer, D. Marx, 
 M. Krack, J. Hutter, T. D. Kühne.
 J. Phys. Chem. B 130, 1237-1310 (2026).
 The CP2K Program Package Made Simple.
 https://doi.org/10.1021/acs.jpcb.5c05851

 A. Katbashev, M. Stahn, T. Rose, V. Alizadeh, M. Friede, C. Plett, P. 
 Steinbach, S. Ehlert.
 J. Phys. Chem. A 129, 2667-2682 (2025).
 Overview on Building Blocks and Applications of Efficient and Robust Extended 
 Tight Binding.
 https://doi.org/10.1021/acs.jpca.4c08263

 T. D. Kühne, M. Iannuzzi, M. Del Ben, V. V. Rybkin, P. Seewald, F. Stein, T. 
 Laino, R. Z. Khaliullin, O. Schütt, F. Schiffmann, D. Golze, J. Wilhelm, S. 
 Chulkov, M. H. Bani-Hashemian, V. Weber, U. Borstnik, M. Taillefumier, A. S. 
 Jakobovits, A. Lazzaro, H. Pabst, T. Müller, R. Schade, M. Guidon, S. 
 Andermatt, N. Holmberg, G. K. Schenter, A. Hehn, A. Bussy, F. Belleflamme, G. 
 Tabacchi, A. Glöß, M. Lass, I. Bethune, C. J. Mundy, C. Plessl, M. Watkins, 
 J. VandeVondele, M. Krack, J. Hutter.
 J. Chem. Phys. 152, 194103 (2020).
 CP2K: An electronic structure and molecular dynamics software package - 
 Quickstep: Efficient and accurate electronic structure calculations.
 https://doi.org/10.1063/5.0007045

 P. Pracht, E. Caldeweyher, S. Ehlert, S. Grimme.
 ChemRxiv, (2019).
 A Robust Non-Self-Consistent Tight-Binding Quantum Chemistry Method for large 
 Molecules.
 https://doi.org/10.26434/chemrxiv.8326202.v1

 S. Grimme, C. Bannwarth, P. Shushkov.
 J. Chem. Theory Comput. 13, 1989 (2017).
 A Robust and Accurate Tight-Binding Quantum Chemical Method for Structures, 
 Vibrational Frequencies, and Noncovalent Interactions of Large Molecular 
 Systems Parametrized for All spd-Block Elements (Z = 1-86).
 https://doi.org/10.1021/acs.jctc.7b00118

 O. Schuett, P. Messmer, J. Hutter, J. VandeVondele.
 Electronic Structure Calculations on Graphics Processing Units, 173-190 (2016).
 GPU-Accelerated Sparse Matrix-Matrix Multiplication for Linear Scaling Density 
 Functional Theory.
 https://doi.org/10.1002/9781118670712.ch8

 A. Heinecke, G. Henry, M. Hutchinson, H. Pabst.
 Proceedings of Intl. Supercomputing Conference, 981-991 (2016).
 LIBXSMM: Accelerating Small Matrix Multiplications by Runtime Code Generation.
 https://doi.org/10.1109/SC.2016.83

 U. Borstnik, J. VandeVondele, V. Weber, J. Hutter.
 Parallel Comput. 40, 47-58 (2014).
 Sparse matrix multiplication: The distributed block-compressed sparse row 
 library.
 https://doi.org/10.1016/j.parco.2014.03.012

 T. D. Kühne, M. Krack, F. R. Mohamed, M. Parrinello.
 Phys. Rev. Lett. 98, 066401 (2007).
 Efficient and accurate Car-Parrinello-like approach to Born-Oppenheimer 
 molecular dynamics.
 https://doi.org/10.1103/PhysRevLett.98.066401

 M. Frigo, S. G. Johnson.
 Proc. IEEE 93, 216-231 (2005).
 The design and implementation of FFTW3.
 https://doi.org/10.1109/JPROC.2004.840301

 J. Kolafa.
 J. Comput. Chem. 25, 335-342 (2004).
 Time-reversible always stable predictor-corrector method for molecular dynamics 
 of polarizable molecules.
 https://doi.org/10.1002/jcc.10385

 N. D. Mermin.
 Phys. Rev. 137, A1441-A1443 (1965).
 Thermal Properties of the Inhomogeneous Electron Gas.
 https://doi.org/10.1103/PhysRev.137.A1441


 -------------------------------------------------------------------------------
 -                                                                             -
 -                                T I M I N G                                  -
 -                                                                             -
 -------------------------------------------------------------------------------
 SUBROUTINE                       CALLS  ASD         SELF TIME        TOTAL TIME
                                MAXIMUM       AVERAGE  MAXIMUM  AVERAGE  MAXIMUM
 CP2K                                 1  1.0    0.002    0.002   20.859   20.859
 cp_cell_opt                          1  2.0    0.000    0.000   20.855   20.855
 geoopt_bfgs                          1  3.0    0.001    0.001   20.855   20.855
 cp_eval_at                          13  4.0    0.001    0.001   20.829   20.829
 qs_forces                           12  5.0    0.001    0.001   20.414   20.414
 build_tblite_matrices               25  7.0   17.114   17.114   17.513   17.513
 qs_energies                         13  5.9    0.000    0.000    6.159    6.159
 qs_energies_init_hamiltonians       13  6.9    0.000    0.000    5.206    5.206
 rebuild_ks_matrix                  139  9.7    0.000    0.000    2.630    2.630
 build_tblite_ks_matrix             139 10.7    2.628    2.628    2.630    2.630
 qs_ks_update_qs_env_forces          12  6.0    0.000    0.000    2.340    2.340
 scf_env_do_scf                      13  6.9    0.000    0.000    0.846    0.846
 scf_env_do_scf_inner_loop          127  8.0    0.149    0.149    0.845    0.845
 -------------------------------------------------------------------------------

 The number of warnings for this run is : 0
 
 -------------------------------------------------------------------------------
  **** **** ******  **  PROGRAM ENDED AT                 2026-05-23 23:04:30.661
 ***** ** ***  *** **   PROGRAM RAN ON                                spark-c86c
 **    ****   ******    PROGRAM RAN BY                                  kuehne88
 ***** **    ** ** **   PROGRAM PROCESS ID                               2275617
  **** **  *******  **  PROGRAM STOPPED IN /home/kuehne88/periodic-gfn2-benchmar
                                           ks/X23b/runs/cellopt_gamma/GFN2/adama
                                           ntane_GFN2_gamma_cellopt
