 DBCSR| CPU Multiplication driver                                           XSMM (U)
 DBCSR| Multrec recursion limit                                              512 (U)
 DBCSR| Multiplication stack size                                           1000 (D)
 DBCSR| Maximum elements for images                                    UNLIMITED (U)
 DBCSR| Multiplicative factor virtual images                                   1 (U)
 DBCSR| Use multiplication densification                                       T (D)
 DBCSR| Multiplication size stacks                                             3 (U)
 DBCSR| Use memory pool for CPU allocation                                     F (U)
 DBCSR| Number of 3D layers                                               SINGLE (U)
 DBCSR| Use MPI memory allocation                                              F (U)
 DBCSR| Use RMA algorithm                                                      F (U)
 DBCSR| Use Communication thread                                               T (U)
 DBCSR| Communication thread load                                             87 (D)
 DBCSR| MPI: My process id                                                     0
 DBCSR| MPI: Number of processes                                               1
 DBCSR| OMP: Current number of threads                                         1
 DBCSR| OMP: Max number of threads                                             1
 DBCSR| Split modifier for TAS multiplication algorithm                  1.0E+00 (U)


  **** **** ******  **  PROGRAM STARTED AT               2026-05-23 22:46:19.865
 ***** ** ***  *** **   PROGRAM STARTED ON                            spark-c86c
 **    ****   ******    PROGRAM STARTED BY                              kuehne88
 ***** **    ** ** **   PROGRAM PROCESS ID                               2226271
  **** **  *******  **  PROGRAM STARTED IN /home/kuehne88/periodic-gfn2-benchmar
                                           ks/X23b/runs/molecule_geoopt/GFN2/ada
                                           mantane_GFN2_mol_geoopt

 CP2K| version string:                 CP2K version 2026.1 (Development Version)
 CP2K| source code revision number:                                   0622d442e4
 CP2K| cp2kflags: omp fftw3 libxc parallel scalapack mpi_f08 xsmm spglib libdftd
 CP2K|            4 dftd4_v3 mctc-lib tblite
 CP2K| is freely available from                            https://www.cp2k.org/
 CP2K| Program compiled at                                   2026-05-23 22:05:08
 CP2K| Program compiled on                                            spark-c86c
 CP2K| Program compiled for                                              aarch64
 CP2K| Data directory path    /home/kuehne88/cp2k-master-tblite-20260523/install
 CP2K| Input file name                            adamantane_GFN2_mol_geoopt.inp

 GLOBAL| Force Environment number                                              1
 GLOBAL| Basis set file name                                           BASIS_SET
 GLOBAL| Potential file name                                           POTENTIAL
 GLOBAL| MM Potential file name                                     MM_POTENTIAL
 GLOBAL| Coordinate file name                                      __STD_INPUT__
 GLOBAL| Method name                                                        CP2K
 GLOBAL| Project name                                 adamantane_GFN2_mol_geoopt
 GLOBAL| Run type                                                        GEO_OPT
 GLOBAL| FFT library                                                       FFTW3
 GLOBAL| Diagonalization library                                       ScaLAPACK
 GLOBAL| Cholesky decomposition library                                ScaLAPACK
 GLOBAL| DGEMM library                                                      BLAS
 GLOBAL| Direct generalized diagonalization requested                          F
 GLOBAL| Orthonormality check for eigenvectors                          DISABLED
 GLOBAL| Matrix multiplication library                                 ScaLAPACK
 GLOBAL| All-to-all communication in single precision                          F
 GLOBAL| FFTs using library dependent lengths                                  F
 GLOBAL| Grid backend                                                       AUTO
 GLOBAL| Global print level                                                  LOW
 GLOBAL| MPI I/O enabled                                                       T
 GLOBAL| Total number of message passing processes                             1
 GLOBAL| Number of distributed systems (nodes)                                 1
 GLOBAL| Number of threads for this process                                    1
 GLOBAL| This output is from process                                           0
 GLOBAL| OpenMP stack size per thread (OMP_STACKSIZE)                    default
 GLOBAL| CPU model name                                                  UNKNOWN
 GLOBAL| CPUID                                                              2200
 GLOBAL| Compiled for CPUID                                                 2000

 *** HINT in environment.F:970 :: The compiler target flags (arm_arch64)   ***
 *** used to build this binary cannot exploit all extensions of this CPU   ***
 *** model (arm_sve256). Consider compiler target flags as part of FCFLAGS ***
 *** and CFLAGS (ARCH file).                                               ***


 MEMORY| system memory details [Kb]
 MEMORY|                        rank 0           min           max       average
 MEMORY| MemTotal            125508532     125508532     125508532     125508532
 MEMORY| MemFree             106171396     106171396     106171396     106171396
 MEMORY| Buffers                866068        866068        866068        866068
 MEMORY| Cached               13217128      13217128      13217128      13217128
 MEMORY| Slab                  1564676       1564676       1564676       1564676
 MEMORY| SReclaimable           888664        888664        888664        888664
 MEMORY| MemLikelyFree       121143256     121143256     121143256     121143256


 GENERATE|  Preliminary Number of Bonds generated:                             0
 GENERATE|  Achieved consistency in connectivity generation.


                  #####   #####        #     #   #     #       #          
                 #     # #     #      #    ##### #     #   # #####  ####  
                 #     # #           #       #   ###   #       #   #    # 
                 #     #  #####     #        #   #  #  #   #   #   ###### 
                 #   # #       #   #         #   #   # #   #   #   #      
                 #    #  #     #  #          #   #  #  # # #   #    #   # 
                  #### #  #####  #           #   ###   ##  #   #     ###  

                                   GFN2-xTB  
                                 Version 0.0                       
                            Johann V. Pototschnig                  



 TOTAL NUMBERS AND MAXIMUM NUMBERS

  Total number of            - Atomic kinds:                                   2
                             - Atoms:                                         26
                             - Shell sets:                                    36
                             - Shells:                                        36
                             - Primitive Cartesian functions:                128
                             - Cartesian basis functions:                     56
                             - Spherical basis functions:                     56

  Maximum angular momentum of the orbital basis functions:                     1


 SCF PARAMETERS         Density guess:                                     MOPAC
                        --------------------------------------------------------
                        max_scf:                                             300
                        max_scf_history:                                       0
                        max_diis:                                              4
                        --------------------------------------------------------
                        eps_scf:                                        1.00E-09
                        eps_scf_history:                                0.00E+00
                        eps_diis:                                       1.00E-01
                        eps_eigval:                                     1.00E-05
                        --------------------------------------------------------
                        level_shift [a.u.]:                             0.000000
                        added MOs                                        28    0
                        --------------------------------------------------------
                        Mixing method:                           DIRECT_P_MIXING
                        --------------------------------------------------------
                        Smear method:                                FERMI_DIRAC
                        Electronic temperature [K]:                        300.0
                        Electronic temperature [a.u.]:                  9.50E-04
                        Accuracy threshold:                             1.00E-06
                        --------------------------------------------------------
                        No outer SCF

 BFGS| Use rational function optimization for step estimation:                NO
 BFGS| Use model Hessian for initial guess:                                  YES
 BFGS| Restart Hessian:                                                       NO
 BFGS| Trust radius:                                                       0.472

 *******************************************************************************
 ***                     STARTING GEOMETRY OPTIMIZATION                      ***
 ***                                   BFGS                                  ***
 *******************************************************************************

 Extrapolation method: initial_guess

 Number of electrons:                                                         56
 Number of occupied orbitals:                                                 28
 Number of molecular orbitals:                                                56

 Number of orbital functions:                                                 56
 Number of independent orbital functions:                                     56


 SCF WAVEFUNCTION OPTIMIZATION

  Step     Update method      Time    Convergence         Total energy    Change
  ------------------------------------------------------------------------------
     1 TBLite/Diag 0.40E+00    0.0     0.60006479       -29.6227361006 -2.96E+01
     2 TBLite/Diag 0.40E+00    0.0     0.04203478       -29.6359681089 -1.32E-02
     3 TBLite/Diag 0.40E+00    0.0     0.01009176       -29.6365865229 -6.18E-04
     4 TBLite/Diag 0.40E+00    0.0     0.00419300       -29.6366718004 -8.53E-05
     5 TBLite/Diag 0.40E+00    0.0     0.00156108       -29.6366747208 -2.92E-06
     6 TBLite/Diag 0.40E+00    0.0     0.00065470       -29.6366791218 -4.40E-06
     7 TBLite/Diag 0.40E+00    0.0     0.00001834       -29.6366791230 -1.25E-09
     8 TBLite/Diag 0.40E+00    0.0     0.00001054       -29.6366791236 -5.04E-10
     9 TBLite/Diag 0.40E+00    0.0     0.00000136       -29.6366791236 -2.48E-12
    10 TBLite/Diag 0.40E+00    0.0     0.00000027       -29.6366791236 -4.73E-13
    11 TBLite/Diag 0.40E+00    0.0     0.00000005       -29.6366791236 -3.55E-15
    12 TBLite/Diag 0.40E+00    0.0     0.00000001       -29.6366791236 -3.55E-15
    13 TBLite/Diag 0.40E+00    0.0     3.2650E-09       -29.6366791236  1.42E-14
    14 TBLite/Diag 0.40E+00    0.0     2.1949E-10       -29.6366791236 -2.84E-14

  *** SCF run converged in    14 steps ***


  Core Hamiltonian energy:                                    -30.03668347654975
  Repulsive potential energy:                                   0.39837170371605
  Electrostatic energy:                                         0.02542992324128
  Self-consistent dispersion energy:                           -0.02398971641297
  Non-self consistent dispersion energy:                        0.00019244244932
  Correction for halogen bonding:                               0.00000000000000
  Electronic entropic energy:                                  -0.00000000000000
  Fermi energy:                                                 0.02604273794991

  Total energy:                                               -29.63667912355606
  Total energy (extrapolated to T->0):                        -29.63667912355606

 ENERGY| Total FORCE_EVAL ( QS ) energy [hartree]            -29.636679123556057

 OPT| **************************************************************************
 OPT| Step number                                                              0
 OPT| Optimization method                                                   BFGS
 OPT| Total energy [hartree]                                      -29.6366791236
 OPT| Used time [s]                                                        0.039
 OPT| **************************************************************************
 OPT| Estimated peak process memory [MiB]                                    164

 --------------------------
 OPTIMIZATION STEP:      1
 --------------------------

 Extrapolation method: ASPC

 Number of electrons:                                                         56
 Number of occupied orbitals:                                                 28
 Number of molecular orbitals:                                                56

 Number of orbital functions:                                                 56
 Number of independent orbital functions:                                     56


 SCF WAVEFUNCTION OPTIMIZATION

  Step     Update method      Time    Convergence         Total energy    Change
  ------------------------------------------------------------------------------
     1 TBLite/Diag 0.40E+00    0.0     0.01238425       -29.6387037409 -2.96E+01
     2 TBLite/Diag 0.40E+00    0.0     0.00062131       -29.6387088488 -5.11E-06
     3 TBLite/Diag 0.40E+00    0.0     0.00056395       -29.6387096271 -7.78E-07
     4 TBLite/Diag 0.40E+00    0.0     0.00014349       -29.6387097382 -1.11E-07
     5 TBLite/Diag 0.40E+00    0.0     0.00005281       -29.6387097404 -2.20E-09
     6 TBLite/Diag 0.40E+00    0.0     0.00002596       -29.6387097456 -5.22E-09
     7 TBLite/Diag 0.40E+00    0.0     0.00000248       -29.6387097456 -7.18E-12
     8 TBLite/Diag 0.40E+00    0.0     0.00000025       -29.6387097456 -2.70E-13
     9 TBLite/Diag 0.40E+00    0.0     0.00000007       -29.6387097456 -3.55E-14
    10 TBLite/Diag 0.40E+00    0.0     0.00000002       -29.6387097456  1.07E-14
    11 TBLite/Diag 0.40E+00    0.0     1.6045E-09       -29.6387097456  0.00E+00
    12 TBLite/Diag 0.40E+00    0.0     4.2035E-10       -29.6387097456 -7.11E-15

  *** SCF run converged in    12 steps ***


  Core Hamiltonian energy:                                    -30.05542801058190
  Repulsive potential energy:                                   0.41630109776095
  Electrostatic energy:                                         0.02435566384139
  Self-consistent dispersion energy:                           -0.02412577913311
  Non-self consistent dispersion energy:                        0.00018728246635
  Correction for halogen bonding:                               0.00000000000000
  Electronic entropic energy:                                  -0.00000000000000
  Fermi energy:                                                 0.03127959523669

  Total energy:                                               -29.63870974564632
  Total energy (extrapolated to T->0):                        -29.63870974564632

 ENERGY| Total FORCE_EVAL ( QS ) energy [hartree]            -29.638709745646324

 OPT| **************************************************************************
 OPT| Step number                                                              1
 OPT| Optimization method                                                   BFGS
 OPT| Total energy [hartree]                                      -29.6387097456
 OPT| Effective energy change [hartree]                            -0.0020306221
 OPT| Predicted energy change [hartree]                            -0.0016796071
 OPT| Scaling factor                                                0.0000000000
 OPT| Step size                                                     0.0375624810
 OPT| Trust radius                                                  0.4724315332
 OPT| Decrease in energy                                                     YES
 OPT| Used time [s]                                                        0.034
 OPT|
 OPT| Maximum step size                                             0.0375624810
 OPT| Convergence limit for maximum step size                       0.0030000000
 OPT| Maximum step size is converged                                          NO
 OPT|
 OPT| RMS step size                                                 0.0160809382
 OPT| Convergence limit for RMS step size                           0.0015000000
 OPT| RMS step size is converged                                              NO
 OPT|
 OPT| Maximum gradient                                              0.0038228843
 OPT| Convergence limit for maximum gradient                        0.0004500000
 OPT| Maximum gradient is converged                                           NO
 OPT|
 OPT| RMS gradient                                                  0.0014915118
 OPT| Convergence limit for RMS gradient                            0.0003000000
 OPT| RMS gradient is converged                                               NO
 OPT| **************************************************************************
 OPT| Estimated peak process memory after this step [MiB]                    164

 --------------------------
 OPTIMIZATION STEP:      2
 --------------------------

 Extrapolation method: ASPC

 Number of electrons:                                                         56
 Number of occupied orbitals:                                                 28
 Number of molecular orbitals:                                                56

 Number of orbital functions:                                                 56
 Number of independent orbital functions:                                     56


 SCF WAVEFUNCTION OPTIMIZATION

  Step     Update method      Time    Convergence         Total energy    Change
  ------------------------------------------------------------------------------
     1 TBLite/Diag 0.40E+00    0.0     0.00892985       -29.6388291645 -2.96E+01
     2 TBLite/Diag 0.40E+00    0.0     0.00105554       -29.6388364068 -7.24E-06
     3 TBLite/Diag 0.40E+00    0.0     0.00072212       -29.6388358066  6.00E-07
     4 TBLite/Diag 0.40E+00    0.0     0.00044760       -29.6388376383 -1.83E-06
     5 TBLite/Diag 0.40E+00    0.0     0.00001968       -29.6388376396 -1.33E-09
     6 TBLite/Diag 0.40E+00    0.0     0.00001988       -29.6388376409 -1.30E-09
     7 TBLite/Diag 0.40E+00    0.0     0.00000230       -29.6388376409 -6.68E-12
     8 TBLite/Diag 0.40E+00    0.0     0.00000028       -29.6388376409 -3.52E-13
     9 TBLite/Diag 0.40E+00    0.0     0.00000007       -29.6388376409 -1.07E-14
    10 TBLite/Diag 0.40E+00    0.0     0.00000002       -29.6388376409  7.11E-15
    11 TBLite/Diag 0.40E+00    0.0     3.3657E-09       -29.6388376409 -7.11E-15
    12 TBLite/Diag 0.40E+00    0.0     8.5321E-10       -29.6388376409 -3.55E-15

  *** SCF run converged in    12 steps ***


  Core Hamiltonian energy:                                    -30.07013608554486
  Repulsive potential energy:                                   0.43201172447075
  Electrostatic energy:                                         0.02335759620749
  Self-consistent dispersion energy:                           -0.02425359012074
  Non-self consistent dispersion energy:                        0.00018271410800
  Correction for halogen bonding:                               0.00000000000000
  Electronic entropic energy:                                  -0.00000000000000
  Fermi energy:                                                 0.03829324753565

  Total energy:                                               -29.63883764087936
  Total energy (extrapolated to T->0):                        -29.63883764087936

 ENERGY| Total FORCE_EVAL ( QS ) energy [hartree]            -29.638837640879355

 OPT| **************************************************************************
 OPT| Step number                                                              2
 OPT| Optimization method                                                   BFGS
 OPT| Total energy [hartree]                                      -29.6388376409
 OPT| Effective energy change [hartree]                            -0.0001278952
 OPT| Predicted energy change [hartree]                            -0.0008438412
 OPT| Scaling factor                                                0.0000000000
 OPT| Step size                                                     0.0320848935
 OPT| Trust radius                                                  0.4724315332
 OPT| Decrease in energy                                                     YES
 OPT| Used time [s]                                                        0.034
 OPT|
 OPT| Maximum step size                                             0.0320848935
 OPT| Convergence limit for maximum step size                       0.0030000000
 OPT| Maximum step size is converged                                          NO
 OPT|
 OPT| RMS step size                                                 0.0167992377
 OPT| Convergence limit for RMS step size                           0.0015000000
 OPT| RMS step size is converged                                              NO
 OPT|
 OPT| Maximum gradient                                              0.0043791997
 OPT| Convergence limit for maximum gradient                        0.0004500000
 OPT| Maximum gradient is converged                                           NO
 OPT|
 OPT| RMS gradient                                                  0.0018556118
 OPT| Convergence limit for RMS gradient                            0.0003000000
 OPT| RMS gradient is converged                                               NO
 OPT| **************************************************************************
 OPT| Estimated peak process memory after this step [MiB]                    165

 --------------------------
 OPTIMIZATION STEP:      3
 --------------------------

 Extrapolation method: ASPC

 Number of electrons:                                                         56
 Number of occupied orbitals:                                                 28
 Number of molecular orbitals:                                                56

 Number of orbital functions:                                                 56
 Number of independent orbital functions:                                     56


 SCF WAVEFUNCTION OPTIMIZATION

  Step     Update method      Time    Convergence         Total energy    Change
  ------------------------------------------------------------------------------
     1 TBLite/Diag 0.40E+00    0.0     0.00563857       -29.6392276744 -2.96E+01
     2 TBLite/Diag 0.40E+00    0.0     0.00060491       -29.6392299050 -2.23E-06
     3 TBLite/Diag 0.40E+00    0.0     0.00041274       -29.6392295791  3.26E-07
     4 TBLite/Diag 0.40E+00    0.0     0.00026441       -29.6392302599 -6.81E-07
     5 TBLite/Diag 0.40E+00    0.0     0.00000998       -29.6392302602 -2.83E-10
     6 TBLite/Diag 0.40E+00    0.0     0.00000974       -29.6392302605 -3.10E-10
     7 TBLite/Diag 0.40E+00    0.0     0.00000125       -29.6392302605 -2.12E-12
     8 TBLite/Diag 0.40E+00    0.0     0.00000007       -29.6392302605 -3.55E-15
     9 TBLite/Diag 0.40E+00    0.0     0.00000004       -29.6392302605 -2.49E-14
    10 TBLite/Diag 0.40E+00    0.0     0.00000001       -29.6392302605 -3.55E-15
    11 TBLite/Diag 0.40E+00    0.0     1.2748E-09       -29.6392302605 -3.55E-15
    12 TBLite/Diag 0.40E+00    0.0     4.7005E-10       -29.6392302605  1.78E-14

  *** SCF run converged in    12 steps ***


  Core Hamiltonian energy:                                    -30.06434080472086
  Repulsive potential energy:                                   0.42528163227652
  Electrostatic energy:                                         0.02385765915792
  Self-consistent dispersion energy:                           -0.02421281075824
  Non-self consistent dispersion energy:                        0.00018406355633
  Correction for halogen bonding:                               0.00000000000000
  Electronic entropic energy:                                  -0.00000000000000
  Fermi energy:                                                 0.03550548637690

  Total energy:                                               -29.63923026048834
  Total energy (extrapolated to T->0):                        -29.63923026048834

 ENERGY| Total FORCE_EVAL ( QS ) energy [hartree]            -29.639230260488340

 OPT| **************************************************************************
 OPT| Step number                                                              3
 OPT| Optimization method                                                   BFGS
 OPT| Total energy [hartree]                                      -29.6392302605
 OPT| Effective energy change [hartree]                            -0.0003926196
 OPT| Predicted energy change [hartree]                            -0.0004009529
 OPT| Scaling factor                                                0.0000000000
 OPT| Step size                                                     0.0124722194
 OPT| Trust radius                                                  0.4724315332
 OPT| Decrease in energy                                                     YES
 OPT| Used time [s]                                                        0.035
 OPT|
 OPT| Maximum step size                                             0.0124722194
 OPT| Convergence limit for maximum step size                       0.0030000000
 OPT| Maximum step size is converged                                          NO
 OPT|
 OPT| RMS step size                                                 0.0065253993
 OPT| Convergence limit for RMS step size                           0.0015000000
 OPT| RMS step size is converged                                              NO
 OPT|
 OPT| Maximum gradient                                              0.0002544667
 OPT| Convergence limit for maximum gradient                        0.0004500000
 OPT| Maximum gradient is converged                                          YES
 OPT|
 OPT| RMS gradient                                                  0.0000854006
 OPT| Convergence limit for RMS gradient                            0.0003000000
 OPT| RMS gradient is converged                                              YES
 OPT| **************************************************************************
 OPT| Estimated peak process memory after this step [MiB]                    165

 --------------------------
 OPTIMIZATION STEP:      4
 --------------------------

 Extrapolation method: ASPC

 Number of electrons:                                                         56
 Number of occupied orbitals:                                                 28
 Number of molecular orbitals:                                                56

 Number of orbital functions:                                                 56
 Number of independent orbital functions:                                     56


 SCF WAVEFUNCTION OPTIMIZATION

  Step     Update method      Time    Convergence         Total energy    Change
  ------------------------------------------------------------------------------
     1 TBLite/Diag 0.40E+00    0.0     0.00022985       -29.6392311978 -2.96E+01
     2 TBLite/Diag 0.40E+00    0.0     0.00004876       -29.6392312092 -1.14E-08
     3 TBLite/Diag 0.40E+00    0.0     0.00002293       -29.6392312087  4.92E-10
     4 TBLite/Diag 0.40E+00    0.0     0.00001359       -29.6392312100 -1.35E-09
     5 TBLite/Diag 0.40E+00    0.0     0.00000133       -29.6392312100 -8.93E-12
     6 TBLite/Diag 0.40E+00    0.0     0.00000067       -29.6392312100 -6.39E-13
     7 TBLite/Diag 0.40E+00    0.0     0.00000007       -29.6392312100 -2.13E-14
     8 TBLite/Diag 0.40E+00    0.0     0.00000004       -29.6392312100  1.07E-14
     9 TBLite/Diag 0.40E+00    0.0     4.4568E-09       -29.6392312100  0.00E+00
    10 TBLite/Diag 0.40E+00    0.0     1.0347E-09       -29.6392312100 -3.55E-15
    11 TBLite/Diag 0.40E+00    0.0     3.1210E-10       -29.6392312100  1.07E-14

  *** SCF run converged in    11 steps ***


  Core Hamiltonian energy:                                    -30.06397820311390
  Repulsive potential energy:                                   0.42490519940663
  Electrostatic energy:                                         0.02386857499151
  Self-consistent dispersion energy:                           -0.02421093153363
  Non-self consistent dispersion energy:                        0.00018415021846
  Correction for halogen bonding:                               0.00000000000000
  Electronic entropic energy:                                  -0.00000000000000
  Fermi energy:                                                 0.03541237020596

  Total energy:                                               -29.63923121003092
  Total energy (extrapolated to T->0):                        -29.63923121003092

 ENERGY| Total FORCE_EVAL ( QS ) energy [hartree]            -29.639231210030921

 OPT| **************************************************************************
 OPT| Step number                                                              4
 OPT| Optimization method                                                   BFGS
 OPT| Total energy [hartree]                                      -29.6392312100
 OPT| Effective energy change [hartree]                            -0.0000009495
 OPT| Predicted energy change [hartree]                            -0.0000009330
 OPT| Scaling factor                                                0.0000000000
 OPT| Step size                                                     0.0012004507
 OPT| Trust radius                                                  0.4724315332
 OPT| Decrease in energy                                                     YES
 OPT| Used time [s]                                                        0.033
 OPT|
 OPT| Maximum step size                                             0.0012004507
 OPT| Convergence limit for maximum step size                       0.0030000000
 OPT| Maximum step size is converged                                         YES
 OPT|
 OPT| RMS step size                                                 0.0003995342
 OPT| Convergence limit for RMS step size                           0.0015000000
 OPT| RMS step size is converged                                             YES
 OPT|
 OPT| Maximum gradient                                              0.0001266742
 OPT| Convergence limit for maximum gradient                        0.0004500000
 OPT| Maximum gradient is converged                                          YES
 OPT|
 OPT| RMS gradient                                                  0.0000352030
 OPT| Convergence limit for RMS gradient                            0.0003000000
 OPT| RMS gradient is converged                                              YES
 OPT| **************************************************************************
 OPT| Estimated peak process memory after this step [MiB]                    165

 *******************************************************************************
 ***                    GEOMETRY OPTIMIZATION COMPLETED                      ***
 *******************************************************************************

 write_final_structure: Optimization converged, writing XYZ file gladly:
  adamantane_GFN2_mol_geoopt-FINAL-1_4.xyz

 write_final_structure: Optimization converged, writing CIF file gladly:
  adamantane_GFN2_mol_geoopt-FINAL-1_4.cif

 write_final_structure: Done!

                    Reevaluating energy at the minimum

 Extrapolation method: ASPC

 Number of electrons:                                                         56
 Number of occupied orbitals:                                                 28
 Number of molecular orbitals:                                                56

 Number of orbital functions:                                                 56
 Number of independent orbital functions:                                     56


 SCF WAVEFUNCTION OPTIMIZATION

  Step     Update method      Time    Convergence         Total energy    Change
  ------------------------------------------------------------------------------
     1 TBLite/Diag 0.40E+00    0.0     1.9949E-10       -29.6392312100 -2.96E+01

  *** SCF run converged in     1 steps ***


  Core Hamiltonian energy:                                    -30.06397820311404
  Repulsive potential energy:                                   0.42490519940663
  Electrostatic energy:                                         0.02386857499169
  Self-consistent dispersion energy:                           -0.02421093153368
  Non-self consistent dispersion energy:                        0.00018415021846
  Correction for halogen bonding:                               0.00000000000000
  Electronic entropic energy:                                  -0.00000000000000
  Fermi energy:                                                 0.03541237020446

  Total energy:                                               -29.63923121003093
  Total energy (extrapolated to T->0):                        -29.63923121003093

 ENERGY| Total FORCE_EVAL ( QS ) energy [hartree]            -29.639231210030928

 -------------------------------------------------------------------------------
 -                                                                             -
 -                                DBCSR STATISTICS                             -
 -                                                                             -
 -------------------------------------------------------------------------------
 COUNTER                                    TOTAL       BLAS       SMM       ACC
 flops     1 x    24 x     1               184320       0.0%    100.0%      0.0%     
 flops     1 x    32 x     1               245760       0.0%    100.0%      0.0%     
 flops     4 x    24 x     1               460800       0.0%    100.0%      0.0%     
 flops     1 x    24 x     4               460800       0.0%    100.0%      0.0%     
 flops     4 x    32 x     1               614400       0.0%    100.0%      0.0%     
 flops     1 x    32 x     4               614400       0.0%    100.0%      0.0%     
 flops     1 x     1 x    56              1096704       0.0%    100.0%      0.0%     
 flops     4 x    24 x     4              1152000       0.0%    100.0%      0.0%     
 flops     4 x    32 x     4              1536000       0.0%    100.0%      0.0%     
 flops     1 x     4 x    56              2548224       0.0%    100.0%      0.0%     
 flops     4 x     1 x    56              2612736       0.0%    100.0%      0.0%     
 flops     4 x     4 x    56              7096320       0.0%    100.0%      0.0%     
 flops inhomo. stacks                           0       0.0%      0.0%      0.0%
 flops total                        18.622464E+06       0.0%    100.0%      0.0%
 flops max/rank                     18.622464E+06       0.0%    100.0%      0.0%
 matmuls inhomo. stacks                         0       0.0%      0.0%      0.0%
 matmuls total                              45552       0.0%    100.0%      0.0%
 number of processed stacks                   408       0.0%    100.0%      0.0%
 average stack size                                     0.0     111.6       0.0
 marketing flops                    17.912832E+06
 -------------------------------------------------------------------------------
 # multiplications                             87
 max memory usage/rank              13.672092E+09
 # max total images/rank                        1
 # max 3D layers                                1
 # MPI messages exchanged                       0
 -------------------------------------------------------------------------------
 -                                                                             -
 -                      DBCSR MESSAGE PASSING PERFORMANCE                      -
 -                                                                             -
 -------------------------------------------------------------------------------
 ROUTINE             CALLS      AVE VOLUME [Bytes]
 MP_Bcast               13                     12.
 MP_Allreduce          448                     10.
 MP_Alltoall          2955                  19051.
 MP_ISend              348                   2116.
 MP_IRecv              348                   2116.
 -------------------------------------------------------------------------------

 -------------------------------------------------------------------------------
 -                                                                             -
 -                          OFFLOAD MEMPOOL STATISTICS                         -
 -                                                                             -
 -------------------------------------------------------------------------------
 Memory consumption                Number of allocations  Used [MiB]  Size [MiB]
 Device                                                1           0           0
 Host                                                  1           0           0
 -------------------------------------------------------------------------------

 MEMORY| Estimated peak process memory [MiB]                                 165

 -------------------------------------------------------------------------------
 -                                                                             -
 -                         MESSAGE PASSING PERFORMANCE                         -
 -                                                                             -
 -------------------------------------------------------------------------------

 ROUTINE             CALLS      AVE VOLUME [Bytes]
 MP_Group                1
 MP_Bcast              138                    242.
 MP_Allreduce         2093                    207.
 MP_Sync                73
 MP_comm_split          72
 -------------------------------------------------------------------------------


 -------------------------------------------------------------------------------
 -                                                                             -
 -                           R E F E R E N C E S                               -
 -                                                                             -
 -------------------------------------------------------------------------------
 
 CP2K version 2026.1 (Development Version), the CP2K developers group (2026).
 CP2K is freely available from https://www.cp2k.org/ .
 
 M. Iannuzzi, J. Wilhelm, F. Stein, A. Bussy, H. Elgabarty, D. Golze, A. Hehn, 
 M. Graml, S. Marek, B. Sertcan Gökmen, C. Schran, H. Forbert, R. Z. 
 Khaliullin, A. Kozhevnikov, M. Taillefumier, R. Meli, V. V. Rybkin, M. Brehm, 
 R. Schade, O. Schütt, J. V. Pototschnig, H. Mirhosseini, A. Knüpfer, D. Marx, 
 M. Krack, J. Hutter, T. D. Kühne.
 J. Phys. Chem. B 130, 1237-1310 (2026).
 The CP2K Program Package Made Simple.
 https://doi.org/10.1021/acs.jpcb.5c05851

 A. Katbashev, M. Stahn, T. Rose, V. Alizadeh, M. Friede, C. Plett, P. 
 Steinbach, S. Ehlert.
 J. Phys. Chem. A 129, 2667-2682 (2025).
 Overview on Building Blocks and Applications of Efficient and Robust Extended 
 Tight Binding.
 https://doi.org/10.1021/acs.jpca.4c08263

 T. D. Kühne, M. Iannuzzi, M. Del Ben, V. V. Rybkin, P. Seewald, F. Stein, T. 
 Laino, R. Z. Khaliullin, O. Schütt, F. Schiffmann, D. Golze, J. Wilhelm, S. 
 Chulkov, M. H. Bani-Hashemian, V. Weber, U. Borstnik, M. Taillefumier, A. S. 
 Jakobovits, A. Lazzaro, H. Pabst, T. Müller, R. Schade, M. Guidon, S. 
 Andermatt, N. Holmberg, G. K. Schenter, A. Hehn, A. Bussy, F. Belleflamme, G. 
 Tabacchi, A. Glöß, M. Lass, I. Bethune, C. J. Mundy, C. Plessl, M. Watkins, 
 J. VandeVondele, M. Krack, J. Hutter.
 J. Chem. Phys. 152, 194103 (2020).
 CP2K: An electronic structure and molecular dynamics software package - 
 Quickstep: Efficient and accurate electronic structure calculations.
 https://doi.org/10.1063/5.0007045

 P. Pracht, E. Caldeweyher, S. Ehlert, S. Grimme.
 ChemRxiv, (2019).
 A Robust Non-Self-Consistent Tight-Binding Quantum Chemistry Method for large 
 Molecules.
 https://doi.org/10.26434/chemrxiv.8326202.v1

 S. Grimme, C. Bannwarth, P. Shushkov.
 J. Chem. Theory Comput. 13, 1989 (2017).
 A Robust and Accurate Tight-Binding Quantum Chemical Method for Structures, 
 Vibrational Frequencies, and Noncovalent Interactions of Large Molecular 
 Systems Parametrized for All spd-Block Elements (Z = 1-86).
 https://doi.org/10.1021/acs.jctc.7b00118

 O. Schuett, P. Messmer, J. Hutter, J. VandeVondele.
 Electronic Structure Calculations on Graphics Processing Units, 173-190 (2016).
 GPU-Accelerated Sparse Matrix-Matrix Multiplication for Linear Scaling Density 
 Functional Theory.
 https://doi.org/10.1002/9781118670712.ch8

 A. Heinecke, G. Henry, M. Hutchinson, H. Pabst.
 Proceedings of Intl. Supercomputing Conference, 981-991 (2016).
 LIBXSMM: Accelerating Small Matrix Multiplications by Runtime Code Generation.
 https://doi.org/10.1109/SC.2016.83

 U. Borstnik, J. VandeVondele, V. Weber, J. Hutter.
 Parallel Comput. 40, 47-58 (2014).
 Sparse matrix multiplication: The distributed block-compressed sparse row 
 library.
 https://doi.org/10.1016/j.parco.2014.03.012

 T. D. Kühne, M. Krack, F. R. Mohamed, M. Parrinello.
 Phys. Rev. Lett. 98, 066401 (2007).
 Efficient and accurate Car-Parrinello-like approach to Born-Oppenheimer 
 molecular dynamics.
 https://doi.org/10.1103/PhysRevLett.98.066401

 M. Frigo, S. G. Johnson.
 Proc. IEEE 93, 216-231 (2005).
 The design and implementation of FFTW3.
 https://doi.org/10.1109/JPROC.2004.840301

 J. Kolafa.
 J. Comput. Chem. 25, 335-342 (2004).
 Time-reversible always stable predictor-corrector method for molecular dynamics 
 of polarizable molecules.
 https://doi.org/10.1002/jcc.10385

 N. D. Mermin.
 Phys. Rev. 137, A1441-A1443 (1965).
 Thermal Properties of the Inhomogeneous Electron Gas.
 https://doi.org/10.1103/PhysRev.137.A1441


 -------------------------------------------------------------------------------
 -                                                                             -
 -                                T I M I N G                                  -
 -                                                                             -
 -------------------------------------------------------------------------------
 SUBROUTINE                       CALLS  ASD         SELF TIME        TOTAL TIME
                                MAXIMUM       AVERAGE  MAXIMUM  AVERAGE  MAXIMUM
 CP2K                                 1  1.0    0.002    0.002    0.188    0.188
 cp_geo_opt                           1  2.0    0.000    0.000    0.183    0.183
 geoopt_bfgs                          1  3.0    0.001    0.001    0.183    0.183
 cp_eval_at                           6  4.0    0.000    0.000    0.177    0.177
 qs_forces                            5  5.0    0.000    0.000    0.170    0.170
 qs_energies                          6  5.8    0.000    0.000    0.152    0.152
 scf_env_do_scf                       6  6.8    0.000    0.000    0.125    0.125
 scf_env_do_scf_inner_loop           62  8.0    0.019    0.019    0.124    0.124
 qs_scf_new_mos                      62  9.0    0.000    0.000    0.063    0.063
 rebuild_ks_matrix                   67  9.8    0.000    0.000    0.048    0.048
 build_tblite_ks_matrix              67 10.8    0.047    0.047    0.048    0.048
 qs_ks_update_qs_env                 62  9.0    0.000    0.000    0.038    0.038
 cp_dbcsr_plus_fm_fm_t               72 10.8    0.000    0.000    0.028    0.028
 calculate_dm_sparse                 67 10.0    0.000    0.000    0.026    0.026
 build_tblite_matrices               11  7.0    0.012    0.012    0.026    0.026
 dbcsr_multiply_generic              87 11.9    0.001    0.001    0.023    0.023
 copy_dbcsr_to_fm                   139 10.4    0.000    0.000    0.021    0.021
 dbcsr_complete_redistribute        298 12.2    0.014    0.014    0.020    0.020
 eigensolver                         62 10.0    0.001    0.001    0.015    0.015
 cp_fm_syevd                         72 10.6    0.000    0.000    0.015    0.015
 qs_energies_init_hamiltonians        6  6.8    0.000    0.000    0.013    0.013
 tb_get_multipole                    11  8.0    0.009    0.009    0.012    0.012
 cp_fm_syevd_base                    72 11.6    0.012    0.012    0.012    0.012
 qs_diis_b_step                      56 10.0    0.000    0.000    0.012    0.012
 qs_ks_update_qs_env_forces           5  6.0    0.000    0.000    0.012    0.012
 init_scf_run                         6  6.8    0.000    0.000    0.011    0.011
 make_m2s                           174 12.9    0.001    0.001    0.011    0.011
 scf_env_initial_rho_setup            6  7.8    0.000    0.000    0.010    0.010
 wfi_extrapolate                      6  8.8    0.000    0.000    0.010    0.010
 copy_fm_to_dbcsr                   159 11.8    0.000    0.000    0.008    0.008
 multiply_cannon                     87 12.9    0.002    0.002    0.006    0.006
 dbcsr_desymmetrize_deep            139 11.4    0.003    0.003    0.006    0.006
 cp_dbcsr_sm_fm_multiply             15 10.3    0.000    0.000    0.006    0.006
 make_images                        174 13.9    0.001    0.001    0.005    0.005
 dbcsr_finalize                    1697 12.1    0.001    0.001    0.005    0.005
 -------------------------------------------------------------------------------

 The number of warnings for this run is : 0
 
 -------------------------------------------------------------------------------
  **** **** ******  **  PROGRAM ENDED AT                 2026-05-23 22:46:20.762
 ***** ** ***  *** **   PROGRAM RAN ON                                spark-c86c
 **    ****   ******    PROGRAM RAN BY                                  kuehne88
 ***** **    ** ** **   PROGRAM PROCESS ID                               2226271
  **** **  *******  **  PROGRAM STOPPED IN /home/kuehne88/periodic-gfn2-benchmar
                                           ks/X23b/runs/molecule_geoopt/GFN2/ada
                                           mantane_GFN2_mol_geoopt
