 DBCSR| CPU Multiplication driver                                           XSMM (U)
 DBCSR| Multrec recursion limit                                              512 (U)
 DBCSR| Multiplication stack size                                           1000 (D)
 DBCSR| Maximum elements for images                                    UNLIMITED (U)
 DBCSR| Multiplicative factor virtual images                                   1 (U)
 DBCSR| Use multiplication densification                                       T (D)
 DBCSR| Multiplication size stacks                                             3 (U)
 DBCSR| Use memory pool for CPU allocation                                     F (U)
 DBCSR| Number of 3D layers                                               SINGLE (U)
 DBCSR| Use MPI memory allocation                                              F (U)
 DBCSR| Use RMA algorithm                                                      F (U)
 DBCSR| Use Communication thread                                               T (U)
 DBCSR| Communication thread load                                             87 (D)
 DBCSR| MPI: My process id                                                     0
 DBCSR| MPI: Number of processes                                               1
 DBCSR| OMP: Current number of threads                                         1
 DBCSR| OMP: Max number of threads                                             1
 DBCSR| Split modifier for TAS multiplication algorithm                  1.0E+00 (U)


  **** **** ******  **  PROGRAM STARTED AT               2026-05-23 22:46:19.909
 ***** ** ***  *** **   PROGRAM STARTED ON                            spark-c86c
 **    ****   ******    PROGRAM STARTED BY                              kuehne88
 ***** **    ** ** **   PROGRAM PROCESS ID                               2226710
  **** **  *******  **  PROGRAM STARTED IN /home/kuehne88/periodic-gfn2-benchmar
                                           ks/X23b/runs/molecule_geoopt/GFN2/co2
                                           _GFN2_mol_geoopt

 CP2K| version string:                 CP2K version 2026.1 (Development Version)
 CP2K| source code revision number:                                   0622d442e4
 CP2K| cp2kflags: omp fftw3 libxc parallel scalapack mpi_f08 xsmm spglib libdftd
 CP2K|            4 dftd4_v3 mctc-lib tblite
 CP2K| is freely available from                            https://www.cp2k.org/
 CP2K| Program compiled at                                   2026-05-23 22:05:08
 CP2K| Program compiled on                                            spark-c86c
 CP2K| Program compiled for                                              aarch64
 CP2K| Data directory path    /home/kuehne88/cp2k-master-tblite-20260523/install
 CP2K| Input file name                                   co2_GFN2_mol_geoopt.inp

 GLOBAL| Force Environment number                                              1
 GLOBAL| Basis set file name                                           BASIS_SET
 GLOBAL| Potential file name                                           POTENTIAL
 GLOBAL| MM Potential file name                                     MM_POTENTIAL
 GLOBAL| Coordinate file name                                      __STD_INPUT__
 GLOBAL| Method name                                                        CP2K
 GLOBAL| Project name                                        co2_GFN2_mol_geoopt
 GLOBAL| Run type                                                        GEO_OPT
 GLOBAL| FFT library                                                       FFTW3
 GLOBAL| Diagonalization library                                       ScaLAPACK
 GLOBAL| Cholesky decomposition library                                ScaLAPACK
 GLOBAL| DGEMM library                                                      BLAS
 GLOBAL| Direct generalized diagonalization requested                          F
 GLOBAL| Orthonormality check for eigenvectors                          DISABLED
 GLOBAL| Matrix multiplication library                                 ScaLAPACK
 GLOBAL| All-to-all communication in single precision                          F
 GLOBAL| FFTs using library dependent lengths                                  F
 GLOBAL| Grid backend                                                       AUTO
 GLOBAL| Global print level                                                  LOW
 GLOBAL| MPI I/O enabled                                                       T
 GLOBAL| Total number of message passing processes                             1
 GLOBAL| Number of distributed systems (nodes)                                 1
 GLOBAL| Number of threads for this process                                    1
 GLOBAL| This output is from process                                           0
 GLOBAL| OpenMP stack size per thread (OMP_STACKSIZE)                    default
 GLOBAL| CPU model name                                                  UNKNOWN
 GLOBAL| CPUID                                                              2200
 GLOBAL| Compiled for CPUID                                                 2000

 *** HINT in environment.F:970 :: The compiler target flags (arm_arch64)   ***
 *** used to build this binary cannot exploit all extensions of this CPU   ***
 *** model (arm_sve256). Consider compiler target flags as part of FCFLAGS ***
 *** and CFLAGS (ARCH file).                                               ***


 MEMORY| system memory details [Kb]
 MEMORY|                        rank 0           min           max       average
 MEMORY| MemTotal            125508532     125508532     125508532     125508532
 MEMORY| MemFree             106063948     106063948     106063948     106063948
 MEMORY| Buffers                866120        866120        866120        866120
 MEMORY| Cached               13217076      13217076      13217076      13217076
 MEMORY| Slab                  1564676       1564676       1564676       1564676
 MEMORY| SReclaimable           888664        888664        888664        888664
 MEMORY| MemLikelyFree       121035808     121035808     121035808     121035808


 GENERATE|  Preliminary Number of Bonds generated:                             0
 GENERATE|  Achieved consistency in connectivity generation.


                  #####   #####        #     #   #     #       #          
                 #     # #     #      #    ##### #     #   # #####  ####  
                 #     # #           #       #   ###   #       #   #    # 
                 #     #  #####     #        #   #  #  #   #   #   ###### 
                 #   # #       #   #         #   #   # #   #   #   #      
                 #    #  #     #  #          #   #  #  # # #   #    #   # 
                  #### #  #####  #           #   ###   ##  #   #     ###  

                                   GFN2-xTB  
                                 Version 0.0                       
                            Johann V. Pototschnig                  



 TOTAL NUMBERS AND MAXIMUM NUMBERS

  Total number of            - Atomic kinds:                                   2
                             - Atoms:                                          3
                             - Shell sets:                                     6
                             - Shells:                                         6
                             - Primitive Cartesian functions:                 24
                             - Cartesian basis functions:                     12
                             - Spherical basis functions:                     12

  Maximum angular momentum of the orbital basis functions:                     1


 SCF PARAMETERS         Density guess:                                     MOPAC
                        --------------------------------------------------------
                        max_scf:                                             300
                        max_scf_history:                                       0
                        max_diis:                                              4
                        --------------------------------------------------------
                        eps_scf:                                        1.00E-09
                        eps_scf_history:                                0.00E+00
                        eps_diis:                                       1.00E-01
                        eps_eigval:                                     1.00E-05
                        --------------------------------------------------------
                        level_shift [a.u.]:                             0.000000
                        added MOs                                         4    0
                        --------------------------------------------------------
                        Mixing method:                           DIRECT_P_MIXING
                        --------------------------------------------------------
                        Smear method:                                FERMI_DIRAC
                        Electronic temperature [K]:                        300.0
                        Electronic temperature [a.u.]:                  9.50E-04
                        Accuracy threshold:                             1.00E-06
                        --------------------------------------------------------
                        No outer SCF

 BFGS| Use rational function optimization for step estimation:                NO
 BFGS| Use model Hessian for initial guess:                                  YES
 BFGS| Restart Hessian:                                                       NO
 BFGS| Trust radius:                                                       0.472

 *******************************************************************************
 ***                     STARTING GEOMETRY OPTIMIZATION                      ***
 ***                                   BFGS                                  ***
 *******************************************************************************

 Extrapolation method: initial_guess

 Number of electrons:                                                         16
 Number of occupied orbitals:                                                  8
 Number of molecular orbitals:                                                12

 Number of orbital functions:                                                 12
 Number of independent orbital functions:                                     12


 SCF WAVEFUNCTION OPTIMIZATION

  Step     Update method      Time    Convergence         Total energy    Change
  ------------------------------------------------------------------------------
     1 TBLite/Diag 0.40E+00    0.0     0.70503839       -10.0330422133 -1.00E+01
     2 TBLite/Diag 0.40E+00    0.0     0.41260075       -10.2893836574 -2.56E-01
     3 TBLite/Diag 0.40E+00    0.0     0.12445369       -10.3039660166 -1.46E-02
     4 TBLite/Diag 0.40E+00    0.0     0.05454116       -10.3045041522 -5.38E-04
     5 TBLite/Diag 0.40E+00    0.0     0.02617047       -10.3057186199 -1.21E-03
     6 TBLite/Diag 0.40E+00    0.0     0.00080096       -10.3057202885 -1.67E-06
     7 TBLite/Diag 0.40E+00    0.0     0.00013056       -10.3057203275 -3.91E-08
     8 TBLite/Diag 0.40E+00    0.0     0.00000945       -10.3057203279 -3.94E-10
     9 TBLite/Diag 0.40E+00    0.0     0.00000580       -10.3057203280 -7.39E-11
    10 TBLite/Diag 0.40E+00    0.0     0.00000052       -10.3057203280 -4.80E-13
    11 TBLite/Diag 0.40E+00    0.0     0.00000002       -10.3057203280  0.00E+00
    12 TBLite/Diag 0.40E+00    0.0     4.3246E-09       -10.3057203280 -1.78E-15
    13 TBLite/Diag 0.40E+00    0.0     8.1963E-10       -10.3057203280  5.33E-15

  *** SCF run converged in    13 steps ***


  Core Hamiltonian energy:                                    -10.44152242003183
  Repulsive potential energy:                                   0.10008242287991
  Electrostatic energy:                                         0.03640557634098
  Self-consistent dispersion energy:                           -0.00068590533391
  Non-self consistent dispersion energy:                       -0.00000000186541
  Correction for halogen bonding:                               0.00000000000000
  Electronic entropic energy:                                  -0.00000000000000
  Fermi energy:                                                -0.27854775853429

  Total energy:                                               -10.30572032801026
  Total energy (extrapolated to T->0):                        -10.30572032801026

 ENERGY| Total FORCE_EVAL ( QS ) energy [hartree]            -10.305720328010260

 OPT| **************************************************************************
 OPT| Step number                                                              0
 OPT| Optimization method                                                   BFGS
 OPT| Total energy [hartree]                                      -10.3057203280
 OPT| Used time [s]                                                        0.009
 OPT| **************************************************************************
 OPT| Estimated peak process memory [MiB]                                    162

 --------------------------
 OPTIMIZATION STEP:      1
 --------------------------

 Extrapolation method: ASPC

 Number of electrons:                                                         16
 Number of occupied orbitals:                                                  8
 Number of molecular orbitals:                                                12

 Number of orbital functions:                                                 12
 Number of independent orbital functions:                                     12


 SCF WAVEFUNCTION OPTIMIZATION

  Step     Update method      Time    Convergence         Total energy    Change
  ------------------------------------------------------------------------------
     1 TBLite/Diag 0.40E+00    0.0     0.04901617       -10.3083783977 -1.03E+01
     2 TBLite/Diag 0.40E+00    0.0     0.00718345       -10.3084353656 -5.70E-05
     3 TBLite/Diag 0.40E+00    0.0     0.00397480       -10.3084377148 -2.35E-06
     4 TBLite/Diag 0.40E+00    0.0     0.00138135       -10.3084435921 -5.88E-06
     5 TBLite/Diag 0.40E+00    0.0     0.00004797       -10.3084436011 -8.98E-09
     6 TBLite/Diag 0.40E+00    0.0     0.00001114       -10.3084436014 -2.39E-10
     7 TBLite/Diag 0.40E+00    0.0     0.00000134       -10.3084436014 -1.11E-12
     8 TBLite/Diag 0.40E+00    0.0     0.00000010       -10.3084436014 -7.11E-15
     9 TBLite/Diag 0.40E+00    0.0     5.8798E-09       -10.3084436014 -7.11E-15
    10 TBLite/Diag 0.40E+00    0.0     1.2022E-09       -10.3084436014  1.78E-15
    11 TBLite/Diag 0.40E+00    0.0     1.6227E-11       -10.3084436014  1.78E-15

  *** SCF run converged in    11 steps ***


  Core Hamiltonian energy:                                    -10.46476371767324
  Repulsive potential energy:                                   0.12082965117204
  Electrostatic energy:                                         0.03617755153873
  Self-consistent dispersion energy:                           -0.00068708478188
  Non-self consistent dispersion energy:                       -0.00000000161046
  Correction for halogen bonding:                               0.00000000000000
  Electronic entropic energy:                                  -0.00000000000000
  Fermi energy:                                                -0.25874202727312

  Total energy:                                               -10.30844360135481
  Total energy (extrapolated to T->0):                        -10.30844360135481

 ENERGY| Total FORCE_EVAL ( QS ) energy [hartree]            -10.308443601354808

 OPT| **************************************************************************
 OPT| Step number                                                              1
 OPT| Optimization method                                                   BFGS
 OPT| Total energy [hartree]                                      -10.3084436014
 OPT| Effective energy change [hartree]                            -0.0027232733
 OPT| Predicted energy change [hartree]                            -0.0025059861
 OPT| Scaling factor                                                0.0000000000
 OPT| Step size                                                     0.0459115041
 OPT| Trust radius                                                  0.4724315332
 OPT| Decrease in energy                                                     YES
 OPT| Used time [s]                                                        0.007
 OPT|
 OPT| Maximum step size                                             0.0459115041
 OPT| Convergence limit for maximum step size                       0.0030000000
 OPT| Maximum step size is converged                                          NO
 OPT|
 OPT| RMS step size                                                 0.0216416145
 OPT| Convergence limit for RMS step size                           0.0015000000
 OPT| RMS step size is converged                                              NO
 OPT|
 OPT| Maximum gradient                                              0.0032596443
 OPT| Convergence limit for maximum gradient                        0.0004500000
 OPT| Maximum gradient is converged                                           NO
 OPT|
 OPT| RMS gradient                                                  0.0015359232
 OPT| Convergence limit for RMS gradient                            0.0003000000
 OPT| RMS gradient is converged                                               NO
 OPT| **************************************************************************
 OPT| Estimated peak process memory after this step [MiB]                    162

 --------------------------
 OPTIMIZATION STEP:      2
 --------------------------

 Extrapolation method: ASPC

 Number of electrons:                                                         16
 Number of occupied orbitals:                                                  8
 Number of molecular orbitals:                                                12

 Number of orbital functions:                                                 12
 Number of independent orbital functions:                                     12


 SCF WAVEFUNCTION OPTIMIZATION

  Step     Update method      Time    Convergence         Total energy    Change
  ------------------------------------------------------------------------------
     1 TBLite/Diag 0.40E+00    0.0     0.00316187       -10.3084519372 -1.03E+01
     2 TBLite/Diag 0.40E+00    0.0     0.00047164       -10.3084521839 -2.47E-07
     3 TBLite/Diag 0.40E+00    0.0     0.00025717       -10.3084521949 -1.10E-08
     4 TBLite/Diag 0.40E+00    0.0     0.00008760       -10.3084522190 -2.41E-08
     5 TBLite/Diag 0.40E+00    0.0     0.00000368       -10.3084522190 -4.52E-11
     6 TBLite/Diag 0.40E+00    0.0     0.00000012       -10.3084522190 -1.24E-14
     7 TBLite/Diag 0.40E+00    0.0     0.00000006       -10.3084522190  3.55E-15
     8 TBLite/Diag 0.40E+00    0.0     0.00000001       -10.3084522190 -3.55E-15
     9 TBLite/Diag 0.40E+00    0.0     1.5501E-10       -10.3084522190  7.11E-15

  *** SCF run converged in     9 steps ***


  Core Hamiltonian energy:                                    -10.46620397136825
  Repulsive potential energy:                                   0.12227782375896
  Electrostatic energy:                                         0.03616108705856
  Self-consistent dispersion energy:                           -0.00068715689892
  Non-self consistent dispersion energy:                       -0.00000000159534
  Correction for halogen bonding:                               0.00000000000000
  Electronic entropic energy:                                  -0.00000000000000
  Fermi energy:                                                -0.25742870851753

  Total energy:                                               -10.30845221904500
  Total energy (extrapolated to T->0):                        -10.30845221904500

 ENERGY| Total FORCE_EVAL ( QS ) energy [hartree]            -10.308452219045002

 OPT| **************************************************************************
 OPT| Step number                                                              2
 OPT| Optimization method                                                   BFGS
 OPT| Total energy [hartree]                                      -10.3084522190
 OPT| Effective energy change [hartree]                            -0.0000086177
 OPT| Predicted energy change [hartree]                            -0.0000094950
 OPT| Scaling factor                                                0.0000000000
 OPT| Step size                                                     0.0029146467
 OPT| Trust radius                                                  0.4724315332
 OPT| Decrease in energy                                                     YES
 OPT| Used time [s]                                                        0.007
 OPT|
 OPT| Maximum step size                                             0.0029146467
 OPT| Convergence limit for maximum step size                       0.0030000000
 OPT| Maximum step size is converged                                         YES
 OPT|
 OPT| RMS step size                                                 0.0013737603
 OPT| Convergence limit for RMS step size                           0.0015000000
 OPT| RMS step size is converged                                             YES
 OPT|
 OPT| Maximum gradient                                              0.0003075408
 OPT| Convergence limit for maximum gradient                        0.0004500000
 OPT| Maximum gradient is converged                                          YES
 OPT|
 OPT| RMS gradient                                                  0.0001449468
 OPT| Convergence limit for RMS gradient                            0.0003000000
 OPT| RMS gradient is converged                                              YES
 OPT| **************************************************************************
 OPT| Estimated peak process memory after this step [MiB]                    162

 *******************************************************************************
 ***                    GEOMETRY OPTIMIZATION COMPLETED                      ***
 *******************************************************************************

 write_final_structure: Optimization converged, writing XYZ file gladly:
  co2_GFN2_mol_geoopt-FINAL-1_2.xyz

 write_final_structure: Optimization converged, writing CIF file gladly:
  co2_GFN2_mol_geoopt-FINAL-1_2.cif

 write_final_structure: Done!

                    Reevaluating energy at the minimum

 Extrapolation method: ASPC

 Number of electrons:                                                         16
 Number of occupied orbitals:                                                  8
 Number of molecular orbitals:                                                12

 Number of orbital functions:                                                 12
 Number of independent orbital functions:                                     12


 SCF WAVEFUNCTION OPTIMIZATION

  Step     Update method      Time    Convergence         Total energy    Change
  ------------------------------------------------------------------------------
     1 TBLite/Diag 0.40E+00    0.0     5.4958E-12       -10.3084522190 -1.03E+01

  *** SCF run converged in     1 steps ***


  Core Hamiltonian energy:                                    -10.46620397136592
  Repulsive potential energy:                                   0.12227782375896
  Electrostatic energy:                                         0.03616108705621
  Self-consistent dispersion energy:                           -0.00068715689892
  Non-self consistent dispersion energy:                       -0.00000000159534
  Correction for halogen bonding:                               0.00000000000000
  Electronic entropic energy:                                  -0.00000000000000
  Fermi energy:                                                -0.25742870851831

  Total energy:                                               -10.30845221904501
  Total energy (extrapolated to T->0):                        -10.30845221904501

 ENERGY| Total FORCE_EVAL ( QS ) energy [hartree]            -10.308452219045012

 -------------------------------------------------------------------------------
 -                                                                             -
 -                                DBCSR STATISTICS                             -
 -                                                                             -
 -------------------------------------------------------------------------------
 COUNTER                                    TOTAL       BLAS       SMM       ACC
 flops     4 x    12 x     4                20736       0.0%    100.0%      0.0%     
 flops     4 x     4 x    12                92160       0.0%    100.0%      0.0%     
 flops inhomo. stacks                           0       0.0%      0.0%      0.0%
 flops total                       112.896000E+03       0.0%    100.0%      0.0%
 flops max/rank                    112.896000E+03       0.0%    100.0%      0.0%
 matmuls inhomo. stacks                         0       0.0%      0.0%      0.0%
 matmuls total                                294       0.0%    100.0%      0.0%
 number of processed stacks                    46       0.0%    100.0%      0.0%
 average stack size                                     0.0       6.4       0.0
 marketing flops                   112.896000E+03
 -------------------------------------------------------------------------------
 # multiplications                             46
 max memory usage/rank              13.669003E+09
 # max total images/rank                        1
 # max 3D layers                                1
 # MPI messages exchanged                       0
 -------------------------------------------------------------------------------
 -                                                                             -
 -                      DBCSR MESSAGE PASSING PERFORMANCE                      -
 -                                                                             -
 -------------------------------------------------------------------------------
 ROUTINE             CALLS      AVE VOLUME [Bytes]
 MP_Bcast                3                     12.
 MP_Allreduce          241                      9.
 MP_Alltoall          1582                    757.
 MP_ISend              184                     68.
 MP_IRecv              184                     68.
 -------------------------------------------------------------------------------

 -------------------------------------------------------------------------------
 -                                                                             -
 -                          OFFLOAD MEMPOOL STATISTICS                         -
 -                                                                             -
 -------------------------------------------------------------------------------
 Memory consumption                Number of allocations  Used [MiB]  Size [MiB]
 Device                                                1           0           0
 Host                                                  1           0           0
 -------------------------------------------------------------------------------

 MEMORY| Estimated peak process memory [MiB]                                 162

 -------------------------------------------------------------------------------
 -                                                                             -
 -                         MESSAGE PASSING PERFORMANCE                         -
 -                                                                             -
 -------------------------------------------------------------------------------

 ROUTINE             CALLS      AVE VOLUME [Bytes]
 MP_Group                1
 MP_Bcast               76                     51.
 MP_Allreduce         1185                     26.
 MP_Sync                41
 MP_comm_split          40
 -------------------------------------------------------------------------------


 -------------------------------------------------------------------------------
 -                                                                             -
 -                           R E F E R E N C E S                               -
 -                                                                             -
 -------------------------------------------------------------------------------
 
 CP2K version 2026.1 (Development Version), the CP2K developers group (2026).
 CP2K is freely available from https://www.cp2k.org/ .
 
 M. Iannuzzi, J. Wilhelm, F. Stein, A. Bussy, H. Elgabarty, D. Golze, A. Hehn, 
 M. Graml, S. Marek, B. Sertcan Gökmen, C. Schran, H. Forbert, R. Z. 
 Khaliullin, A. Kozhevnikov, M. Taillefumier, R. Meli, V. V. Rybkin, M. Brehm, 
 R. Schade, O. Schütt, J. V. Pototschnig, H. Mirhosseini, A. Knüpfer, D. Marx, 
 M. Krack, J. Hutter, T. D. Kühne.
 J. Phys. Chem. B 130, 1237-1310 (2026).
 The CP2K Program Package Made Simple.
 https://doi.org/10.1021/acs.jpcb.5c05851

 A. Katbashev, M. Stahn, T. Rose, V. Alizadeh, M. Friede, C. Plett, P. 
 Steinbach, S. Ehlert.
 J. Phys. Chem. A 129, 2667-2682 (2025).
 Overview on Building Blocks and Applications of Efficient and Robust Extended 
 Tight Binding.
 https://doi.org/10.1021/acs.jpca.4c08263

 T. D. Kühne, M. Iannuzzi, M. Del Ben, V. V. Rybkin, P. Seewald, F. Stein, T. 
 Laino, R. Z. Khaliullin, O. Schütt, F. Schiffmann, D. Golze, J. Wilhelm, S. 
 Chulkov, M. H. Bani-Hashemian, V. Weber, U. Borstnik, M. Taillefumier, A. S. 
 Jakobovits, A. Lazzaro, H. Pabst, T. Müller, R. Schade, M. Guidon, S. 
 Andermatt, N. Holmberg, G. K. Schenter, A. Hehn, A. Bussy, F. Belleflamme, G. 
 Tabacchi, A. Glöß, M. Lass, I. Bethune, C. J. Mundy, C. Plessl, M. Watkins, 
 J. VandeVondele, M. Krack, J. Hutter.
 J. Chem. Phys. 152, 194103 (2020).
 CP2K: An electronic structure and molecular dynamics software package - 
 Quickstep: Efficient and accurate electronic structure calculations.
 https://doi.org/10.1063/5.0007045

 P. Pracht, E. Caldeweyher, S. Ehlert, S. Grimme.
 ChemRxiv, (2019).
 A Robust Non-Self-Consistent Tight-Binding Quantum Chemistry Method for large 
 Molecules.
 https://doi.org/10.26434/chemrxiv.8326202.v1

 S. Grimme, C. Bannwarth, P. Shushkov.
 J. Chem. Theory Comput. 13, 1989 (2017).
 A Robust and Accurate Tight-Binding Quantum Chemical Method for Structures, 
 Vibrational Frequencies, and Noncovalent Interactions of Large Molecular 
 Systems Parametrized for All spd-Block Elements (Z = 1-86).
 https://doi.org/10.1021/acs.jctc.7b00118

 O. Schuett, P. Messmer, J. Hutter, J. VandeVondele.
 Electronic Structure Calculations on Graphics Processing Units, 173-190 (2016).
 GPU-Accelerated Sparse Matrix-Matrix Multiplication for Linear Scaling Density 
 Functional Theory.
 https://doi.org/10.1002/9781118670712.ch8

 A. Heinecke, G. Henry, M. Hutchinson, H. Pabst.
 Proceedings of Intl. Supercomputing Conference, 981-991 (2016).
 LIBXSMM: Accelerating Small Matrix Multiplications by Runtime Code Generation.
 https://doi.org/10.1109/SC.2016.83

 U. Borstnik, J. VandeVondele, V. Weber, J. Hutter.
 Parallel Comput. 40, 47-58 (2014).
 Sparse matrix multiplication: The distributed block-compressed sparse row 
 library.
 https://doi.org/10.1016/j.parco.2014.03.012

 T. D. Kühne, M. Krack, F. R. Mohamed, M. Parrinello.
 Phys. Rev. Lett. 98, 066401 (2007).
 Efficient and accurate Car-Parrinello-like approach to Born-Oppenheimer 
 molecular dynamics.
 https://doi.org/10.1103/PhysRevLett.98.066401

 M. Frigo, S. G. Johnson.
 Proc. IEEE 93, 216-231 (2005).
 The design and implementation of FFTW3.
 https://doi.org/10.1109/JPROC.2004.840301

 J. Kolafa.
 J. Comput. Chem. 25, 335-342 (2004).
 Time-reversible always stable predictor-corrector method for molecular dynamics 
 of polarizable molecules.
 https://doi.org/10.1002/jcc.10385

 N. D. Mermin.
 Phys. Rev. 137, A1441-A1443 (1965).
 Thermal Properties of the Inhomogeneous Electron Gas.
 https://doi.org/10.1103/PhysRev.137.A1441


 -------------------------------------------------------------------------------
 -                                                                             -
 -                                T I M I N G                                  -
 -                                                                             -
 -------------------------------------------------------------------------------
 SUBROUTINE                       CALLS  ASD         SELF TIME        TOTAL TIME
                                MAXIMUM       AVERAGE  MAXIMUM  AVERAGE  MAXIMUM
 CP2K                                 1  1.0    0.001    0.001    0.029    0.029
 cp_geo_opt                           1  2.0    0.000    0.000    0.025    0.025
 geoopt_bfgs                          1  3.0    0.000    0.000    0.025    0.025
 cp_eval_at                           4  4.0    0.000    0.000    0.023    0.023
 qs_energies                          4  5.8    0.000    0.000    0.022    0.022
 qs_forces                            3  5.0    0.000    0.000    0.021    0.021
 scf_env_do_scf                       4  6.8    0.000    0.000    0.017    0.017
 scf_env_do_scf_inner_loop           34  8.0    0.001    0.001    0.017    0.017
 qs_scf_new_mos                      34  9.0    0.000    0.000    0.014    0.014
 cp_dbcsr_plus_fm_fm_t               40 10.8    0.000    0.000    0.009    0.009
 calculate_dm_sparse                 37  9.9    0.000    0.000    0.008    0.008
 dbcsr_multiply_generic              46 11.9    0.000    0.000    0.007    0.007
 make_m2s                            92 12.9    0.000    0.000    0.004    0.004
 copy_dbcsr_to_fm                    74 10.4    0.000    0.000    0.004    0.004
 dbcsr_complete_redistribute        160 12.1    0.001    0.001    0.003    0.003
 init_scf_run                         4  6.8    0.000    0.000    0.003    0.003
 qs_init_subsys                       1  2.0    0.000    0.000    0.002    0.002
 qs_diis_b_step                      30 10.0    0.000    0.000    0.002    0.002
 scf_env_initial_rho_setup            4  7.8    0.000    0.000    0.002    0.002
 wfi_extrapolate                      4  8.8    0.000    0.000    0.002    0.002
 copy_fm_to_dbcsr                    86 11.8    0.000    0.000    0.002    0.002
 eigensolver                         34 10.0    0.000    0.000    0.002    0.002
 cp_fm_syevd                         40 10.6    0.000    0.000    0.002    0.002
 make_images                         92 13.9    0.000    0.000    0.002    0.002
 rebuild_ks_matrix                   37  9.7    0.000    0.000    0.002    0.002
 dbcsr_finalize                     991 11.9    0.000    0.000    0.002    0.002
 build_tblite_ks_matrix              37 10.7    0.001    0.001    0.002    0.002
 build_tblite_matrices                7  7.0    0.000    0.000    0.001    0.001
 qs_ks_update_qs_env                 34  9.0    0.000    0.000    0.001    0.001
 multiply_cannon                     46 12.9    0.001    0.001    0.001    0.001
 dbcsr_create_new                  1276 12.9    0.001    0.001    0.001    0.001
 qs_env_setup                         1  3.0    0.000    0.000    0.001    0.001
 dbcsr_crop_matrix                   80 13.8    0.000    0.000    0.001    0.001
 qs_env_rebuild_pw_env                8  6.1    0.000    0.000    0.001    0.001
 pw_env_rebuild                       1  5.0    0.000    0.000    0.001    0.001
 cp_dbcsr_sm_fm_multiply              6 10.5    0.000    0.000    0.001    0.001
 qs_energies_init_hamiltonians        4  6.8    0.000    0.000    0.001    0.001
 pw_grid_setup                        1  6.0    0.000    0.000    0.001    0.001
 pw_grid_setup_internal               1  7.0    0.000    0.000    0.001    0.001
 dbcsr_desymmetrize_deep             74 11.4    0.000    0.000    0.001    0.001
 dbcsr_copy_submatrix                80 14.8    0.000    0.000    0.001    0.001
 dbcsr_iterator_start              2110 12.6    0.001    0.001    0.001    0.001
 tb_get_multipole                     7  8.0    0.000    0.000    0.001    0.001
 reorthogonalize_vectors              3  9.7    0.000    0.000    0.001    0.001
 make_basis_lowdin                    3 10.7    0.000    0.000    0.001    0.001
 cp_fm_redistribute_start            40 11.6    0.001    0.001    0.001    0.001
 pw_grid_sort                         1  8.0    0.001    0.001    0.001    0.001
 dbcsr_merge_all                    280 14.8    0.001    0.001    0.001    0.001
 cp_fm_syevd_base                    40 11.6    0.001    0.001    0.001    0.001
 dbcsr_iterator_stop               2110 12.6    0.001    0.001    0.001    0.001
 scf_c_write_parameters               1  3.0    0.001    0.001    0.001    0.001
 dbcsr_destroy                     1205 12.2    0.000    0.000    0.001    0.001
 compute_matrix_w                     4  6.8    0.000    0.000    0.001    0.001
 calculate_w_matrix_1                 3  8.0    0.000    0.000    0.001    0.001
 make_images_data                    92 14.9    0.000    0.000    0.001    0.001
 parallel_gemm_fm_gemm               75 10.6    0.000    0.000    0.001    0.001
 dbcsr_make_images_dense             80 13.8    0.000    0.000    0.001    0.001
 cp_fm_gemm                          75 11.6    0.001    0.001    0.001    0.001
 write_restart                        3  4.0    0.001    0.001    0.001    0.001
 cp_dbcsr_sm_fm_multiply_core         6 11.5    0.000    0.000    0.001    0.001
 -------------------------------------------------------------------------------

 The number of warnings for this run is : 0
 
 -------------------------------------------------------------------------------
  **** **** ******  **  PROGRAM ENDED AT                 2026-05-23 22:46:20.696
 ***** ** ***  *** **   PROGRAM RAN ON                                spark-c86c
 **    ****   ******    PROGRAM RAN BY                                  kuehne88
 ***** **    ** ** **   PROGRAM PROCESS ID                               2226710
  **** **  *******  **  PROGRAM STOPPED IN /home/kuehne88/periodic-gfn2-benchmar
                                           ks/X23b/runs/molecule_geoopt/GFN2/co2
                                           _GFN2_mol_geoopt
